                         Program Version 5.0.3 -  RELEASE  -
|  1> ! EnGrad PBEh-3c
|  2> %output
|  3> xyzfile=True
|  4> end
|  5> %scf
|  6> maxiter 250
|  7> end
|  8> %output
|  9> Print[P_Hirshfeld] = 1
| 10> end
| 11> % maxcore
| 12> 4000
| 13> *xyz 1 1
| 14> Ir   0.61361551  -0.75035950   0.51890632
| 15> C    0.01560253  -2.90694633   1.19117053
| 16> C    0.23572421  -2.13977779   2.35611311
| 17> C    2.17560563  -2.13845644   1.11376258
| 18> C    1.16881598  -2.82915253   0.36848894
| 19> C    1.58772184  -1.71327420   2.32547525
| 20> N   -1.09628088  -0.12558279  -0.52117432
| 21> C   -2.48810761  -0.11664402   0.02607617
| 22> C   -2.82100332   1.17065520   0.77136024
| 23> H   -3.85214616   1.12619430   1.12049351
| 24> H   -2.72771403   2.03606390   0.11443939
| 25> H   -2.18222569   1.30505401   1.64340664
| 26> C   -3.54389995  -0.41182745  -1.03196519
| 27> H   -2.51144322  -0.94138996   0.74982639
| 28> H   -4.49359663  -0.56577300  -0.53576707
| 29> H   -3.69202009   0.41580500  -1.73172073
| 30> H   -3.31394595  -1.31890545  -1.59745425
| 31> C   -0.86575561   0.23193045  -1.73434221
| 32> C    0.45609763   0.16531041  -2.26142470
| 33> H   -1.69948989   0.53238136  -2.36415957
| 34> C    1.54718166  -0.10038724  -1.47263667
| 35> C    2.69240197  -0.18115365  -2.37084108
| 36> S    0.74742584   0.32550842  -3.96919772
| 37> C    2.40323955   0.01820414  -3.71284716
| 38> H    2.07586092   1.36982083  -0.48187534
| 39> H    3.73971151  -0.34050852  -2.10141575
| 40> H    3.08573820   0.00074761  -4.57414113
| 41> H   -0.83542571  -3.54376441   0.98959042
| 42> H   -0.42980033  -2.08345638   3.20667342
| 43> H    2.11805762  -1.25043913   3.15195654
| 44> O    2.06972817   2.02912677   0.11918571
| 45> O    0.40932743   1.17698239   1.40995817
| 46> C    1.15642899   2.09162901   1.08431493
| 47> C    0.96741132   3.42882386   1.82636634
| 48> H    0.88905179   4.27895877   1.13083423
| 49> H    1.81788128   3.66185284   2.47591589
| 50> H    0.06385991   3.47343042   2.48249312
| 51> H    3.19899953  -1.98604659   0.82189121
| 52> H    1.31495201  -3.39598577  -0.53464649
| 53> *
| 54>
| 55>                          ****END OF INPUT****

CARTESIAN COORDINATES (ANGSTROEM)
---------------------------------
  Ir     0.613616   -0.750359    0.518906
  C      0.015603   -2.906946    1.191171
  C      0.235724   -2.139778    2.356113
  C      2.175606   -2.138456    1.113763
  C      1.168816   -2.829153    0.368489
  C      1.587722   -1.713274    2.325475
  N     -1.096281   -0.125583   -0.521174
  C     -2.488108   -0.116644    0.026076
  C     -2.821003    1.170655    0.771360
  H     -3.852146    1.126194    1.120494
  H     -2.727714    2.036064    0.114439
  H     -2.182226    1.305054    1.643407
  C     -3.543900   -0.411827   -1.031965
  H     -2.511443   -0.941390    0.749826
  H     -4.493597   -0.565773   -0.535767
  H     -3.692020    0.415805   -1.731721
  H     -3.313946   -1.318905   -1.597454
  C     -0.865756    0.231930   -1.734342
  C      0.456098    0.165310   -2.261425
  H     -1.699490    0.532381   -2.364160
  C      1.547182   -0.100387   -1.472637
  C      2.692402   -0.181154   -2.370841
  S      0.747426    0.325508   -3.969198
  C      2.403240    0.018204   -3.712847
  H      2.075861    1.369821   -0.481875
  H      3.739712   -0.340509   -2.101416
  H      3.085738    0.000748   -4.574141
  H     -0.835426   -3.543764    0.989590
  H     -0.429800   -2.083456    3.206673
  H      2.118058   -1.250439    3.151957
  O      2.069728    2.029127    0.119186
  O      0.409327    1.176982    1.409958
  C      1.156429    2.091629    1.084315
  C      0.967411    3.428824    1.826366
  H      0.889052    4.278959    1.130834
  H      1.817881    3.661853    2.475916
  H      0.063860    3.473430    2.482493
  H      3.199000   -1.986047    0.821891
  H      1.314952   -3.395986   -0.534646

 Total Charge           Charge          ....    1
 Multiplicity           Mult            ....    1
 Number of Electrons    NEL             ....  164
 Basis Dimension        Dim             ....  358

ORBITAL ENERGIES
----------------

  NO   OCC          E(Eh)            E(eV)
   0   2.0000     -89.736192     -2441.8459
   1   2.0000     -19.676874      -535.4350
   2   2.0000     -19.670604      -535.2644
   3   2.0000     -14.815812      -403.1587
   4   2.0000     -10.750287      -292.5302
   5   2.0000     -10.637786      -289.4689
   6   2.0000     -10.626114      -289.1513
   7   2.0000     -10.620355      -288.9946
   8   2.0000     -10.610283      -288.7205
   9   2.0000     -10.608346      -288.6678
  10   2.0000     -10.608094      -288.6609
  11   2.0000     -10.605456      -288.5891
  12   2.0000     -10.598583      -288.4021
  13   2.0000     -10.594407      -288.2885
  14   2.0000     -10.587909      -288.1117
  15   2.0000     -10.577193      -287.8200
  16   2.0000     -10.576025      -287.7883
  17   2.0000     -10.544634      -286.9341
  18   2.0000     -10.540609      -286.8246
  19   2.0000      -8.375611      -227.9120
  20   2.0000      -6.265590      -170.4954
  21   2.0000      -6.262227      -170.4039
  22   2.0000      -6.260280      -170.3509
  23   2.0000      -4.009405      -109.1015
  24   2.0000      -2.324199       -63.2447
  25   2.0000      -2.296009       -62.4776
  26   2.0000      -2.290963       -62.3403
  27   2.0000      -1.377604       -37.4865
  28   2.0000      -1.296104       -35.2688
  29   2.0000      -1.183974       -32.2176
  30   2.0000      -1.154456       -31.4144
  31   2.0000      -1.097967       -29.8772
  32   2.0000      -1.008112       -27.4321
  33   2.0000      -0.969899       -26.3923
  34   2.0000      -0.963178       -26.2094
  35   2.0000      -0.958965       -26.0948
  36   2.0000      -0.943019       -25.6609
  37   2.0000      -0.936179       -25.4747
  38   2.0000      -0.889334       -24.2000
  39   2.0000      -0.862340       -23.4655
  40   2.0000      -0.849004       -23.1026
  41   2.0000      -0.781055       -21.2536
  42   2.0000      -0.771627       -20.9970
  43   2.0000      -0.769499       -20.9391
  44   2.0000      -0.761941       -20.7335
  45   2.0000      -0.757542       -20.6138
  46   2.0000      -0.753007       -20.4904
  47   2.0000      -0.714353       -19.4385
  48   2.0000      -0.696636       -18.9564
  49   2.0000      -0.681483       -18.5441
  50   2.0000      -0.674940       -18.3661
  51   2.0000      -0.663784       -18.0625
  52   2.0000      -0.642566       -17.4851
  53   2.0000      -0.628675       -17.1071
  54   2.0000      -0.625163       -17.0115
  55   2.0000      -0.619722       -16.8635
  56   2.0000      -0.611242       -16.6327
  57   2.0000      -0.594305       -16.1719
  58   2.0000      -0.591808       -16.1039
  59   2.0000      -0.590002       -16.0548
  60   2.0000      -0.586772       -15.9669
  61   2.0000      -0.584086       -15.8938
  62   2.0000      -0.580499       -15.7962
  63   2.0000      -0.573613       -15.6088
  64   2.0000      -0.569280       -15.4909
  65   2.0000      -0.559752       -15.2316
  66   2.0000      -0.549328       -14.9480
  67   2.0000      -0.544109       -14.8059
  68   2.0000      -0.536710       -14.6046
  69   2.0000      -0.530182       -14.4270
  70   2.0000      -0.527859       -14.3638
  71   2.0000      -0.522923       -14.2294
  72   2.0000      -0.508518       -13.8375
  73   2.0000      -0.498928       -13.5765
  74   2.0000      -0.491441       -13.3728
  75   2.0000      -0.474174       -12.9029
  76   2.0000      -0.470167       -12.7939
  77   2.0000      -0.446121       -12.1396
  78   2.0000      -0.434035       -11.8107
  79   2.0000      -0.411498       -11.1974
  80   2.0000      -0.400193       -10.8898
  81   2.0000      -0.384637       -10.4665
  82   0.0000      -0.175406        -4.7731
  83   0.0000      -0.163712        -4.4548
  84   0.0000      -0.140834        -3.8323
  85   0.0000      -0.113962        -3.1011
  86   0.0000      -0.071170        -1.9366

MULLIKEN ATOMIC CHARGES
-----------------------
   0 Ir:    0.569889
   1 C :   -0.159491
   2 C :   -0.267950
   3 C :   -0.221939
   4 C :   -0.322694
   5 C :   -0.194682
   6 N :   -0.472808
   7 C :   -0.103595
   8 C :   -0.633497
   9 H :    0.247765
  10 H :    0.223918
  11 H :    0.253187
  12 C :   -0.685553
  13 H :    0.245565
  14 H :    0.266883
  15 H :    0.227337
  16 H :    0.249109
  17 C :    0.083368
  18 C :   -0.172515
  19 H :    0.271480
  20 C :   -0.329402
  21 C :   -0.236544
  22 S :    0.291732
  23 C :   -0.385910
  24 H :    0.535080
  25 H :    0.251084
  26 H :    0.293687
  27 H :    0.281028
  28 H :    0.277531
  29 H :    0.281543
  30 O :   -0.568581
  31 O :   -0.411163
  32 C :    0.647791
  33 C :   -0.748979
  34 H :    0.283331
  35 H :    0.287261
  36 H :    0.278518
  37 H :    0.285049
  38 H :    0.283167
Sum of atomic charges:    1.0000000

LOEWDIN ATOMIC CHARGES
----------------------
   0 Ir:   -0.264659
   1 C :   -0.014924
   2 C :   -0.103017
   3 C :   -0.074715
   4 C :   -0.091380
   5 C :   -0.038491
   6 N :   -0.039050
   7 C :   -0.058035
   8 C :   -0.352064
   9 H :    0.146208
  10 H :    0.134936
  11 H :    0.143641
  12 C :   -0.363752
  13 H :    0.138990
  14 H :    0.153339
  15 H :    0.133377
  16 H :    0.141186
  17 C :    0.032006
  18 C :   -0.233234
  19 H :    0.152677
  20 C :   -0.155359
  21 C :   -0.174440
  22 S :    0.437240
  23 C :   -0.258233
  24 H :    0.326625
  25 H :    0.151960
  26 H :    0.168991
  27 H :    0.179214
  28 H :    0.177441
  29 H :    0.180821
  30 O :   -0.229662
  31 O :   -0.094006
  32 C :    0.242968
  33 C :   -0.372871
  34 H :    0.171416
  35 H :    0.174520
  36 H :    0.166666
  37 H :    0.181874
  38 H :    0.181794

  Mayer bond orders larger than 0.100000
B(  0-Ir,  1-C ) :   0.3195 B(  0-Ir,  2-C ) :   0.3464 B(  0-Ir,  3-C ) :   0.4237
B(  0-Ir,  4-C ) :   0.4984 B(  0-Ir,  5-C ) :   0.3985 B(  0-Ir,  6-N ) :   0.5072
B(  0-Ir, 20-C ) :   0.5944 B(  0-Ir, 31-O ) :   0.4211 B(  1-C ,  2-C ) :   1.2605
B(  1-C ,  4-C ) :   1.1943 B(  1-C , 27-H ) :   0.9143 B(  2-C ,  5-C ) :   1.1528
B(  2-C , 28-H ) :   0.9172 B(  3-C ,  4-C ) :   1.1211 B(  3-C ,  5-C ) :   1.2380
B(  3-C , 37-H ) :   0.9093 B(  4-C , 38-H ) :   0.9170 B(  5-C , 29-H ) :   0.9140
B(  6-N ,  7-C ) :   0.8920 B(  6-N , 17-C ) :   1.5992 B(  7-C ,  8-C ) :   0.9782
B(  7-C , 12-C ) :   0.9903 B(  7-C , 13-H ) :   0.8939 B(  8-C ,  9-H ) :   0.9074
B(  8-C , 10-H ) :   0.9186 B(  8-C , 11-H ) :   0.9094 B( 12-C , 14-H ) :   0.9043
B( 12-C , 15-H ) :   0.9120 B( 12-C , 16-H ) :   0.9144 B( 17-C , 18-C ) :   1.1375
B( 17-C , 19-H ) :   0.8788 B( 18-C , 20-C ) :   1.3386 B( 18-C , 22-S ) :   1.1489
B( 20-C , 21-C ) :   1.3313 B( 21-C , 23-C ) :   1.5269 B( 21-C , 25-H ) :   0.9070
B( 22-S , 23-C ) :   1.2397 B( 23-C , 26-H ) :   0.8882 B( 24-H , 30-O ) :   0.6086
B( 30-O , 32-C ) :   1.2469 B( 31-O , 32-C ) :   1.6161 B( 32-C , 33-C ) :   0.9441
B( 33-C , 34-H ) :   0.8892 B( 33-C , 35-H ) :   0.8847 B( 33-C , 36-H ) :   0.9036

Dispersion correction           -0.029539589
FINAL SINGLE POINT ENERGY     -1288.379633007247
Dispersion correction            ... done

DIPOLE MOMENT
-------------
                                X             Y             Z
Electronic contribution:     37.96027     -73.46764      81.20117
Nuclear contribution   :    -38.38436      73.61212     -80.52473
                        -----------------------------------------
Total Dipole Moment    :     -0.42409       0.14448       0.67645
                        -----------------------------------------
Magnitude (a.u.)       :      0.81136
Magnitude (Debye)      :      2.06232

Rotational constants in cm-1:     0.010493     0.008215     0.007677
Rotational constants in MHz :   314.562769   246.294090   230.144825

                             ****ORCA TERMINATED NORMALLY****
TOTAL RUN TIME: 0 days 0 hours 17 minutes 45 seconds 226 msec
