                         Program Version 5.0.3 -  RELEASE  -
|  1> ! EnGrad PBEh-3c
|  2> %output
|  3> xyzfile=True
|  4> end
|  5> %scf
|  6> maxiter 250
|  7> end
|  8> %output
|  9> Print[P_Hirshfeld] = 1
| 10> end
| 11> % maxcore
| 12> 4000
| 13> *xyz 1 1
| 14> Ir   0.62769212  -0.75862274   0.50887957
| 15> C    0.00903659  -2.91175360   1.20719803
| 16> C    0.25797078  -2.13337816   2.36708063
| 17> C    2.18441005  -2.16160308   1.09368468
| 18> C    1.15798502  -2.83398426   0.36584065
| 19> C    1.60229926  -1.71311784   2.31572282
| 20> N   -1.09232007  -0.12562679  -0.52733360
| 21> C   -2.47716421  -0.11325860   0.02267579
| 22> C   -2.82280708   1.18148822   0.75743956
| 23> H   -3.85754498   1.13796645   1.10071998
| 24> H   -2.73081353   2.04423886   0.09506954
| 25> H   -2.18392907   1.33357151   1.63151461
| 26> C   -3.53865093  -0.42021923  -1.03025749
| 27> H   -2.50596135  -0.93266763   0.75960236
| 28> H   -4.48834567  -0.57225610  -0.53570198
| 29> H   -3.68789199   0.40074517  -1.74132667
| 30> H   -3.30391803  -1.33122056  -1.59206595
| 31> C   -0.86708239   0.22838143  -1.73425431
| 32> C    0.45044439   0.16577583  -2.25480161
| 33> H   -1.70327762   0.53820501  -2.36723252
| 34> C    1.54445567  -0.10403249  -1.48054887
| 35> C    2.68556801  -0.17390423  -2.35811374
| 36> S    0.74661845   0.32124169  -3.95540957
| 37> C    2.40058878   0.01104261  -3.69720068
| 38> H    2.03637201   1.31572793  -0.46626130
| 39> H    3.73913494  -0.33098937  -2.10416102
| 40> H    3.07600932  -0.00113770  -4.56961917
| 41> H   -0.86141289  -3.51978064   1.00833507
| 42> H   -0.40358548  -2.06941653   3.21923730
| 43> H    2.15062304  -1.24012881   3.12938126
| 44> O    2.04714246   2.10529681   0.19717137
| 45> O    0.43422238   1.17477274   1.39337401
| 46> C    1.14882014   2.09239711   1.08344916
| 47> C    0.97527046   3.41002151   1.82077743
| 48> H    0.88899788   4.26742145   1.13910019
| 49> H    1.81070693   3.65398710   2.48283445
| 50> H    0.06812795   3.46050924   2.47627188
| 51> H    3.19820161  -2.00087388   0.78759745
| 52> H    1.28068488  -3.39614684  -0.54504763
| 53> *
| 54>
| 55>                          ****END OF INPUT****

CARTESIAN COORDINATES (ANGSTROEM)
---------------------------------
  Ir     0.627692   -0.758623    0.508880
  C      0.009037   -2.911754    1.207198
  C      0.257971   -2.133378    2.367081
  C      2.184410   -2.161603    1.093685
  C      1.157985   -2.833984    0.365841
  C      1.602299   -1.713118    2.315723
  N     -1.092320   -0.125627   -0.527334
  C     -2.477164   -0.113259    0.022676
  C     -2.822807    1.181488    0.757440
  H     -3.857545    1.137966    1.100720
  H     -2.730814    2.044239    0.095070
  H     -2.183929    1.333572    1.631515
  C     -3.538651   -0.420219   -1.030257
  H     -2.505961   -0.932668    0.759602
  H     -4.488346   -0.572256   -0.535702
  H     -3.687892    0.400745   -1.741327
  H     -3.303918   -1.331221   -1.592066
  C     -0.867082    0.228381   -1.734254
  C      0.450444    0.165776   -2.254802
  H     -1.703278    0.538205   -2.367233
  C      1.544456   -0.104032   -1.480549
  C      2.685568   -0.173904   -2.358114
  S      0.746618    0.321242   -3.955410
  C      2.400589    0.011043   -3.697201
  H      2.036372    1.315728   -0.466261
  H      3.739135   -0.330989   -2.104161
  H      3.076009   -0.001138   -4.569619
  H     -0.861413   -3.519781    1.008335
  H     -0.403585   -2.069417    3.219237
  H      2.150623   -1.240129    3.129381
  O      2.047142    2.105297    0.197171
  O      0.434222    1.174773    1.393374
  C      1.148820    2.092397    1.083449
  C      0.975270    3.410022    1.820777
  H      0.888998    4.267421    1.139100
  H      1.810707    3.653987    2.482834
  H      0.068128    3.460509    2.476272
  H      3.198202   -2.000874    0.787597
  H      1.280685   -3.396147   -0.545048

 Total Charge           Charge          ....    1
 Multiplicity           Mult            ....    1
 Number of Electrons    NEL             ....  164
 Basis Dimension        Dim             ....  358

ORBITAL ENERGIES
----------------

  NO   OCC          E(Eh)            E(eV)
   0   2.0000     -89.739785     -2441.9437
   1   2.0000     -19.676655      -535.4290
   2   2.0000     -19.665407      -535.1229
   3   2.0000     -14.817870      -403.2147
   4   2.0000     -10.729865      -291.9745
   5   2.0000     -10.639432      -289.5137
   6   2.0000     -10.629296      -289.2378
   7   2.0000     -10.622481      -289.0524
   8   2.0000     -10.612531      -288.7817
   9   2.0000     -10.610899      -288.7373
  10   2.0000     -10.609661      -288.7036
  11   2.0000     -10.606822      -288.6263
  12   2.0000     -10.601101      -288.4706
  13   2.0000     -10.597672      -288.3773
  14   2.0000     -10.590478      -288.1816
  15   2.0000     -10.578454      -287.8544
  16   2.0000     -10.562996      -287.4337
  17   2.0000     -10.546034      -286.9722
  18   2.0000     -10.541600      -286.8515
  19   2.0000      -8.379381      -228.0146
  20   2.0000      -6.269297      -170.5962
  21   2.0000      -6.265919      -170.5043
  22   2.0000      -6.264150      -170.4562
  23   2.0000      -4.010838      -109.1405
  24   2.0000      -2.325727       -63.2863
  25   2.0000      -2.297005       -62.5047
  26   2.0000      -2.292632       -62.3857
  27   2.0000      -1.387122       -37.7455
  28   2.0000      -1.294040       -35.2126
  29   2.0000      -1.189751       -32.3748
  30   2.0000      -1.154345       -31.4113
  31   2.0000      -1.105311       -30.0770
  32   2.0000      -1.009857       -27.4796
  33   2.0000      -0.962631       -26.1945
  34   2.0000      -0.962143       -26.1812
  35   2.0000      -0.959546       -26.1106
  36   2.0000      -0.947106       -25.7721
  37   2.0000      -0.941465       -25.6186
  38   2.0000      -0.888870       -24.1874
  39   2.0000      -0.853800       -23.2331
  40   2.0000      -0.830792       -22.6070
  41   2.0000      -0.783748       -21.3269
  42   2.0000      -0.773238       -21.0409
  43   2.0000      -0.770312       -20.9613
  44   2.0000      -0.763652       -20.7800
  45   2.0000      -0.756907       -20.5965
  46   2.0000      -0.753396       -20.5009
  47   2.0000      -0.717176       -19.5154
  48   2.0000      -0.701861       -19.0986
  49   2.0000      -0.687694       -18.7131
  50   2.0000      -0.679736       -18.4966
  51   2.0000      -0.667545       -18.1648
  52   2.0000      -0.643409       -17.5080
  53   2.0000      -0.630125       -17.1466
  54   2.0000      -0.624726       -16.9997
  55   2.0000      -0.621821       -16.9206
  56   2.0000      -0.613970       -16.7070
  57   2.0000      -0.596344       -16.2273
  58   2.0000      -0.592456       -16.1215
  59   2.0000      -0.590592       -16.0708
  60   2.0000      -0.585315       -15.9272
  61   2.0000      -0.582104       -15.8398
  62   2.0000      -0.577363       -15.7109
  63   2.0000      -0.567289       -15.4367
  64   2.0000      -0.566581       -15.4174
  65   2.0000      -0.561453       -15.2779
  66   2.0000      -0.552256       -15.0276
  67   2.0000      -0.541774       -14.7424
  68   2.0000      -0.534947       -14.5566
  69   2.0000      -0.530221       -14.4281
  70   2.0000      -0.527700       -14.3594
  71   2.0000      -0.525250       -14.2928
  72   2.0000      -0.508252       -13.8302
  73   2.0000      -0.499808       -13.6005
  74   2.0000      -0.493816       -13.4374
  75   2.0000      -0.475530       -12.9398
  76   2.0000      -0.471411       -12.8277
  77   2.0000      -0.448597       -12.2070
  78   2.0000      -0.436355       -11.8738
  79   2.0000      -0.413459       -11.2508
  80   2.0000      -0.404175       -10.9982
  81   2.0000      -0.387857       -10.5541
  82   0.0000      -0.179510        -4.8847
  83   0.0000      -0.166663        -4.5351
  84   0.0000      -0.142473        -3.8769
  85   0.0000      -0.089700        -2.4409
  86   0.0000      -0.073103        -1.9892

MULLIKEN ATOMIC CHARGES
-----------------------
   0 Ir:    0.564929
   1 C :   -0.152458
   2 C :   -0.261771
   3 C :   -0.210997
   4 C :   -0.337030
   5 C :   -0.202478
   6 N :   -0.465753
   7 C :   -0.105482
   8 C :   -0.633198
   9 H :    0.247689
  10 H :    0.224163
  11 H :    0.254560
  12 C :   -0.685096
  13 H :    0.244495
  14 H :    0.267930
  15 H :    0.226845
  16 H :    0.247793
  17 C :    0.083312
  18 C :   -0.162132
  19 H :    0.272347
  20 C :   -0.349400
  21 C :   -0.230557
  22 S :    0.297968
  23 C :   -0.388395
  24 H :    0.532889
  25 H :    0.253935
  26 H :    0.295623
  27 H :    0.282248
  28 H :    0.279116
  29 H :    0.283244
  30 O :   -0.532266
  31 O :   -0.416424
  32 C :    0.633823
  33 C :   -0.761271
  34 H :    0.278647
  35 H :    0.285126
  36 H :    0.266987
  37 H :    0.286830
  38 H :    0.284210
Sum of atomic charges:    1.0000000

LOEWDIN ATOMIC CHARGES
----------------------
   0 Ir:   -0.264699
   1 C :   -0.012000
   2 C :   -0.099836
   3 C :   -0.071464
   4 C :   -0.095405
   5 C :   -0.039076
   6 N :   -0.033541
   7 C :   -0.058978
   8 C :   -0.351992
   9 H :    0.146428
  10 H :    0.134852
  11 H :    0.144444
  12 C :   -0.363666
  13 H :    0.138793
  14 H :    0.153446
  15 H :    0.133056
  16 H :    0.140507
  17 C :    0.029289
  18 C :   -0.229636
  19 H :    0.153777
  20 C :   -0.167754
  21 C :   -0.170999
  22 S :    0.446759
  23 C :   -0.257851
  24 H :    0.369597
  25 H :    0.154334
  26 H :    0.169820
  27 H :    0.179547
  28 H :    0.178049
  29 H :    0.182095
  30 O :   -0.203523
  31 O :   -0.092278
  32 C :    0.172158
  33 C :   -0.378324
  34 H :    0.168155
  35 H :    0.172701
  36 H :    0.159260
  37 H :    0.182308
  38 H :    0.181644

  Mayer bond orders larger than 0.100000
B(  0-Ir,  1-C ) :   0.3199 B(  0-Ir,  2-C ) :   0.3419 B(  0-Ir,  3-C ) :   0.4260
B(  0-Ir,  4-C ) :   0.5006 B(  0-Ir,  5-C ) :   0.4035 B(  0-Ir,  6-N ) :   0.4998
B(  0-Ir, 20-C ) :   0.5800 B(  0-Ir, 31-O ) :   0.4284 B(  1-C ,  2-C ) :   1.2597
B(  1-C ,  4-C ) :   1.1901 B(  1-C , 27-H ) :   0.9125 B(  2-C ,  5-C ) :   1.1537
B(  2-C , 28-H ) :   0.9166 B(  3-C ,  4-C ) :   1.1218 B(  3-C ,  5-C ) :   1.2314
B(  3-C , 37-H ) :   0.9073 B(  4-C , 38-H ) :   0.9157 B(  5-C , 29-H ) :   0.9135
B(  6-N ,  7-C ) :   0.8949 B(  6-N , 17-C ) :   1.6074 B(  7-C ,  8-C ) :   0.9763
B(  7-C , 12-C ) :   0.9884 B(  7-C , 13-H ) :   0.8944 B(  8-C ,  9-H ) :   0.9072
B(  8-C , 10-H ) :   0.9182 B(  8-C , 11-H ) :   0.9092 B( 12-C , 14-H ) :   0.9042
B( 12-C , 15-H ) :   0.9118 B( 12-C , 16-H ) :   0.9148 B( 17-C , 18-C ) :   1.1333
B( 17-C , 19-H ) :   0.8779 B( 18-C , 20-C ) :   1.3222 B( 18-C , 22-S ) :   1.1615
B( 20-C , 21-C ) :   1.3368 B( 21-C , 23-C ) :   1.5249 B( 21-C , 25-H ) :   0.9061
B( 22-S , 23-C ) :   1.2438 B( 23-C , 26-H ) :   0.8867 B( 24-H , 30-O ) :   0.5509
B( 30-O , 32-C ) :   1.3376 B( 31-O , 32-C ) :   1.6034 B( 32-C , 33-C ) :   0.9362
B( 33-C , 34-H ) :   0.8931 B( 33-C , 35-H ) :   0.8878 B( 33-C , 36-H ) :   0.9103

Dispersion correction           -0.029549888
FINAL SINGLE POINT ENERGY     -1288.393821785855
Dispersion correction            ... done

DIPOLE MOMENT
-------------
                                X             Y             Z
Electronic contribution:     39.26073     -74.57834      79.73024
Nuclear contribution   :    -39.68424      74.52389     -79.26412
                        -----------------------------------------
Total Dipole Moment    :     -0.42351      -0.05444       0.46612
                        -----------------------------------------
Magnitude (a.u.)       :      0.63213
Magnitude (Debye)      :      1.60676

Rotational constants in cm-1:     0.010451     0.008233     0.007713
Rotational constants in MHz :   313.311854   246.828079   231.223068

                             ****ORCA TERMINATED NORMALLY****
TOTAL RUN TIME: 0 days 0 hours 17 minutes 33 seconds 366 msec
