                         Program Version 5.0.3 -  RELEASE  -
|  1> ! EnGrad PBEh-3c
|  2> %output
|  3> xyzfile=True
|  4> end
|  5> %scf
|  6> maxiter 250
|  7> end
|  8> %output
|  9> Print[P_Hirshfeld] = 1
| 10> end
| 11> % maxcore
| 12> 4000
| 13> *xyz 1 1
| 14> Ir   0.64737458  -0.76160320   0.49384588
| 15> C    0.00516330  -2.91462607   1.23143394
| 16> C    0.27676502  -2.13203143   2.37502051
| 17> C    2.19198297  -2.18729934   1.08108526
| 18> C    1.13628550  -2.84552982   0.36169826
| 19> C    1.63771061  -1.71222942   2.29781418
| 20> N   -1.08818919  -0.12780910  -0.53168042
| 21> C   -2.47186281  -0.11073786   0.02462332
| 22> C   -2.82266807   1.19782794   0.74184676
| 23> H   -3.86432152   1.15240024   1.07392268
| 24> H   -2.73499578   2.05462539   0.06944970
| 25> H   -2.18739500   1.37026990   1.61358995
| 26> C   -3.52853937  -0.43146146  -1.03319043
| 27> H   -2.49788503  -0.91902243   0.77032472
| 28> H   -4.48190437  -0.58069379  -0.53404893
| 29> H   -3.68253831   0.38010739  -1.75289807
| 30> H   -3.29142479  -1.34612202  -1.58381849
| 31> C   -0.87327463   0.22916389  -1.73878170
| 32> C    0.44614521   0.16456113  -2.25498222
| 33> H   -1.70543630   0.54394003  -2.36807363
| 34> C    1.54444085  -0.09867569  -1.46246718
| 35> C    2.68736174  -0.16613461  -2.34928773
| 36> S    0.74355041   0.31675092  -3.94338483
| 37> C    2.39556632   0.00283012  -3.68832189
| 38> H    1.98575312   1.28644800  -0.41129489
| 39> H    3.73863045  -0.31844477  -2.10684285
| 40> H    3.06419319  -0.00342648  -4.56484617
| 41> H   -0.89376919  -3.48903990   1.03358948
| 42> H   -0.36924088  -2.05115476   3.23769617
| 43> H    2.19209172  -1.22864326   3.09878663
| 44> O    2.04463472   2.14552907   0.21836998
| 45> O    0.43563906   1.14803254   1.38780406
| 46> C    1.14893961   2.10450492   1.09491072
| 47> C    0.97208658   3.39796934   1.82575306
| 48> H    0.88871780   4.25362914   1.14970735
| 49> H    1.80229929   3.64298516   2.49234058
| 50> H    0.07167891   3.44731451   2.47137680
| 51> H    3.19621918  -2.01950367   0.74178517
| 52> H    1.23570580  -3.39618699  -0.55845704
| 53> *
| 54>
| 55>                          ****END OF INPUT****

CARTESIAN COORDINATES (ANGSTROEM)
---------------------------------
  Ir     0.647375   -0.761603    0.493846
  C      0.005163   -2.914626    1.231434
  C      0.276765   -2.132031    2.375021
  C      2.191983   -2.187299    1.081085
  C      1.136286   -2.845530    0.361698
  C      1.637711   -1.712229    2.297814
  N     -1.088189   -0.127809   -0.531680
  C     -2.471863   -0.110738    0.024623
  C     -2.822668    1.197828    0.741847
  H     -3.864322    1.152400    1.073923
  H     -2.734996    2.054625    0.069450
  H     -2.187395    1.370270    1.613590
  C     -3.528539   -0.431461   -1.033190
  H     -2.497885   -0.919022    0.770325
  H     -4.481904   -0.580694   -0.534049
  H     -3.682538    0.380107   -1.752898
  H     -3.291425   -1.346122   -1.583818
  C     -0.873275    0.229164   -1.738782
  C      0.446145    0.164561   -2.254982
  H     -1.705436    0.543940   -2.368074
  C      1.544441   -0.098676   -1.462467
  C      2.687362   -0.166135   -2.349288
  S      0.743550    0.316751   -3.943385
  C      2.395566    0.002830   -3.688322
  H      1.985753    1.286448   -0.411295
  H      3.738630   -0.318445   -2.106843
  H      3.064193   -0.003426   -4.564846
  H     -0.893769   -3.489040    1.033589
  H     -0.369241   -2.051155    3.237696
  H      2.192092   -1.228643    3.098787
  O      2.044635    2.145529    0.218370
  O      0.435639    1.148033    1.387804
  C      1.148940    2.104505    1.094911
  C      0.972087    3.397969    1.825753
  H      0.888718    4.253629    1.149707
  H      1.802299    3.642985    2.492341
  H      0.071679    3.447315    2.471377
  H      3.196219   -2.019504    0.741785
  H      1.235706   -3.396187   -0.558457

 Total Charge           Charge          ....    1
 Multiplicity           Mult            ....    1
 Number of Electrons    NEL             ....  164
 Basis Dimension        Dim             ....  358

ORBITAL ENERGIES
----------------

  NO   OCC          E(Eh)            E(eV)
   0   2.0000     -89.740324     -2441.9584
   1   2.0000     -19.680733      -535.5400
   2   2.0000     -19.663424      -535.0690
   3   2.0000     -14.817778      -403.2122
   4   2.0000     -10.729106      -291.9538
   5   2.0000     -10.638903      -289.4993
   6   2.0000     -10.629370      -289.2399
   7   2.0000     -10.622944      -289.0650
   8   2.0000     -10.613344      -288.8038
   9   2.0000     -10.611934      -288.7654
  10   2.0000     -10.610313      -288.7213
  11   2.0000     -10.605976      -288.6033
  12   2.0000     -10.600301      -288.4489
  13   2.0000     -10.598428      -288.3979
  14   2.0000     -10.593115      -288.2533
  15   2.0000     -10.578724      -287.8617
  16   2.0000     -10.561009      -287.3797
  17   2.0000     -10.546761      -286.9919
  18   2.0000     -10.542441      -286.8744
  19   2.0000      -8.380147      -228.0354
  20   2.0000      -6.270042      -170.6165
  21   2.0000      -6.266643      -170.5240
  22   2.0000      -6.264962      -170.4783
  23   2.0000      -4.010548      -109.1326
  24   2.0000      -2.325048       -63.2678
  25   2.0000      -2.296597       -62.4936
  26   2.0000      -2.292775       -62.3896
  27   2.0000      -1.384071       -37.6625
  28   2.0000      -1.285772       -34.9876
  29   2.0000      -1.189923       -32.3795
  30   2.0000      -1.151748       -31.3407
  31   2.0000      -1.105683       -30.0872
  32   2.0000      -1.009174       -27.4610
  33   2.0000      -0.965628       -26.2761
  34   2.0000      -0.963731       -26.2244
  35   2.0000      -0.957325       -26.0501
  36   2.0000      -0.947184       -25.7742
  37   2.0000      -0.941710       -25.6252
  38   2.0000      -0.888481       -24.1768
  39   2.0000      -0.853815       -23.2335
  40   2.0000      -0.819487       -22.2994
  41   2.0000      -0.784318       -21.3424
  42   2.0000      -0.772407       -21.0183
  43   2.0000      -0.769808       -20.9475
  44   2.0000      -0.762924       -20.7602
  45   2.0000      -0.755668       -20.5628
  46   2.0000      -0.751493       -20.4492
  47   2.0000      -0.718024       -19.5384
  48   2.0000      -0.701822       -19.0975
  49   2.0000      -0.686271       -18.6744
  50   2.0000      -0.680006       -18.5039
  51   2.0000      -0.668251       -18.1840
  52   2.0000      -0.643044       -17.4981
  53   2.0000      -0.629587       -17.1319
  54   2.0000      -0.623798       -16.9744
  55   2.0000      -0.619460       -16.8564
  56   2.0000      -0.613407       -16.6917
  57   2.0000      -0.596687       -16.2367
  58   2.0000      -0.592218       -16.1151
  59   2.0000      -0.590567       -16.0701
  60   2.0000      -0.586865       -15.9694
  61   2.0000      -0.582469       -15.8498
  62   2.0000      -0.578597       -15.7444
  63   2.0000      -0.568074       -15.4581
  64   2.0000      -0.567342       -15.4382
  65   2.0000      -0.562014       -15.2932
  66   2.0000      -0.552021       -15.0213
  67   2.0000      -0.541679       -14.7398
  68   2.0000      -0.536074       -14.5873
  69   2.0000      -0.529934       -14.4202
  70   2.0000      -0.528836       -14.3904
  71   2.0000      -0.526627       -14.3302
  72   2.0000      -0.509406       -13.8616
  73   2.0000      -0.499473       -13.5914
  74   2.0000      -0.494784       -13.4638
  75   2.0000      -0.475195       -12.9307
  76   2.0000      -0.472372       -12.8539
  77   2.0000      -0.448537       -12.2053
  78   2.0000      -0.436513       -11.8781
  79   2.0000      -0.414211       -11.2713
  80   2.0000      -0.403200       -10.9716
  81   2.0000      -0.387047       -10.5321
  82   0.0000      -0.179986        -4.8977
  83   0.0000      -0.167344        -4.5537
  84   0.0000      -0.139989        -3.8093
  85   0.0000      -0.093288        -2.5385
  86   0.0000      -0.072787        -1.9806

MULLIKEN ATOMIC CHARGES
-----------------------
   0 Ir:    0.570592
   1 C :   -0.137719
   2 C :   -0.261577
   3 C :   -0.199948
   4 C :   -0.356453
   5 C :   -0.211541
   6 N :   -0.461565
   7 C :   -0.105770
   8 C :   -0.633330
   9 H :    0.246493
  10 H :    0.224073
  11 H :    0.255173
  12 C :   -0.685902
  13 H :    0.244745
  14 H :    0.266475
  15 H :    0.227794
  16 H :    0.248936
  17 C :    0.084821
  18 C :   -0.166358
  19 H :    0.273009
  20 C :   -0.358948
  21 C :   -0.224103
  22 S :    0.302382
  23 C :   -0.388631
  24 H :    0.524001
  25 H :    0.254078
  26 H :    0.295428
  27 H :    0.282516
  28 H :    0.279116
  29 H :    0.283591
  30 O :   -0.512461
  31 O :   -0.443945
  32 C :    0.637926
  33 C :   -0.767038
  34 H :    0.281996
  35 H :    0.287897
  36 H :    0.269756
  37 H :    0.289162
  38 H :    0.285329
Sum of atomic charges:    1.0000000

LOEWDIN ATOMIC CHARGES
----------------------
   0 Ir:   -0.266410
   1 C :   -0.011425
   2 C :   -0.098536
   3 C :   -0.068446
   4 C :   -0.102511
   5 C :   -0.041535
   6 N :   -0.032336
   7 C :   -0.058236
   8 C :   -0.352344
   9 H :    0.146326
  10 H :    0.134613
  11 H :    0.144476
  12 C :   -0.363789
  13 H :    0.138773
  14 H :    0.153173
  15 H :    0.133212
  16 H :    0.140680
  17 C :    0.027908
  18 C :   -0.230049
  19 H :    0.154035
  20 C :   -0.168014
  21 C :   -0.166180
  22 S :    0.454307
  23 C :   -0.260479
  24 H :    0.373878
  25 H :    0.154575
  26 H :    0.169415
  27 H :    0.179577
  28 H :    0.177700
  29 H :    0.182219
  30 O :   -0.195460
  31 O :   -0.116633
  32 C :    0.175827
  33 C :   -0.378199
  34 H :    0.170349
  35 H :    0.175352
  36 H :    0.159510
  37 H :    0.183028
  38 H :    0.181648

  Mayer bond orders larger than 0.100000
B(  0-Ir,  1-C ) :   0.3015 B(  0-Ir,  2-C ) :   0.3328 B(  0-Ir,  3-C ) :   0.4176
B(  0-Ir,  4-C ) :   0.5058 B(  0-Ir,  5-C ) :   0.4072 B(  0-Ir,  6-N ) :   0.4991
B(  0-Ir, 20-C ) :   0.5795 B(  0-Ir, 31-O ) :   0.4363 B(  1-C ,  2-C ) :   1.2743
B(  1-C ,  4-C ) :   1.1839 B(  1-C , 27-H ) :   0.9105 B(  2-C ,  5-C ) :   1.1449
B(  2-C , 28-H ) :   0.9166 B(  3-C ,  4-C ) :   1.1215 B(  3-C ,  5-C ) :   1.2373
B(  3-C , 37-H ) :   0.9042 B(  4-C , 38-H ) :   0.9144 B(  5-C , 29-H ) :   0.9136
B(  6-N ,  7-C ) :   0.8950 B(  6-N , 17-C ) :   1.6091 B(  7-C ,  8-C ) :   0.9753
B(  7-C , 12-C ) :   0.9873 B(  7-C , 13-H ) :   0.8950 B(  8-C ,  9-H ) :   0.9075
B(  8-C , 10-H ) :   0.9182 B(  8-C , 11-H ) :   0.9092 B( 12-C , 14-H ) :   0.9050
B( 12-C , 15-H ) :   0.9114 B( 12-C , 16-H ) :   0.9142 B( 17-C , 18-C ) :   1.1337
B( 17-C , 19-H ) :   0.8773 B( 18-C , 20-C ) :   1.3117 B( 18-C , 22-S ) :   1.1706
B( 20-C , 21-C ) :   1.3332 B( 20-C , 24-H ) :   0.1147 B( 21-C , 23-C ) :   1.5295
B( 21-C , 25-H ) :   0.9064 B( 22-S , 23-C ) :   1.2402 B( 23-C , 26-H ) :   0.8866
B( 24-H , 30-O ) :   0.5378 B( 30-O , 32-C ) :   1.3760 B( 31-O , 32-C ) :   1.5632
B( 32-C , 33-C ) :   0.9428 B( 33-C , 34-H ) :   0.8914 B( 33-C , 35-H ) :   0.8859
B( 33-C , 36-H ) :   0.9091

Dispersion correction           -0.029566648
FINAL SINGLE POINT ENERGY     -1288.396696643967
Dispersion correction            ... done

DIPOLE MOMENT
-------------
                                X             Y             Z
Electronic contribution:     41.06842     -74.75988      78.08201
Nuclear contribution   :    -41.53065      74.76043     -77.61572
                        -----------------------------------------
Total Dipole Moment    :     -0.46223       0.00055       0.46629
                        -----------------------------------------
Magnitude (a.u.)       :      0.65657
Magnitude (Debye)      :      1.66887

Rotational constants in cm-1:     0.010415     0.008259     0.007738
Rotational constants in MHz :   312.228434   247.596318   231.967129

                             ****ORCA TERMINATED NORMALLY****
TOTAL RUN TIME: 0 days 0 hours 18 minutes 39 seconds 504 msec
