                         Program Version 5.0.3 -  RELEASE  -
|  1> ! EnGrad PBEh-3c
|  2> %output
|  3> xyzfile=True
|  4> end
|  5> %scf
|  6> maxiter 250
|  7> end
|  8> %output
|  9> Print[P_Hirshfeld] = 1
| 10> end
| 11> % maxcore
| 12> 4000
| 13> *xyz 1 1
| 14> Ir   0.68253041  -0.77670433   0.47979258
| 15> C   -0.00409635  -2.91107129   1.28188653
| 16> C    0.32867554  -2.12818797   2.39510499
| 17> C    2.20047517  -2.24113883   1.04184050
| 18> C    1.08821034  -2.87489228   0.35243887
| 19> C    1.71664936  -1.71469451   2.24993423
| 20> N   -1.07744458  -0.13367372  -0.53221024
| 21> C   -2.45592741  -0.10299013   0.02672442
| 22> C   -2.82222872   1.23517305   0.70057507
| 23> H   -3.87655029   1.18814728   1.01068794
| 24> H   -2.74508053   2.07753134   0.00609977
| 25> H   -2.19857786   1.45755812   1.56869748
| 26> C   -3.50566876  -0.45858887  -1.03605413
| 27> H   -2.47895955  -0.88251706   0.79433645
| 28> H   -4.46563328  -0.60144927  -0.53175262
| 29> H   -3.66861864   0.32929171  -1.77868577
| 30> H   -3.26111987  -1.38217412  -1.56203873
| 31> C   -0.88692576   0.23043198  -1.74855935
| 32> C    0.43824122   0.16855377  -2.25110975
| 33> H   -1.70747330   0.55761637  -2.37093747
| 34> C    1.54282655  -0.08365874  -1.44146488
| 35> C    2.69387627  -0.15013628  -2.32918769
| 36> S    0.73828609   0.30065934  -3.91408645
| 37> C    2.38495727  -0.01131246  -3.66950516
| 38> H    1.88202979   1.24231410  -0.27964522
| 39> H    3.73662241  -0.28734601  -2.10991109
| 40> H    3.03416410  -0.01080680  -4.54662337
| 41> H   -0.96667547  -3.41432034   1.09937216
| 42> H   -0.28362478  -2.00485588   3.28091359
| 43> H    2.29183693  -1.20370597   3.02136164
| 44> O    2.03928638   2.18669940   0.23483312
| 45> O    0.45472561   1.10156364   1.36707735
| 46> C    1.12037092   2.13439378   1.15063117
| 47> C    0.95293762   3.38291676   1.85516069
| 48> H    0.88891258   4.21952082   1.17237100
| 49> H    1.78426806   3.61430847   2.51520841
| 50> H    0.07935629   3.41327778   2.46005245
| 51> H    3.19139981  -2.06825579   0.63078306
| 52> H    1.12687111  -3.39954585  -0.58813588
| 53> *
| 54>
| 55>                          ****END OF INPUT****

CARTESIAN COORDINATES (ANGSTROEM)
---------------------------------
  Ir     0.682530   -0.776704    0.479793
  C     -0.004096   -2.911071    1.281887
  C      0.328676   -2.128188    2.395105
  C      2.200475   -2.241139    1.041840
  C      1.088210   -2.874892    0.352439
  C      1.716649   -1.714695    2.249934
  N     -1.077445   -0.133674   -0.532210
  C     -2.455927   -0.102990    0.026724
  C     -2.822229    1.235173    0.700575
  H     -3.876550    1.188147    1.010688
  H     -2.745081    2.077531    0.006100
  H     -2.198578    1.457558    1.568697
  C     -3.505669   -0.458589   -1.036054
  H     -2.478960   -0.882517    0.794336
  H     -4.465633   -0.601449   -0.531753
  H     -3.668619    0.329292   -1.778686
  H     -3.261120   -1.382174   -1.562039
  C     -0.886926    0.230432   -1.748559
  C      0.438241    0.168554   -2.251110
  H     -1.707473    0.557616   -2.370937
  C      1.542827   -0.083659   -1.441465
  C      2.693876   -0.150136   -2.329188
  S      0.738286    0.300659   -3.914086
  C      2.384957   -0.011312   -3.669505
  H      1.882030    1.242314   -0.279645
  H      3.736622   -0.287346   -2.109911
  H      3.034164   -0.010807   -4.546623
  H     -0.966675   -3.414320    1.099372
  H     -0.283625   -2.004856    3.280914
  H      2.291837   -1.203706    3.021362
  O      2.039286    2.186699    0.234833
  O      0.454726    1.101564    1.367077
  C      1.120371    2.134394    1.150631
  C      0.952938    3.382917    1.855161
  H      0.888913    4.219521    1.172371
  H      1.784268    3.614308    2.515208
  H      0.079356    3.413278    2.460052
  H      3.191400   -2.068256    0.630783
  H      1.126871   -3.399546   -0.588136

 Total Charge           Charge          ....    1
 Multiplicity           Mult            ....    1
 Number of Electrons    NEL             ....  164
 Basis Dimension        Dim             ....  358

ORBITAL ENERGIES
----------------

  NO   OCC          E(Eh)            E(eV)
   0   2.0000     -89.737759     -2441.8886
   1   2.0000     -19.673284      -535.3373
   2   2.0000     -19.665138      -535.1156
   3   2.0000     -14.816411      -403.1750
   4   2.0000     -10.731009      -292.0056
   5   2.0000     -10.638420      -289.4861
   6   2.0000     -10.630762      -289.2777
   7   2.0000     -10.624132      -289.0973
   8   2.0000     -10.615548      -288.8638
   9   2.0000     -10.615209      -288.8545
  10   2.0000     -10.610481      -288.7259
  11   2.0000     -10.606840      -288.6268
  12   2.0000     -10.596150      -288.3359
  13   2.0000     -10.595563      -288.3199
  14   2.0000     -10.594398      -288.2882
  15   2.0000     -10.575947      -287.7862
  16   2.0000     -10.560415      -287.3635
  17   2.0000     -10.547756      -287.0190
  18   2.0000     -10.544707      -286.9361
  19   2.0000      -8.378278      -227.9845
  20   2.0000      -6.268135      -170.5646
  21   2.0000      -6.264699      -170.4711
  22   2.0000      -6.263160      -170.4293
  23   2.0000      -4.011353      -109.1545
  24   2.0000      -2.325681       -63.2850
  25   2.0000      -2.297431       -62.5163
  26   2.0000      -2.293904       -62.4203
  27   2.0000      -1.368655       -37.2430
  28   2.0000      -1.268087       -34.5064
  29   2.0000      -1.187784       -32.3213
  30   2.0000      -1.149128       -31.2694
  31   2.0000      -1.106279       -30.1034
  32   2.0000      -1.006919       -27.3997
  33   2.0000      -0.986285       -26.8382
  34   2.0000      -0.966683       -26.3048
  35   2.0000      -0.951930       -25.9033
  36   2.0000      -0.947275       -25.7767
  37   2.0000      -0.938918       -25.5493
  38   2.0000      -0.887720       -24.1561
  39   2.0000      -0.854368       -23.2485
  40   2.0000      -0.801926       -21.8215
  41   2.0000      -0.784867       -21.3573
  42   2.0000      -0.770916       -20.9777
  43   2.0000      -0.768301       -20.9065
  44   2.0000      -0.761208       -20.7135
  45   2.0000      -0.754198       -20.5228
  46   2.0000      -0.749407       -20.3924
  47   2.0000      -0.719588       -19.5810
  48   2.0000      -0.697519       -18.9805
  49   2.0000      -0.681902       -18.5555
  50   2.0000      -0.678845       -18.4723
  51   2.0000      -0.667749       -18.1704
  52   2.0000      -0.642825       -17.4922
  53   2.0000      -0.629365       -17.1259
  54   2.0000      -0.623828       -16.9752
  55   2.0000      -0.617479       -16.8025
  56   2.0000      -0.611892       -16.6504
  57   2.0000      -0.601124       -16.3574
  58   2.0000      -0.592505       -16.1229
  59   2.0000      -0.591510       -16.0958
  60   2.0000      -0.589283       -16.0352
  61   2.0000      -0.587512       -15.9870
  62   2.0000      -0.581674       -15.8282
  63   2.0000      -0.573746       -15.6124
  64   2.0000      -0.570907       -15.5352
  65   2.0000      -0.563197       -15.3254
  66   2.0000      -0.551384       -15.0039
  67   2.0000      -0.539941       -14.6925
  68   2.0000      -0.536339       -14.5945
  69   2.0000      -0.530407       -14.4331
  70   2.0000      -0.527865       -14.3639
  71   2.0000      -0.527075       -14.3424
  72   2.0000      -0.511413       -13.9162
  73   2.0000      -0.497909       -13.5488
  74   2.0000      -0.495556       -13.4848
  75   2.0000      -0.474450       -12.9104
  76   2.0000      -0.472511       -12.8577
  77   2.0000      -0.449292       -12.2259
  78   2.0000      -0.436681       -11.8827
  79   2.0000      -0.415199       -11.2981
  80   2.0000      -0.400807       -10.9065
  81   2.0000      -0.384407       -10.4603
  82   0.0000      -0.178656        -4.8615
  83   0.0000      -0.166942        -4.5427
  84   0.0000      -0.136746        -3.7211
  85   0.0000      -0.105904        -2.8818
  86   0.0000      -0.071590        -1.9481

MULLIKEN ATOMIC CHARGES
-----------------------
   0 Ir:    0.571846
   1 C :   -0.125609
   2 C :   -0.256412
   3 C :   -0.185862
   4 C :   -0.372926
   5 C :   -0.229570
   6 N :   -0.460629
   7 C :   -0.105540
   8 C :   -0.634605
   9 H :    0.245294
  10 H :    0.224345
  11 H :    0.251576
  12 C :   -0.687216
  13 H :    0.244418
  14 H :    0.263764
  15 H :    0.228915
  16 H :    0.250690
  17 C :    0.087551
  18 C :   -0.175947
  19 H :    0.276077
  20 C :   -0.341499
  21 C :   -0.222066
  22 S :    0.305586
  23 C :   -0.390070
  24 H :    0.511150
  25 H :    0.253724
  26 H :    0.294102
  27 H :    0.283255
  28 H :    0.280026
  29 H :    0.285001
  30 O :   -0.528870
  31 O :   -0.467956
  32 C :    0.646588
  33 C :   -0.771931
  34 H :    0.293218
  35 H :    0.297122
  36 H :    0.279279
  37 H :    0.293903
  38 H :    0.289276
Sum of atomic charges:    1.0000000

LOEWDIN ATOMIC CHARGES
----------------------
   0 Ir:   -0.269727
   1 C :   -0.012931
   2 C :   -0.095107
   3 C :   -0.061760
   4 C :   -0.109053
   5 C :   -0.048248
   6 N :   -0.036541
   7 C :   -0.059112
   8 C :   -0.353647
   9 H :    0.146350
  10 H :    0.134002
  11 H :    0.142236
  12 C :   -0.363812
  13 H :    0.138147
  14 H :    0.152203
  15 H :    0.133189
  16 H :    0.140860
  17 C :    0.030206
  18 C :   -0.237527
  19 H :    0.155244
  20 C :   -0.156491
  21 C :   -0.159891
  22 S :    0.466351
  23 C :   -0.263913
  24 H :    0.369768
  25 H :    0.154861
  26 H :    0.166974
  27 H :    0.180841
  28 H :    0.177761
  29 H :    0.183484
  30 O :   -0.234480
  31 O :   -0.132422
  32 C :    0.202145
  33 C :   -0.374564
  34 H :    0.179323
  35 H :    0.184361
  36 H :    0.161774
  37 H :    0.186016
  38 H :    0.183129

  Mayer bond orders larger than 0.100000
B(  0-Ir,  1-C ) :   0.2801 B(  0-Ir,  2-C ) :   0.3187 B(  0-Ir,  3-C ) :   0.4086
B(  0-Ir,  4-C ) :   0.5228 B(  0-Ir,  5-C ) :   0.4245 B(  0-Ir,  6-N ) :   0.4935
B(  0-Ir, 20-C ) :   0.5895 B(  0-Ir, 31-O ) :   0.4236 B(  1-C ,  2-C ) :   1.3004
B(  1-C ,  4-C ) :   1.1655 B(  1-C , 27-H ) :   0.9067 B(  2-C ,  5-C ) :   1.1261
B(  2-C , 28-H ) :   0.9154 B(  3-C ,  4-C ) :   1.1212 B(  3-C ,  5-C ) :   1.2407
B(  3-C , 37-H ) :   0.8986 B(  4-C , 38-H ) :   0.9104 B(  5-C , 29-H ) :   0.9125
B(  6-N ,  7-C ) :   0.9008 B(  6-N , 17-C ) :   1.6048 B(  7-C ,  8-C ) :   0.9724
B(  7-C , 12-C ) :   0.9852 B(  7-C , 13-H ) :   0.8964 B(  8-C ,  9-H ) :   0.9083
B(  8-C , 10-H ) :   0.9180 B(  8-C , 11-H ) :   0.9114 B( 12-C , 14-H ) :   0.9066
B( 12-C , 15-H ) :   0.9108 B( 12-C , 16-H ) :   0.9133 B( 17-C , 18-C ) :   1.1385
B( 17-C , 19-H ) :   0.8755 B( 18-C , 20-C ) :   1.3051 B( 18-C , 22-S ) :   1.1775
B( 20-C , 21-C ) :   1.3411 B( 20-C , 24-H ) :   0.1132 B( 21-C , 23-C ) :   1.5285
B( 21-C , 25-H ) :   0.9079 B( 22-S , 23-C ) :   1.2419 B( 23-C , 26-H ) :   0.8871
B( 24-H , 30-O ) :   0.5460 B( 30-O , 32-C ) :   1.3499 B( 31-O , 32-C ) :   1.5481
B( 32-C , 33-C ) :   0.9691 B( 33-C , 34-H ) :   0.8855 B( 33-C , 35-H ) :   0.8795
B( 33-C , 36-H ) :   0.9020

Dispersion correction           -0.029612309
FINAL SINGLE POINT ENERGY     -1288.392535802588
Dispersion correction            ... done

DIPOLE MOMENT
-------------
                                X             Y             Z
Electronic contribution:     44.20929     -75.87229      76.51231
Nuclear contribution   :    -44.80170      76.01278     -75.89076
                        -----------------------------------------
Total Dipole Moment    :     -0.59241       0.14050       0.62154
                        -----------------------------------------
Magnitude (a.u.)       :      0.87006
Magnitude (Debye)      :      2.21152

Rotational constants in cm-1:     0.010353     0.008308     0.007776
Rotational constants in MHz :   310.385244   249.059698   233.112424

                             ****ORCA TERMINATED NORMALLY****
TOTAL RUN TIME: 0 days 0 hours 17 minutes 40 seconds 875 msec
