                         Program Version 5.0.3 -  RELEASE  -
|  1> ! EnGrad PBEh-3c
|  2> %output
|  3> xyzfile=True
|  4> end
|  5> %scf
|  6> maxiter 250
|  7> end
|  8> %output
|  9> Print[P_Hirshfeld] = 1
| 10> end
| 11> % maxcore
| 12> 4000
| 13> *xyz 1 1
| 14> Ir   0.65629237  -0.76543382   0.49028105
| 15> C    0.00281445  -2.91372435   1.24423198
| 16> C    0.28993288  -2.13105648   2.38011523
| 17> C    2.19413714  -2.20095651   1.07113025
| 18> C    1.12409053  -2.85297804   0.35934948
| 19> C    1.65773458  -1.71285473   2.28566873
| 20> N   -1.08546366  -0.12929675  -0.53181481
| 21> C   -2.46782057  -0.10877253   0.02515629
| 22> C   -2.82255662   1.20730107   0.73137759
| 23> H   -3.86742352   1.16146800   1.05788226
| 24> H   -2.73755393   2.06043582   0.05338006
| 25> H   -2.19023170   1.39241184   1.60220232
| 26> C   -3.52273790  -0.43834272  -1.03391685
| 27> H   -2.49308430  -0.90976231   0.77641565
| 28> H   -4.47777697  -0.58595872  -0.53346644
| 29> H   -3.67900738   0.36721725  -1.75943950
| 30> H   -3.28373750  -1.35526716  -1.57829373
| 31> C   -0.87673744   0.22948556  -1.74126194
| 32> C    0.44414025   0.16557392  -2.25399992
| 33> H   -1.70595301   0.54740923  -2.36880008
| 34> C    1.54403136  -0.09486642  -1.45713964
| 35> C    2.68901424  -0.16207640  -2.34418906
| 36> S    0.74221504   0.31266906  -3.93595287
| 37> C    2.39287518  -0.00075735  -3.68354875
| 38> H    1.95944218   1.27525279  -0.37790002
| 39> H    3.73812108  -0.31055612  -2.10762116
| 40> H    3.05657587  -0.00529860  -4.56022369
| 41> H   -0.91226294  -3.47008619   1.05027622
| 42> H   -0.34752310  -2.03941037   3.24865890
| 43> H    2.21739356  -1.22231755   3.07914665
| 44> O    2.04327804   2.15597253   0.22254610
| 45> O    0.44048065   1.13624503   1.38254643
| 46> C    1.14169274   2.11208667   1.10904503
| 47> C    0.96722917   3.39415103   1.83321273
| 48> H    0.88876721   4.24497706   1.15545631
| 49> H    1.79772541   3.63571090   2.49814134
| 50> H    0.07362639   3.43868060   2.46850421
| 51> H    3.19499667  -2.03187036   0.71362786
| 52> H    1.20809829  -3.39703902  -0.56598551
| 53> *
| 54>
| 55>                          ****END OF INPUT****

CARTESIAN COORDINATES (ANGSTROEM)
---------------------------------
  Ir     0.656292   -0.765434    0.490281
  C      0.002814   -2.913724    1.244232
  C      0.289933   -2.131056    2.380115
  C      2.194137   -2.200957    1.071130
  C      1.124091   -2.852978    0.359349
  C      1.657735   -1.712855    2.285669
  N     -1.085464   -0.129297   -0.531815
  C     -2.467821   -0.108773    0.025156
  C     -2.822557    1.207301    0.731378
  H     -3.867424    1.161468    1.057882
  H     -2.737554    2.060436    0.053380
  H     -2.190232    1.392412    1.602202
  C     -3.522738   -0.438343   -1.033917
  H     -2.493084   -0.909762    0.776416
  H     -4.477777   -0.585959   -0.533466
  H     -3.679007    0.367217   -1.759440
  H     -3.283737   -1.355267   -1.578294
  C     -0.876737    0.229486   -1.741262
  C      0.444140    0.165574   -2.254000
  H     -1.705953    0.547409   -2.368800
  C      1.544031   -0.094866   -1.457140
  C      2.689014   -0.162076   -2.344189
  S      0.742215    0.312669   -3.935953
  C      2.392875   -0.000757   -3.683549
  H      1.959442    1.275253   -0.377900
  H      3.738121   -0.310556   -2.107621
  H      3.056576   -0.005299   -4.560224
  H     -0.912263   -3.470086    1.050276
  H     -0.347523   -2.039410    3.248659
  H      2.217394   -1.222318    3.079147
  O      2.043278    2.155973    0.222546
  O      0.440481    1.136245    1.382546
  C      1.141693    2.112087    1.109045
  C      0.967229    3.394151    1.833213
  H      0.888767    4.244977    1.155456
  H      1.797725    3.635711    2.498141
  H      0.073626    3.438681    2.468504
  H      3.194997   -2.031870    0.713628
  H      1.208098   -3.397039   -0.565986

 Total Charge           Charge          ....    1
 Multiplicity           Mult            ....    1
 Number of Electrons    NEL             ....  164
 Basis Dimension        Dim             ....  358

ORBITAL ENERGIES
----------------

  NO   OCC          E(Eh)            E(eV)
   0   2.0000     -89.739667     -2441.9405
   1   2.0000     -19.678766      -535.4864
   2   2.0000     -19.663899      -535.0819
   3   2.0000     -14.817452      -403.2034
   4   2.0000     -10.729390      -291.9616
   5   2.0000     -10.638787      -289.4961
   6   2.0000     -10.629629      -289.2469
   7   2.0000     -10.623174      -289.0713
   8   2.0000     -10.613836      -288.8172
   9   2.0000     -10.612687      -288.7859
  10   2.0000     -10.610338      -288.7220
  11   2.0000     -10.606062      -288.6056
  12   2.0000     -10.599213      -288.4193
  13   2.0000     -10.597693      -288.3779
  14   2.0000     -10.593377      -288.2604
  15   2.0000     -10.577973      -287.8413
  16   2.0000     -10.560857      -287.3755
  17   2.0000     -10.547004      -286.9986
  18   2.0000     -10.542983      -286.8891
  19   2.0000      -8.379663      -228.0222
  20   2.0000      -6.269549      -170.6031
  21   2.0000      -6.266140      -170.5103
  22   2.0000      -6.264495      -170.4656
  23   2.0000      -4.010749      -109.1380
  24   2.0000      -2.325212       -63.2722
  25   2.0000      -2.296798       -62.4990
  26   2.0000      -2.293052       -62.3971
  27   2.0000      -1.380307       -37.5601
  28   2.0000      -1.281813       -34.8799
  29   2.0000      -1.189409       -32.3655
  30   2.0000      -1.151307       -31.3286
  31   2.0000      -1.105795       -30.0902
  32   2.0000      -1.008645       -27.4466
  33   2.0000      -0.970502       -26.4087
  34   2.0000      -0.964620       -26.2486
  35   2.0000      -0.956072       -26.0160
  36   2.0000      -0.947141       -25.7730
  37   2.0000      -0.941168       -25.6105
  38   2.0000      -0.888329       -24.1727
  39   2.0000      -0.853950       -23.2372
  40   2.0000      -0.814495       -22.1635
  41   2.0000      -0.784481       -21.3468
  42   2.0000      -0.772250       -21.0140
  43   2.0000      -0.769596       -20.9418
  44   2.0000      -0.762585       -20.7510
  45   2.0000      -0.755731       -20.5645
  46   2.0000      -0.751291       -20.4437
  47   2.0000      -0.718425       -19.5493
  48   2.0000      -0.700804       -19.0698
  49   2.0000      -0.684964       -18.6388
  50   2.0000      -0.679643       -18.4940
  51   2.0000      -0.668152       -18.1813
  52   2.0000      -0.643020       -17.4975
  53   2.0000      -0.629502       -17.1296
  54   2.0000      -0.623694       -16.9716
  55   2.0000      -0.618854       -16.8399
  56   2.0000      -0.613075       -16.6826
  57   2.0000      -0.597372       -16.2553
  58   2.0000      -0.592485       -16.1223
  59   2.0000      -0.590642       -16.0722
  60   2.0000      -0.587996       -16.0002
  61   2.0000      -0.582462       -15.8496
  62   2.0000      -0.580479       -15.7956
  63   2.0000      -0.569478       -15.4963
  64   2.0000      -0.569020       -15.4838
  65   2.0000      -0.562521       -15.3070
  66   2.0000      -0.551884       -15.0175
  67   2.0000      -0.541008       -14.7216
  68   2.0000      -0.536861       -14.6087
  69   2.0000      -0.529661       -14.4128
  70   2.0000      -0.529370       -14.4049
  71   2.0000      -0.526856       -14.3365
  72   2.0000      -0.509948       -13.8764
  73   2.0000      -0.499104       -13.5813
  74   2.0000      -0.495144       -13.4736
  75   2.0000      -0.474621       -12.9151
  76   2.0000      -0.473012       -12.8713
  77   2.0000      -0.448757       -12.2113
  78   2.0000      -0.436607       -11.8807
  79   2.0000      -0.414461       -11.2781
  80   2.0000      -0.402600       -10.9553
  81   2.0000      -0.386456       -10.5160
  82   0.0000      -0.179628        -4.8879
  83   0.0000      -0.167221        -4.5503
  84   0.0000      -0.139102        -3.7852
  85   0.0000      -0.096324        -2.6211
  86   0.0000      -0.072438        -1.9711

MULLIKEN ATOMIC CHARGES
-----------------------
   0 Ir:    0.571304
   1 C :   -0.134231
   2 C :   -0.260217
   3 C :   -0.195981
   4 C :   -0.361135
   5 C :   -0.216334
   6 N :   -0.461371
   7 C :   -0.105743
   8 C :   -0.633688
   9 H :    0.246178
  10 H :    0.224133
  11 H :    0.254337
  12 C :   -0.686263
  13 H :    0.244686
  14 H :    0.265797
  15 H :    0.228095
  16 H :    0.249397
  17 C :    0.085564
  18 C :   -0.168780
  19 H :    0.273788
  20 C :   -0.355889
  21 C :   -0.223088
  22 S :    0.303247
  23 C :   -0.388989
  24 H :    0.521749
  25 H :    0.254003
  26 H :    0.295085
  27 H :    0.282739
  28 H :    0.279332
  29 H :    0.283918
  30 O :   -0.517564
  31 O :   -0.449192
  32 C :    0.639458
  33 C :   -0.768517
  34 H :    0.284853
  35 H :    0.290184
  36 H :    0.272403
  37 H :    0.290461
  38 H :    0.286270
Sum of atomic charges:    1.0000000

LOEWDIN ATOMIC CHARGES
----------------------
   0 Ir:   -0.266731
   1 C :   -0.011623
   2 C :   -0.097682
   3 C :   -0.066648
   4 C :   -0.104275
   5 C :   -0.043253
   6 N :   -0.033370
   7 C :   -0.058482
   8 C :   -0.352672
   9 H :    0.146338
  10 H :    0.134450
  11 H :    0.143916
  12 C :   -0.363790
  13 H :    0.138617
  14 H :    0.152940
  15 H :    0.133200
  16 H :    0.140728
  17 C :    0.028485
  18 C :   -0.231857
  19 H :    0.154353
  20 C :   -0.165534
  21 C :   -0.164423
  22 S :    0.457347
  23 C :   -0.261335
  24 H :    0.372010
  25 H :    0.154652
  26 H :    0.168785
  27 H :    0.179817
  28 H :    0.177690
  29 H :    0.182483
  30 O :   -0.205348
  31 O :   -0.119759
  32 C :    0.182156
  33 C :   -0.377176
  34 H :    0.172561
  35 H :    0.177547
  36 H :    0.160177
  37 H :    0.183755
  38 H :    0.181952

  Mayer bond orders larger than 0.100000
B(  0-Ir,  1-C ) :   0.2960 B(  0-Ir,  2-C ) :   0.3295 B(  0-Ir,  3-C ) :   0.4151
B(  0-Ir,  4-C ) :   0.5102 B(  0-Ir,  5-C ) :   0.4117 B(  0-Ir,  6-N ) :   0.4978
B(  0-Ir, 20-C ) :   0.5814 B(  0-Ir, 31-O ) :   0.4327 B(  1-C ,  2-C ) :   1.2809
B(  1-C ,  4-C ) :   1.1794 B(  1-C , 27-H ) :   0.9095 B(  2-C ,  5-C ) :   1.1401
B(  2-C , 28-H ) :   0.9164 B(  3-C ,  4-C ) :   1.1215 B(  3-C ,  5-C ) :   1.2385
B(  3-C , 37-H ) :   0.9028 B(  4-C , 38-H ) :   0.9135 B(  5-C , 29-H ) :   0.9134
B(  6-N ,  7-C ) :   0.8965 B(  6-N , 17-C ) :   1.6080 B(  7-C ,  8-C ) :   0.9746
B(  7-C , 12-C ) :   0.9868 B(  7-C , 13-H ) :   0.8954 B(  8-C ,  9-H ) :   0.9077
B(  8-C , 10-H ) :   0.9182 B(  8-C , 11-H ) :   0.9097 B( 12-C , 14-H ) :   0.9054
B( 12-C , 15-H ) :   0.9112 B( 12-C , 16-H ) :   0.9140 B( 17-C , 18-C ) :   1.1349
B( 17-C , 19-H ) :   0.8769 B( 18-C , 20-C ) :   1.3099 B( 18-C , 22-S ) :   1.1725
B( 20-C , 21-C ) :   1.3352 B( 20-C , 24-H ) :   0.1145 B( 21-C , 23-C ) :   1.5296
B( 21-C , 25-H ) :   0.9067 B( 22-S , 23-C ) :   1.2405 B( 23-C , 26-H ) :   0.8867
B( 24-H , 30-O ) :   0.5398 B( 30-O , 32-C ) :   1.3692 B( 31-O , 32-C ) :   1.5612
B( 32-C , 33-C ) :   0.9491 B( 33-C , 34-H ) :   0.8900 B( 33-C , 35-H ) :   0.8845
B( 33-C , 36-H ) :   0.9073

Dispersion correction           -0.029579172
FINAL SINGLE POINT ENERGY     -1288.398659629538
Dispersion correction            ... done

DIPOLE MOMENT
-------------
                                X             Y             Z
Electronic contribution:     41.86333     -75.04344      77.68525
Nuclear contribution   :    -42.36040      75.07811     -77.17816
                        -----------------------------------------
Total Dipole Moment    :     -0.49707       0.03466       0.50709
                        -----------------------------------------
Magnitude (a.u.)       :      0.71093
Magnitude (Debye)      :      1.80704

Rotational constants in cm-1:     0.010399     0.008272     0.007748
Rotational constants in MHz :   311.769017   247.978772   232.274001

                             ****ORCA TERMINATED NORMALLY****
TOTAL RUN TIME: 0 days 0 hours 18 minutes 1 seconds 439 msec
