                         Program Version 5.0.4 -  RELEASE  -
|  1> ! PBEh-3c OptTS Freq pal8
|  2>
|  3> %geom
|  4>  trust -0.1
|  5>  calc_hess true
|  6>  recalc_hess 5
|  7>  maxiter 600
|  8> end
|  9>
| 10> *xyzfile 1 1 ts_guess_0.xyz
| 11>
| 12>                          ****END OF INPUT****
 Total Charge           Charge          ....    1
 Multiplicity           Mult            ....    1
 Number of Electrons    NEL             ....  164
Dispersion correction           -0.030883132
FINAL SINGLE POINT ENERGY     -1288.400603272738
Dispersion correction            ... done
Dispersion correction in the Hessian             ... done   (      2.0 sec)
Dispersion correction           -0.030900397
FINAL SINGLE POINT ENERGY     -1288.400593300500
Dispersion correction            ... done
Dispersion correction           -0.030904541
FINAL SINGLE POINT ENERGY     -1288.400595222160
Dispersion correction            ... done
Dispersion correction           -0.030905373
FINAL SINGLE POINT ENERGY     -1288.400593735233
Dispersion correction            ... done
                    ***********************HURRAY********************

CARTESIAN COORDINATES (ANGSTROEM)
---------------------------------
  Ir     0.622971   -0.712494    0.429283
  C      0.103942   -2.816783    0.331992
  C      0.058374   -2.357560    1.695306
  C      2.216945   -2.095853    0.918587
  C      1.415715   -2.644801   -0.150133
  C      1.381740   -1.951558    2.047051
  N     -1.045169    0.147113   -0.520905
  C     -2.308462    0.429055    0.178359
  C     -3.092402    1.584995   -0.424009
  H     -3.913668    1.840383    0.244195
  H     -3.541496    1.336632   -1.386635
  H     -2.477454    2.477579   -0.541056
  C     -3.143824   -0.844369    0.246378
  H     -2.010496    0.705187    1.190678
  H     -4.044248   -0.662286    0.831255
  H     -3.452018   -1.168765   -0.748365
  H     -2.604158   -1.661217    0.723269
  C     -0.884539    0.391200   -1.766285
  C      0.449327    0.185528   -2.269226
  H     -1.686118    0.767382   -2.394645
  C      1.528744    0.285530   -1.391068
  C      2.739589   -0.063869   -2.061880
  S      0.897836   -0.307961   -3.829383
  C      2.548713   -0.401465   -3.364920
  H      1.528687    1.237835   -0.655365
  H      3.716914   -0.011521   -1.604596
  H      3.293446   -0.678102   -4.095730
  H     -0.728889   -3.209978   -0.233073
  H     -0.791226   -2.395008    2.360527
  H      1.675463   -1.529965    2.997890
  O      1.408034    2.436151    0.182158
  O      0.546859    0.957397    1.608465
  C      0.959476    2.132732    1.289486
  C      0.894685    3.151320    2.392501
  H      0.854519    4.158400    1.986424
  H      1.798791    3.072980    2.999369
  H      0.045841    2.978610    3.050363
  H      3.272297   -1.873349    0.877002
  H      1.764626   -2.889925   -1.142534

 Multiplicity           Mult            ....    1
 Number of Electrons    NEL             ....  164
 Basis Dimension        Dim             ....  358

ORBITAL ENERGIES
----------------

  NO   OCC          E(Eh)            E(eV)
   0   2.0000     -89.768052     -2442.7129
   1   2.0000     -19.623058      -533.9705
   2   2.0000     -19.593490      -533.1660
   3   2.0000     -14.840128      -403.8204
   4   2.0000     -10.680956      -290.6436
   5   2.0000     -10.660848      -290.0964
   6   2.0000     -10.634909      -289.3906
   7   2.0000     -10.631610      -289.3008
   8   2.0000     -10.630895      -289.2814
   9   2.0000     -10.627228      -289.1816
  10   2.0000     -10.625085      -289.1233
  11   2.0000     -10.622981      -289.0660
  12   2.0000     -10.614852      -288.8448
  13   2.0000     -10.612751      -288.7876
  14   2.0000     -10.590144      -288.1725
  15   2.0000     -10.587596      -288.1031
  16   2.0000     -10.556093      -287.2459
  17   2.0000     -10.551416      -287.1186
  18   2.0000     -10.533943      -286.6432
  19   2.0000      -8.407439      -228.7781
  20   2.0000      -6.297365      -171.3600
  21   2.0000      -6.293739      -171.2613
  22   2.0000      -6.292386      -171.2245
  23   2.0000      -4.025508      -109.5396
  24   2.0000      -2.343804       -63.7782
  25   2.0000      -2.310583       -62.8742
  26   2.0000      -2.309131       -62.8346
  27   2.0000      -1.306486       -35.5513
  28   2.0000      -1.213052       -33.0088
  29   2.0000      -1.208515       -32.8854
  30   2.0000      -1.167909       -31.7804
  31   2.0000      -1.131015       -30.7765
  32   2.0000      -1.027417       -27.9574
  33   2.0000      -0.981631       -26.7115
  34   2.0000      -0.973661       -26.4947
  35   2.0000      -0.970681       -26.4136
  36   2.0000      -0.962436       -26.1892
  37   2.0000      -0.927466       -25.2376
  38   2.0000      -0.902237       -24.5511
  39   2.0000      -0.875528       -23.8243
  40   2.0000      -0.800430       -21.7808
  41   2.0000      -0.784746       -21.3540
  42   2.0000      -0.783858       -21.3299
  43   2.0000      -0.782356       -21.2890
  44   2.0000      -0.768291       -20.9063
  45   2.0000      -0.754953       -20.5433
  46   2.0000      -0.743496       -20.2316
  47   2.0000      -0.723944       -19.6995
  48   2.0000      -0.691915       -18.8280
  49   2.0000      -0.675620       -18.3846
  50   2.0000      -0.665182       -18.1005
  51   2.0000      -0.649642       -17.6777
  52   2.0000      -0.646572       -17.5941
  53   2.0000      -0.636907       -17.3311
  54   2.0000      -0.634496       -17.2655
  55   2.0000      -0.628961       -17.1149
  56   2.0000      -0.622809       -16.9475
  57   2.0000      -0.613524       -16.6948
  58   2.0000      -0.603792       -16.4300
  59   2.0000      -0.603313       -16.4170
  60   2.0000      -0.600689       -16.3456
  61   2.0000      -0.591977       -16.1085
  62   2.0000      -0.581330       -15.8188
  63   2.0000      -0.573299       -15.6003
  64   2.0000      -0.564442       -15.3593
  65   2.0000      -0.556845       -15.1525
  66   2.0000      -0.551574       -15.0091
  67   2.0000      -0.548295       -14.9199
  68   2.0000      -0.540476       -14.7071
  69   2.0000      -0.536638       -14.6026
  70   2.0000      -0.528061       -14.3693
  71   2.0000      -0.519286       -14.1305
  72   2.0000      -0.515173       -14.0186
  73   2.0000      -0.500968       -13.6320
  74   2.0000      -0.487636       -13.2692
  75   2.0000      -0.481374       -13.0989
  76   2.0000      -0.474750       -12.9186
  77   2.0000      -0.445105       -12.1119
  78   2.0000      -0.443177       -12.0595
  79   2.0000      -0.423935       -11.5359
  80   2.0000      -0.416738       -11.3400
  81   2.0000      -0.399990       -10.8843
  82   0.0000      -0.206807        -5.6275
  83   0.0000      -0.150837        -4.1045
  84   0.0000      -0.141756        -3.8574
  85   0.0000      -0.095253        -2.5920
  86   0.0000      -0.076969        -2.0944

MULLIKEN ATOMIC CHARGES
-----------------------
   0 Ir:    0.606652
   1 C :   -0.218716
   2 C :   -0.276101
   3 C :   -0.250260
   4 C :   -0.240119
   5 C :   -0.160694
   6 N :   -0.425089
   7 C :   -0.127228
   8 C :   -0.685943
   9 H :    0.270739
  10 H :    0.223958
  11 H :    0.260151
  12 C :   -0.635246
  13 H :    0.283548
  14 H :    0.262659
  15 H :    0.231059
  16 H :    0.232421
  17 C :    0.072255
  18 C :   -0.150682
  19 H :    0.289942
  20 C :   -0.518040
  21 C :   -0.108782
  22 S :    0.326369
  23 C :   -0.433633
  24 H :    0.488660
  25 H :    0.268286
  26 H :    0.299222
  27 H :    0.288257
  28 H :    0.288277
  29 H :    0.304378
  30 O :   -0.473435
  31 O :   -0.534394
  32 C :    0.616129
  33 C :   -0.744214
  34 H :    0.269106
  35 H :    0.266946
  36 H :    0.253142
  37 H :    0.287795
  38 H :    0.292624
Sum of atomic charges:    1.0000000

LOEWDIN ATOMIC CHARGES
----------------------
   0 Ir:   -0.243449
   1 C :   -0.045900
   2 C :   -0.078362
   3 C :   -0.071339
   4 C :   -0.052908
   5 C :   -0.017359
   6 N :    0.000452
   7 C :   -0.070122
   8 C :   -0.363101
   9 H :    0.156957
  10 H :    0.132841
  11 H :    0.146556
  12 C :   -0.343374
  13 H :    0.157063
  14 H :    0.152466
  15 H :    0.137195
  16 H :    0.133509
  17 C :    0.032059
  18 C :   -0.173047
  19 H :    0.162503
  20 C :   -0.206229
  21 C :   -0.123787
  22 S :    0.490809
  23 C :   -0.262909
  24 H :    0.307875
  25 H :    0.163765
  26 H :    0.169235
  27 H :    0.183461
  28 H :    0.183385
  29 H :    0.192193
  30 O :   -0.271648
  31 O :   -0.204363
  32 C :    0.151614
  33 C :   -0.375424
  34 H :    0.159706
  35 H :    0.167416
  36 H :    0.153140
  37 H :    0.184361
  38 H :    0.184757

  Mayer bond orders larger than 0.100000
B(  0-Ir,  1-C ) :   0.4178 B(  0-Ir,  2-C ) :   0.4815 B(  0-Ir,  3-C ) :   0.4633
B(  0-Ir,  4-C ) :   0.4412 B(  0-Ir,  5-C ) :   0.3958 B(  0-Ir,  6-N ) :   0.4610
B(  0-Ir, 20-C ) :   0.3444 B(  0-Ir, 31-O ) :   0.5685 B(  1-C ,  2-C ) :   1.1257
B(  1-C ,  4-C ) :   1.2441 B(  1-C , 27-H ) :   0.9052 B(  2-C ,  5-C ) :   1.1567
B(  2-C , 28-H ) :   0.9090 B(  3-C ,  4-C ) :   1.1122 B(  3-C ,  5-C ) :   1.2168
B(  3-C , 37-H ) :   0.9088 B(  4-C , 38-H ) :   0.9003 B(  5-C , 29-H ) :   0.8985
B(  6-N ,  7-C ) :   0.8923 B(  6-N , 17-C ) :   1.6760 B(  7-C ,  8-C ) :   0.9909
B(  7-C , 12-C ) :   0.9674 B(  7-C , 13-H ) :   0.8726 B(  8-C ,  9-H ) :   0.9041
B(  8-C , 10-H ) :   0.9132 B(  8-C , 11-H ) :   0.9090 B( 12-C , 14-H ) :   0.9069
B( 12-C , 15-H ) :   0.9156 B( 12-C , 16-H ) :   0.9121 B( 17-C , 18-C ) :   1.0756
B( 17-C , 19-H ) :   0.8753 B( 18-C , 20-C ) :   1.2544 B( 18-C , 22-S ) :   1.2545
B( 20-C , 21-C ) :   1.2555 B( 20-C , 24-H ) :   0.4522 B( 21-C , 23-C ) :   1.5549
B( 21-C , 25-H ) :   0.9032 B( 22-S , 23-C ) :   1.2018 B( 23-C , 26-H ) :   0.8912
B( 24-H , 30-O ) :   0.2620 B( 30-O , 32-C ) :   1.6800 B( 31-O , 32-C ) :   1.2911
B( 32-C , 33-C ) :   0.9447 B( 33-C , 34-H ) :   0.9048 B( 33-C , 35-H ) :   0.8984
B( 33-C , 36-H ) :   0.9096

Dispersion correction           -0.030906414
FINAL SINGLE POINT ENERGY     -1288.400594588716

DIPOLE MOMENT
-------------
                                X             Y             Z
Electronic contribution:     38.68517     -68.37247      71.22762
Nuclear contribution   :    -39.31572      67.29645     -71.65057
                        -----------------------------------------
Total Dipole Moment    :     -0.63055      -1.07602      -0.42296
                        -----------------------------------------
Magnitude (a.u.)       :      1.31693
Magnitude (Debye)      :      3.34737

Dispersion correction in the Hessian             ... done   (      1.7 sec)

VIBRATIONAL FREQUENCIES
-----------------------

Scaling factor for frequencies =  1.000000000  (already applied!)

   0:         0.00 cm**-1
   1:         0.00 cm**-1
   2:         0.00 cm**-1
   3:         0.00 cm**-1
   4:         0.00 cm**-1
   5:         0.00 cm**-1
   6:      -166.41 cm**-1 ***imaginary mode***
   7:        28.37 cm**-1
   8:        43.36 cm**-1
   9:        53.32 cm**-1
  10:        59.49 cm**-1
  11:        66.80 cm**-1
  12:        84.85 cm**-1
  13:        94.35 cm**-1
  14:       119.63 cm**-1
  15:       124.77 cm**-1
  16:       152.43 cm**-1
  17:       173.69 cm**-1
  18:       210.98 cm**-1
  19:       215.79 cm**-1
  20:       241.38 cm**-1
  21:       256.50 cm**-1
  22:       272.16 cm**-1
  23:       280.13 cm**-1
  24:       302.01 cm**-1
  25:       315.98 cm**-1
  26:       357.88 cm**-1
  27:       369.06 cm**-1
  28:       394.20 cm**-1
  29:       394.49 cm**-1
  30:       424.37 cm**-1
  31:       443.51 cm**-1
  32:       526.34 cm**-1
  33:       547.49 cm**-1
  34:       571.58 cm**-1
  35:       582.92 cm**-1
  36:       601.11 cm**-1
  37:       607.02 cm**-1
  38:       643.38 cm**-1
  39:       650.19 cm**-1
  40:       671.71 cm**-1
  41:       720.01 cm**-1
  42:       741.78 cm**-1
  43:       805.54 cm**-1
  44:       823.47 cm**-1
  45:       851.26 cm**-1
  46:       860.44 cm**-1
  47:       875.67 cm**-1
  48:       907.31 cm**-1
  49:       920.76 cm**-1
  50:       931.04 cm**-1
  51:       936.71 cm**-1
  52:       967.86 cm**-1
  53:       976.73 cm**-1
  54:       985.31 cm**-1
  55:       988.41 cm**-1
  56:       994.09 cm**-1
  57:       998.79 cm**-1
  58:      1004.38 cm**-1
  59:      1013.43 cm**-1
  60:      1039.87 cm**-1
  61:      1060.48 cm**-1
  62:      1064.77 cm**-1
  63:      1082.56 cm**-1
  64:      1107.15 cm**-1
  65:      1110.61 cm**-1
  66:      1116.61 cm**-1
  67:      1149.32 cm**-1
  68:      1168.20 cm**-1
  69:      1169.95 cm**-1
  70:      1192.37 cm**-1
  71:      1233.22 cm**-1
  72:      1243.54 cm**-1
  73:      1269.61 cm**-1
  74:      1325.30 cm**-1
  75:      1325.39 cm**-1
  76:      1374.87 cm**-1
  77:      1392.93 cm**-1
  78:      1408.02 cm**-1
  79:      1435.32 cm**-1
  80:      1444.52 cm**-1
  81:      1451.45 cm**-1
  82:      1455.79 cm**-1
  83:      1458.53 cm**-1
  84:      1467.99 cm**-1
  85:      1481.91 cm**-1
  86:      1500.84 cm**-1
  87:      1508.54 cm**-1
  88:      1519.14 cm**-1
  89:      1522.79 cm**-1
  90:      1525.55 cm**-1
  91:      1531.05 cm**-1
  92:      1541.59 cm**-1
  93:      1543.76 cm**-1
  94:      1556.75 cm**-1
  95:      1559.62 cm**-1
  96:      1585.12 cm**-1
  97:      1743.39 cm**-1
  98:      1891.63 cm**-1
  99:      3123.36 cm**-1
 100:      3129.29 cm**-1
 101:      3134.42 cm**-1
 102:      3157.54 cm**-1
 103:      3207.06 cm**-1
 104:      3215.90 cm**-1
 105:      3217.47 cm**-1
 106:      3219.64 cm**-1
 107:      3225.39 cm**-1
 108:      3250.56 cm**-1
 109:      3255.50 cm**-1
 110:      3308.56 cm**-1
 111:      3323.57 cm**-1
 112:      3325.68 cm**-1
 113:      3335.52 cm**-1
 114:      3336.68 cm**-1
 115:      3339.06 cm**-1
 116:      3346.45 cm**-1

IR SPECTRUM
-----------

 Mode   freq       eps      Int      T**2         TX        TY        TZ
       cm**-1   L/(mol*cm) km/mol    a.u.
----------------------------------------------------------------------------
  7:     28.37   0.000009    0.04  0.000095  (-0.002914 -0.008832  0.002901)
  8:     43.36   0.000189    0.96  0.001360  (-0.023278 -0.028563 -0.001658)
  9:     53.32   0.000075    0.38  0.000442  (-0.019829 -0.005798  0.003834)
 10:     59.49   0.000041    0.21  0.000215  (-0.000327 -0.012965 -0.006821)
 11:     66.80   0.000227    1.15  0.001059  ( 0.024907  0.007805  0.019442)
 12:     84.85   0.000635    3.21  0.002337  (-0.021439  0.040606  0.015103)
 13:     94.35   0.000486    2.46  0.001608  (-0.031918 -0.020926 -0.012307)
 14:    119.63   0.000410    2.07  0.001069  ( 0.025477  0.016617  0.011998)
 15:    124.77   0.000149    0.75  0.000373  (-0.015813  0.008659  0.006916)
 16:    152.43   0.000274    1.38  0.000560  (-0.022917  0.005278  0.002652)
 17:    173.69   0.002649   13.39  0.004759  (-0.012978  0.060953  0.029581)
 18:    210.98   0.000296    1.50  0.000439  ( 0.010352 -0.018069 -0.002202)
 19:    215.79   0.005702   28.81  0.008246  (-0.013317 -0.072431 -0.053124)
 20:    241.38   0.000207    1.04  0.000267  ( 0.006301  0.000536  0.015078)
 21:    256.50   0.000157    0.79  0.000191  (-0.001489  0.011634  0.007327)
 22:    272.16   0.000269    1.36  0.000309  ( 0.002839  0.016560  0.005150)
 23:    280.13   0.000494    2.49  0.000550  ( 0.003244 -0.017327  0.015467)
 24:    302.01   0.001767    8.93  0.001826  ( 0.002421 -0.033218 -0.026770)
 25:    315.98   0.007796   39.40  0.007699  ( 0.000092 -0.054257 -0.068958)
 26:    357.88   0.000245    1.24  0.000213  (-0.002749  0.013628 -0.004479)
 27:    369.06   0.000799    4.04  0.000676  (-0.004880 -0.020685 -0.014974)
 28:    394.20   0.000415    2.09  0.000328  ( 0.009213  0.005156  0.014721)
 29:    394.49   0.000859    4.34  0.000679  ( 0.011491  0.000875  0.023377)
 30:    424.37   0.001078    5.45  0.000793  ( 0.018767 -0.020655 -0.003733)
 31:    443.51   0.001665    8.41  0.001171  (-0.028322 -0.000657  0.019208)
 32:    526.34   0.001416    7.16  0.000840  ( 0.002594  0.028664  0.003381)
 33:    547.49   0.010341   52.26  0.005894  ( 0.008199  0.051074  0.056733)
 34:    571.58   0.002571   12.99  0.001404  (-0.007493  0.015432  0.033310)
 35:    582.92   0.002859   14.45  0.001531  ( 0.005775 -0.037340 -0.010144)
 36:    601.11   0.001280    6.47  0.000664  ( 0.004345  0.021968 -0.012768)
 37:    607.02   0.001488    7.52  0.000765  (-0.010005 -0.008126 -0.024476)
 38:    643.38   0.007491   37.86  0.003633  ( 0.002120  0.034185  0.049600)
 39:    650.19   0.000333    1.68  0.000160  ( 0.012429 -0.001263 -0.001944)
 40:    671.71   0.001495    7.56  0.000695  (-0.018830 -0.018439  0.000193)
 41:    720.01   0.026318  133.00  0.011407  (-0.002858  0.074324  0.076646)
 42:    741.78   0.007952   40.18  0.003345  ( 0.008084  0.051597  0.024852)
 43:    805.54   0.013329   67.36  0.005164  (-0.003845 -0.070270  0.014523)
 44:    823.47   0.003175   16.04  0.001203  ( 0.004288  0.010216  0.032869)
 45:    851.26   0.001674    8.46  0.000614  ( 0.003288 -0.023733  0.006300)
 46:    860.44   0.000176    0.89  0.000064  ( 0.003104  0.006354  0.003698)
 47:    875.67   0.012912   65.25  0.004602  ( 0.009382 -0.051930 -0.042624)
 48:    907.31   0.005015   25.34  0.001725  (-0.021913  0.035214  0.002164)
 49:    920.76   0.008943   45.19  0.003031  ( 0.016018 -0.051119  0.012693)
 50:    931.04   0.001825    9.22  0.000612  ( 0.006556 -0.021358  0.010612)
 51:    936.71   0.001105    5.58  0.000368  (-0.001707  0.018608  0.004335)
 52:    967.86   0.000076    0.38  0.000025  ( 0.004054  0.000682 -0.002761)
 53:    976.73   0.003154   15.94  0.001008  ( 0.007769 -0.017207 -0.025517)
 54:    985.31   0.000416    2.10  0.000132  ( 0.004001 -0.010705  0.001076)
 55:    988.41   0.003097   15.65  0.000978  ( 0.007336 -0.024792  0.017585)
 56:    994.09   0.000491    2.48  0.000154  (-0.000885 -0.004353  0.011587)
 57:    998.79   0.014742   74.50  0.004606  (-0.014443  0.066214  0.003613)
 58:   1004.38   0.000924    4.67  0.000287  ( 0.002771 -0.016623  0.001773)
 59:   1013.43   0.004516   22.82  0.001391  (-0.007900  0.035958 -0.005928)
 60:   1039.87   0.001969    9.95  0.000591  (-0.020294  0.000719  0.013363)
 61:   1060.48   0.004592   23.21  0.001351  ( 0.006889  0.035043  0.008703)
 62:   1064.77   0.003448   17.43  0.001011  ( 0.012167  0.021699  0.019792)
 63:   1082.56   0.003438   17.37  0.000991  (-0.004676 -0.030580  0.005836)
 64:   1107.15   0.001962    9.92  0.000553  (-0.020048 -0.004498 -0.011443)
 65:   1110.61   0.000060    0.30  0.000017  (-0.002772 -0.002984  0.000479)
 66:   1116.61   0.000341    1.72  0.000095  (-0.005748 -0.006757 -0.004070)
 67:   1149.32   0.001424    7.20  0.000387  (-0.000132  0.004899  0.019044)
 68:   1168.20   0.000497    2.51  0.000133  ( 0.006805 -0.005835  0.007232)
 69:   1169.95   0.004558   23.03  0.001216  (-0.034594  0.004129  0.001387)
 70:   1192.37   0.001152    5.82  0.000302  ( 0.015240 -0.008291  0.000725)
 71:   1233.22   0.004802   24.27  0.001215  ( 0.028109 -0.003336  0.020343)
 72:   1243.54   0.012561   63.48  0.003152  (-0.001340 -0.007705  0.055597)
 73:   1269.61   0.005274   26.65  0.001296  (-0.011086  0.023804  0.024635)
 74:   1325.30   0.000006    0.03  0.000001  (-0.000457  0.000213  0.001109)
 75:   1325.39   0.055525  280.60  0.013073  (-0.034475  0.029631  0.104914)
 76:   1374.87   0.025800  130.38  0.005856  ( 0.033691  0.022466  0.064932)
 77:   1392.93   0.018316   92.56  0.004103  (-0.022559 -0.019734 -0.056614)
 78:   1408.02   0.008557   43.24  0.001897  ( 0.011382 -0.007698 -0.041324)
 79:   1435.32   0.018570   93.85  0.004037  (-0.011701 -0.052366  0.034036)
 80:   1444.52   0.000656    3.31  0.000142  (-0.008028 -0.007280 -0.004925)
 81:   1451.45   0.011910   60.19  0.002561  (-0.006502 -0.028680 -0.041180)
 82:   1455.79   0.002760   13.95  0.000592  (-0.009768 -0.007242  0.021068)
 83:   1458.53   0.011916   60.22  0.002549  ( 0.005779  0.008446 -0.049444)
 84:   1467.99   0.009085   45.91  0.001931  ( 0.007799 -0.012020 -0.041546)
 85:   1481.91   0.003439   17.38  0.000724  ( 0.020679 -0.017124  0.001819)
 86:   1500.84   0.001489    7.53  0.000310  (-0.008951 -0.005623  0.014068)
 87:   1508.54   0.101565  513.27  0.021010  ( 0.041874  0.105970  0.089594)
 88:   1519.14   0.006632   33.51  0.001362  (-0.001323 -0.016172 -0.033151)
 89:   1522.79   0.002338   11.82  0.000479  (-0.013797 -0.006561 -0.015676)
 90:   1525.55   0.042418  214.37  0.008677  (-0.015713  0.055123  0.073428)
 91:   1531.05   0.001661    8.40  0.000339  ( 0.001516  0.008481  0.016260)
 92:   1541.59   0.001612    8.15  0.000326  (-0.005651 -0.007423  0.015468)
 93:   1543.76   0.086606  437.67  0.017507  ( 0.011209 -0.099944 -0.085980)
 94:   1556.75   0.003385   17.11  0.000679  ( 0.003293 -0.010901 -0.023428)
 95:   1559.62   0.001779    8.99  0.000356  (-0.014675 -0.005984 -0.010240)
 96:   1585.12   0.011375   57.48  0.002239  ( 0.008287  0.033720  0.032151)
 97:   1743.39   0.007528   38.04  0.001347  ( 0.030849  0.003919 -0.019504)
 98:   1891.63   0.196595  993.51  0.032433  ( 0.044792  0.166658  0.051490)
 99:   3123.36   0.001027    5.19  0.000103  (-0.002906  0.007079 -0.006636)
100:   3129.29   0.001347    6.81  0.000134  (-0.005793 -0.010035  0.000182)
101:   3134.42   0.000012    0.06  0.000001  (-0.000977 -0.000263  0.000397)
102:   3157.54   0.000047    0.24  0.000005  ( 0.000264  0.002098 -0.000435)
103:   3207.06   0.000852    4.31  0.000083  (-0.002873 -0.006779 -0.005359)
104:   3215.90   0.001871    9.46  0.000182  ( 0.006929 -0.001406  0.011472)
105:   3217.47   0.000253    1.28  0.000025  ( 0.002815 -0.002355 -0.003322)
106:   3219.64   0.000926    4.68  0.000090  (-0.003292 -0.005898  0.006640)
107:   3225.39   0.002391   12.08  0.000231  (-0.011917  0.009449  0.000006)
108:   3250.56   0.000124    0.63  0.000012  ( 0.003319  0.000310 -0.000914)
109:   3255.50   0.000173    0.88  0.000017  (-0.002337 -0.002963  0.001542)
110:   3308.56   0.000615    3.11  0.000058  (-0.000448  0.000629  0.007577)
111:   3323.57   0.000063    0.32  0.000006  (-0.001973 -0.000299 -0.001405)
112:   3325.68   0.000205    1.04  0.000019  ( 0.002169  0.002669  0.002723)
113:   3335.52   0.002298   11.61  0.000215  ( 0.001310  0.004035  0.014035)
114:   3336.68   0.001705    8.62  0.000159  ( 0.008980 -0.002360 -0.008558)
115:   3339.06   0.002223   11.23  0.000208  ( 0.011801  0.004511 -0.006938)
116:   3346.45   0.001135    5.74  0.000106  (-0.006413  0.004179 -0.006877)

--------------------------
THERMOCHEMISTRY AT 298.15K
--------------------------

Temperature         ... 298.15 K
Pressure            ... 1.00 atm
Total Mass          ... 469.60 AMU

Throughout the following assumptions are being made:
  (1) The electronic state is orbitally nondegenerate
  (2) There are no thermally accessible electronically excited states
  (3) Hindered rotations indicated by low frequency modes are not
      treated as such but are treated as vibrations and this may
      cause some error
  (4) All equations used are the standard statistical mechanics
      equations for an ideal gas
  (5) All vibrations are strictly harmonic

freq.      28.37  E(vib)   ...       0.55
freq.      43.36  E(vib)   ...       0.53
freq.      53.32  E(vib)   ...       0.52
freq.      59.49  E(vib)   ...       0.51
freq.      66.80  E(vib)   ...       0.50
freq.      84.85  E(vib)   ...       0.48
freq.      94.35  E(vib)   ...       0.47
freq.     119.63  E(vib)   ...       0.44
freq.     124.77  E(vib)   ...       0.43
freq.     152.43  E(vib)   ...       0.40
freq.     173.69  E(vib)   ...       0.38
freq.     210.98  E(vib)   ...       0.34
freq.     215.79  E(vib)   ...       0.34
freq.     241.38  E(vib)   ...       0.31
freq.     256.50  E(vib)   ...       0.30
freq.     272.16  E(vib)   ...       0.29
freq.     280.13  E(vib)   ...       0.28
freq.     302.01  E(vib)   ...       0.26
freq.     315.98  E(vib)   ...       0.25
freq.     357.88  E(vib)   ...       0.22
freq.     369.06  E(vib)   ...       0.21
freq.     394.20  E(vib)   ...       0.20
freq.     394.49  E(vib)   ...       0.20
freq.     424.37  E(vib)   ...       0.18
freq.     443.51  E(vib)   ...       0.17
freq.     526.34  E(vib)   ...       0.13
freq.     547.49  E(vib)   ...       0.12
freq.     571.58  E(vib)   ...       0.11
freq.     582.92  E(vib)   ...       0.11
freq.     601.11  E(vib)   ...       0.10
freq.     607.02  E(vib)   ...       0.10
freq.     643.38  E(vib)   ...       0.09
freq.     650.19  E(vib)   ...       0.08
freq.     671.71  E(vib)   ...       0.08
freq.     720.01  E(vib)   ...       0.07
freq.     741.78  E(vib)   ...       0.06
freq.     805.54  E(vib)   ...       0.05
freq.     823.47  E(vib)   ...       0.05
freq.     851.26  E(vib)   ...       0.04
freq.     860.44  E(vib)   ...       0.04
freq.     875.67  E(vib)   ...       0.04
freq.     907.31  E(vib)   ...       0.03
freq.     920.76  E(vib)   ...       0.03
freq.     931.04  E(vib)   ...       0.03
freq.     936.71  E(vib)   ...       0.03
freq.     967.86  E(vib)   ...       0.03
freq.     976.73  E(vib)   ...       0.03
freq.     985.31  E(vib)   ...       0.02
freq.     988.41  E(vib)   ...       0.02
freq.     994.09  E(vib)   ...       0.02
freq.     998.79  E(vib)   ...       0.02
freq.    1004.38  E(vib)   ...       0.02
freq.    1013.43  E(vib)   ...       0.02
freq.    1039.87  E(vib)   ...       0.02
freq.    1060.48  E(vib)   ...       0.02
freq.    1064.77  E(vib)   ...       0.02
freq.    1082.56  E(vib)   ...       0.02
freq.    1107.15  E(vib)   ...       0.02
freq.    1110.61  E(vib)   ...       0.02
freq.    1116.61  E(vib)   ...       0.01
freq.    1149.32  E(vib)   ...       0.01
freq.    1168.20  E(vib)   ...       0.01
freq.    1169.95  E(vib)   ...       0.01
freq.    1192.37  E(vib)   ...       0.01
freq.    1233.22  E(vib)   ...       0.01
freq.    1243.54  E(vib)   ...       0.01
freq.    1269.61  E(vib)   ...       0.01
freq.    1325.30  E(vib)   ...       0.01
freq.    1325.39  E(vib)   ...       0.01
freq.    1374.87  E(vib)   ...       0.01
freq.    1392.93  E(vib)   ...       0.00
freq.    1408.02  E(vib)   ...       0.00
freq.    1435.32  E(vib)   ...       0.00
freq.    1444.52  E(vib)   ...       0.00
freq.    1451.45  E(vib)   ...       0.00
freq.    1455.79  E(vib)   ...       0.00
freq.    1458.53  E(vib)   ...       0.00
freq.    1467.99  E(vib)   ...       0.00
freq.    1481.91  E(vib)   ...       0.00
freq.    1500.84  E(vib)   ...       0.00
freq.    1508.54  E(vib)   ...       0.00
freq.    1519.14  E(vib)   ...       0.00
freq.    1522.79  E(vib)   ...       0.00
freq.    1525.55  E(vib)   ...       0.00
freq.    1531.05  E(vib)   ...       0.00
freq.    1541.59  E(vib)   ...       0.00
freq.    1543.76  E(vib)   ...       0.00
freq.    1556.75  E(vib)   ...       0.00
freq.    1559.62  E(vib)   ...       0.00
freq.    1585.12  E(vib)   ...       0.00
freq.    1743.39  E(vib)   ...       0.00
freq.    1891.63  E(vib)   ...       0.00
freq.    3123.36  E(vib)   ...       0.00
freq.    3129.29  E(vib)   ...       0.00
freq.    3134.42  E(vib)   ...       0.00
freq.    3157.54  E(vib)   ...       0.00
freq.    3207.06  E(vib)   ...       0.00
freq.    3215.90  E(vib)   ...       0.00
freq.    3217.47  E(vib)   ...       0.00
freq.    3219.64  E(vib)   ...       0.00
freq.    3225.39  E(vib)   ...       0.00
freq.    3250.56  E(vib)   ...       0.00
freq.    3255.50  E(vib)   ...       0.00
freq.    3308.56  E(vib)   ...       0.00
freq.    3323.57  E(vib)   ...       0.00
freq.    3325.68  E(vib)   ...       0.00
freq.    3335.52  E(vib)   ...       0.00
freq.    3336.68  E(vib)   ...       0.00
freq.    3339.06  E(vib)   ...       0.00
freq.    3346.45  E(vib)   ...       0.00

------------
INNER ENERGY
------------

The inner energy is: U= E(el) + E(ZPE) + E(vib) + E(rot) + E(trans)
    E(el)   - is the total energy from the electronic structure calculation
              = E(kin-el) + E(nuc-el) + E(el-el) + E(nuc-nuc)
    E(ZPE)  - the the zero temperature vibrational energy from the frequency calculation
    E(vib)  - the the finite temperature correction to E(ZPE) due to population
              of excited vibrational states
    E(rot)  - is the rotational thermal energy
    E(trans)- is the translational thermal energy

Summary of contributions to the inner energy U:
Electronic energy                ...  -1288.40059459 Eh
Zero point energy                ...      0.31938983 Eh     200.42 kcal/mol
Thermal vibrational correction   ...      0.01690002 Eh      10.60 kcal/mol
Thermal rotational correction    ...      0.00141627 Eh       0.89 kcal/mol
Thermal translational correction ...      0.00141627 Eh       0.89 kcal/mol
-----------------------------------------------------------------------
Total thermal energy                  -1288.06147220 Eh

Summary of corrections to the electronic energy:
(perhaps to be used in another calculation)
Total thermal correction                  0.01973257 Eh      12.38 kcal/mol
Non-thermal (ZPE) correction              0.31938983 Eh     200.42 kcal/mol
-----------------------------------------------------------------------
Total correction                          0.33912239 Eh     212.80 kcal/mol

--------
ENTHALPY

Rotational constants in cm-1:     0.010625     0.009135     0.008224

                             ****ORCA TERMINATED NORMALLY****
TOTAL RUN TIME: 0 days 0 hours 42 minutes 42 seconds 286 msec
