                         Program Version 5.0.3 -  RELEASE  -
|  1> ! EnGrad PBEh-3c
|  2> %output
|  3> xyzfile=True
|  4> end
|  5> %scf
|  6> maxiter 250
|  7> end
|  8> %output
|  9> Print[P_Hirshfeld] = 1
| 10> end
| 11> % maxcore
| 12> 4000
| 13> *xyz 0 1
| 14> C   -1.38176776   0.15252959  -0.78494422
| 15> C   -2.23026920  -0.87600072  -1.17373019
| 16> C   -2.00795118  -2.17244217  -0.74494623
| 17> C   -0.94390913  -2.45847404   0.09320451
| 18> C   -0.35429082  -0.17779788   0.07486757
| 19> C   -0.11791584  -1.44720889   0.55776516
| 20> H   -1.58589734   1.12716890  -1.21370017
| 21> H   -3.05718088  -0.66594756  -1.84107766
| 22> H   -2.67175316  -2.96687616  -1.06823012
| 23> H    0.69836856  -1.72149748   1.21536553
| 24> H   -0.77031605  -3.47759043   0.41652796
| 25> Pd   1.48070208   1.06691343  -0.21087835
| 26> O    3.49761057   1.47027156  -0.88932479
| 27> O    2.72410648  -0.53686023  -0.56025897
| 28> O    0.31882062   2.72844050   0.18101602
| 29> C   -0.15019385   2.82538267   1.30165491
| 30> O    0.19993165   2.01832413   2.24846661
| 31> H   -1.04286253   1.47881859   2.96472938
| 32> C    3.66014134   0.23695202  -0.89540670
| 33> H    4.60914685  -0.21729663  -1.21228305
| 34> H   -0.87451291   3.61318080   1.54119780
| 35> *
| 36>
| 37>                          ****END OF INPUT****

CARTESIAN COORDINATES (ANGSTROEM)
---------------------------------
  C     -1.381768    0.152530   -0.784944
  C     -2.230269   -0.876001   -1.173730
  C     -2.007951   -2.172442   -0.744946
  C     -0.943909   -2.458474    0.093205
  C     -0.354291   -0.177798    0.074868
  C     -0.117916   -1.447209    0.557765
  H     -1.585897    1.127169   -1.213700
  H     -3.057181   -0.665948   -1.841078
  H     -2.671753   -2.966876   -1.068230
  H      0.698369   -1.721497    1.215366
  H     -0.770316   -3.477590    0.416528
  Pd     1.480702    1.066913   -0.210878
  O      3.497611    1.470272   -0.889325
  O      2.724106   -0.536860   -0.560259
  O      0.318821    2.728441    0.181016
  C     -0.150194    2.825383    1.301655
  O      0.199932    2.018324    2.248467
  H     -1.042863    1.478819    2.964729
  C      3.660141    0.236952   -0.895407
  H      4.609147   -0.217297   -1.212283
  H     -0.874513    3.613181    1.541198

 Total Charge           Charge          ....    0
 Multiplicity           Mult            ....    1
 Number of Electrons    NEL             ....  106
 Basis Dimension        Dim             ....  227

ORBITAL ENERGIES
----------------

  NO   OCC          E(Eh)            E(eV)
   0   2.0000     -19.604342      -533.4613
   1   2.0000     -19.569740      -532.5197
   2   2.0000     -19.490651      -530.3676
   3   2.0000     -19.478560      -530.0386
   4   2.0000     -10.629116      -289.2330
   5   2.0000     -10.550839      -287.1029
   6   2.0000     -10.450743      -284.3792
   7   2.0000     -10.439488      -284.0729
   8   2.0000     -10.438477      -284.0454
   9   2.0000     -10.437706      -284.0244
  10   2.0000     -10.435934      -283.9762
  11   2.0000     -10.435462      -283.9634
  12   2.0000      -3.634175       -98.8909
  13   2.0000      -2.282331       -62.1054
  14   2.0000      -2.276586       -61.9491
  15   2.0000      -2.247787       -61.1654
  16   2.0000      -1.264018       -34.3957
  17   2.0000      -1.189607       -32.3709
  18   2.0000      -1.163851       -31.6700
  19   2.0000      -1.077679       -29.3251
  20   2.0000      -0.947163       -25.7736
  21   2.0000      -0.831669       -22.6309
  22   2.0000      -0.817338       -22.2409
  23   2.0000      -0.732215       -19.9246
  24   2.0000      -0.669941       -18.2300
  25   2.0000      -0.659107       -17.9352
  26   2.0000      -0.656287       -17.8585
  27   2.0000      -0.640157       -17.4196
  28   2.0000      -0.602308       -16.3896
  29   2.0000      -0.575408       -15.6577
  30   2.0000      -0.563510       -15.3339
  31   2.0000      -0.548365       -14.9218
  32   2.0000      -0.519126       -14.1261
  33   2.0000      -0.504621       -13.7314
  34   2.0000      -0.501977       -13.6595
  35   2.0000      -0.491361       -13.3706
  36   2.0000      -0.474954       -12.9242
  37   2.0000      -0.457754       -12.4561
  38   2.0000      -0.438736       -11.9386
  39   2.0000      -0.433794       -11.8041
  40   2.0000      -0.425586       -11.5808
  41   2.0000      -0.417282       -11.3548
  42   2.0000      -0.395894       -10.7728
  43   2.0000      -0.374260       -10.1841
  44   2.0000      -0.364355        -9.9146
  45   2.0000      -0.355287        -9.6678
  46   2.0000      -0.337421        -9.1817
  47   2.0000      -0.317340        -8.6353
  48   2.0000      -0.304033        -8.2732
  49   2.0000      -0.293788        -7.9944
  50   2.0000      -0.286036        -7.7834
  51   2.0000      -0.277591        -7.5536
  52   2.0000      -0.259212        -7.0535
  53   0.0000      -0.133099        -3.6218
  54   0.0000      -0.038901        -1.0585
  55   0.0000      -0.005603        -0.1525
  56   0.0000       0.027364         0.7446
  57   0.0000       0.036212         0.9854

MULLIKEN ATOMIC CHARGES
-----------------------
   0 C :   -0.225434
   1 C :   -0.233149
   2 C :   -0.216274
   3 C :   -0.231764
   4 C :   -0.167839
   5 C :   -0.220079
   6 H :    0.228616
   7 H :    0.213546
   8 H :    0.213204
   9 H :    0.241241
  10 H :    0.214755
  11 Pd:    0.348710
  12 O :   -0.471087
  13 O :   -0.473891
  14 O :   -0.369928
  15 C :    0.380084
  16 O :   -0.405739
  17 H :    0.382171
  18 C :    0.389965
  19 H :    0.180482
  20 H :    0.222409
Sum of atomic charges:    0.0000000

LOEWDIN ATOMIC CHARGES
----------------------
   0 C :   -0.139112
   1 C :   -0.132874
   2 C :   -0.146421
   3 C :   -0.127333
   4 C :   -0.030917
   5 C :   -0.118730
   6 H :    0.148095
   7 H :    0.131522
   8 H :    0.133556
   9 H :    0.155233
  10 H :    0.133248
  11 Pd:   -0.322849
  12 O :   -0.190436
  13 O :   -0.163311
  14 O :   -0.035667
  15 C :    0.142304
  16 O :   -0.175350
  17 H :    0.369474
  18 C :    0.139010
  19 H :    0.107863
  20 H :    0.122696

  Mayer bond orders larger than 0.100000
B(  0-C ,  1-C ) :   1.4180 B(  0-C ,  4-C ) :   1.3814 B(  0-C ,  6-H ) :   0.9089
B(  1-C ,  2-C ) :   1.4409 B(  1-C ,  7-H ) :   0.9169 B(  2-C ,  3-C ) :   1.4217
B(  2-C ,  8-H ) :   0.9217 B(  3-C ,  5-C ) :   1.4279 B(  3-C , 10-H ) :   0.9170
B(  4-C ,  5-C ) :   1.4044 B(  4-C , 11-Pd) :   0.8173 B(  5-C ,  9-H ) :   0.9073
B( 11-Pd, 12-O ) :   0.3864 B( 11-Pd, 13-O ) :   0.5451 B( 11-Pd, 14-O ) :   0.3830
B( 12-O , 13-O ) :   0.1159 B( 12-O , 18-C ) :   1.5734 B( 13-O , 18-C ) :   1.4463
B( 14-O , 15-C ) :   1.7203 B( 15-C , 16-O ) :   1.2833 B( 15-C , 20-H ) :   0.8710
B( 16-O , 17-H ) :   0.7106 B( 18-C , 19-H ) :   0.8870

Dispersion correction           -0.013123615
FINAL SINGLE POINT ENERGY      -736.991030260788
Dispersion correction            ... done

DIPOLE MOMENT
-------------
                                X             Y             Z
Electronic contribution:     54.03907      41.03212      -7.77873
Nuclear contribution   :    -55.85969     -40.31895       9.45253
                        -----------------------------------------
Total Dipole Moment    :     -1.82062       0.71317       1.67380
                        -----------------------------------------
Magnitude (a.u.)       :      2.57388
Magnitude (Debye)      :      6.54229

Rotational constants in cm-1:     0.029256     0.016642     0.012464
Rotational constants in MHz :   877.060146   498.910453   373.674786

                             ****ORCA TERMINATED NORMALLY****
TOTAL RUN TIME: 0 days 0 hours 4 minutes 13 seconds 511 msec
