                         Program Version 5.0.3 -  RELEASE  -
|  1> ! EnGrad PBEh-3c
|  2> %output
|  3> xyzfile=True
|  4> end
|  5> %scf
|  6> maxiter 250
|  7> end
|  8> %output
|  9> Print[P_Hirshfeld] = 1
| 10> end
| 11> % maxcore
| 12> 4000
| 13> *xyz 0 1
| 14> C   -1.40661569   0.15097099  -0.69571035
| 15> C   -2.17893621  -0.89920719  -1.18891075
| 16> C   -1.88645898  -2.19650052  -0.84842504
| 17> C   -0.92559804  -2.45225230   0.10426628
| 18> C   -0.27563851  -0.12226734   0.09902824
| 19> C   -0.15205494  -1.42389422   0.62215134
| 20> H   -1.62936463   1.18254462  -0.97998154
| 21> H   -2.90800733  -0.67041130  -1.92523608
| 22> H   -2.36989221  -3.01484558  -1.34940957
| 23> H    0.61993043  -1.60858208   1.37263884
| 24> H   -0.65096849  -3.44081094   0.38009877
| 25> Pd   1.33906965   0.96379626  -0.10581491
| 26> O    3.34077205   1.38515980  -1.03859752
| 27> O    2.61426905  -0.58510187  -0.43085816
| 28> O    0.36931530   2.73526473   0.27991313
| 29> C   -0.19260877   2.83762911   1.36922424
| 30> O    0.00211428   1.92958451   2.31605192
| 31> H   -0.78990782   1.63443126   2.68074231
| 32> C    3.50192490   0.16027101  -0.93943802
| 33> H    4.41012308  -0.32423838  -1.30587396
| 34> H   -0.86515055   3.74768692   1.58945974
| 35> *
| 36>
| 37>                          ****END OF INPUT****

CARTESIAN COORDINATES (ANGSTROEM)
---------------------------------
  C     -1.406616    0.150971   -0.695710
  C     -2.178936   -0.899207   -1.188911
  C     -1.886459   -2.196501   -0.848425
  C     -0.925598   -2.452252    0.104266
  C     -0.275639   -0.122267    0.099028
  C     -0.152055   -1.423894    0.622151
  H     -1.629365    1.182545   -0.979982
  H     -2.908007   -0.670411   -1.925236
  H     -2.369892   -3.014846   -1.349410
  H      0.619930   -1.608582    1.372639
  H     -0.650968   -3.440811    0.380099
  Pd     1.339070    0.963796   -0.105815
  O      3.340772    1.385160   -1.038598
  O      2.614269   -0.585102   -0.430858
  O      0.369315    2.735265    0.279913
  C     -0.192609    2.837629    1.369224
  O      0.002114    1.929585    2.316052
  H     -0.789908    1.634431    2.680742
  C      3.501925    0.160271   -0.939438
  H      4.410123   -0.324238   -1.305874
  H     -0.865151    3.747687    1.589460

 Total Charge           Charge          ....    0
 Multiplicity           Mult            ....    1
 Number of Electrons    NEL             ....  106
 Basis Dimension        Dim             ....  227

ORBITAL ENERGIES
----------------

  NO   OCC          E(Eh)            E(eV)
   0   2.0000     -19.597279      -533.2691
   1   2.0000     -19.588235      -533.0230
   2   2.0000     -19.486865      -530.2646
   3   2.0000     -19.472800      -529.8818
   4   2.0000     -10.660908      -290.0980
   5   2.0000     -10.546886      -286.9954
   6   2.0000     -10.449542      -284.3465
   7   2.0000     -10.440769      -284.1078
   8   2.0000     -10.435402      -283.9617
   9   2.0000     -10.434476      -283.9365
  10   2.0000     -10.432819      -283.8914
  11   2.0000     -10.430717      -283.8342
  12   2.0000      -3.643702       -99.1502
  13   2.0000      -2.292124       -62.3719
  14   2.0000      -2.288415       -62.2709
  15   2.0000      -2.256680       -61.4074
  16   2.0000      -1.292387       -35.1676
  17   2.0000      -1.207449       -32.8564
  18   2.0000      -1.183744       -32.2113
  19   2.0000      -1.074254       -29.2319
  20   2.0000      -0.942974       -25.6596
  21   2.0000      -0.825930       -22.4747
  22   2.0000      -0.819702       -22.3052
  23   2.0000      -0.789147       -21.4738
  24   2.0000      -0.707022       -19.2390
  25   2.0000      -0.669470       -18.2172
  26   2.0000      -0.660284       -17.9672
  27   2.0000      -0.654659       -17.8142
  28   2.0000      -0.619842       -16.8667
  29   2.0000      -0.590233       -16.0611
  30   2.0000      -0.572633       -15.5821
  31   2.0000      -0.546690       -14.8762
  32   2.0000      -0.517096       -14.0709
  33   2.0000      -0.506171       -13.7736
  34   2.0000      -0.502996       -13.6872
  35   2.0000      -0.497989       -13.5510
  36   2.0000      -0.487336       -13.2611
  37   2.0000      -0.469936       -12.7876
  38   2.0000      -0.455569       -12.3967
  39   2.0000      -0.450556       -12.2603
  40   2.0000      -0.444502       -12.0955
  41   2.0000      -0.421273       -11.4634
  42   2.0000      -0.392214       -10.6727
  43   2.0000      -0.378037       -10.2869
  44   2.0000      -0.373356       -10.1595
  45   2.0000      -0.358910        -9.7664
  46   2.0000      -0.344358        -9.3704
  47   2.0000      -0.330701        -8.9988
  48   2.0000      -0.313601        -8.5335
  49   2.0000      -0.305743        -8.3197
  50   2.0000      -0.283884        -7.7249
  51   2.0000      -0.277777        -7.5587
  52   2.0000      -0.255444        -6.9510
  53   0.0000      -0.051825        -1.4102
  54   0.0000      -0.023036        -0.6269
  55   0.0000       0.027144         0.7386
  56   0.0000       0.031353         0.8532
  57   0.0000       0.052571         1.4305

MULLIKEN ATOMIC CHARGES
-----------------------
   0 C :   -0.256461
   1 C :   -0.212997
   2 C :   -0.228720
   3 C :   -0.213947
   4 C :   -0.164957
   5 C :   -0.234329
   6 H :    0.213976
   7 H :    0.215456
   8 H :    0.213640
   9 H :    0.236160
  10 H :    0.218666
  11 Pd:    0.378414
  12 O :   -0.466810
  13 O :   -0.486720
  14 O :   -0.361802
  15 C :    0.388030
  16 O :   -0.523886
  17 H :    0.479337
  18 C :    0.383838
  19 H :    0.179272
  20 H :    0.243839
Sum of atomic charges:   -0.0000000

LOEWDIN ATOMIC CHARGES
----------------------
   0 C :   -0.136490
   1 C :   -0.135367
   2 C :   -0.146294
   3 C :   -0.131300
   4 C :   -0.026546
   5 C :   -0.110600
   6 H :    0.141330
   7 H :    0.135063
   8 H :    0.134287
   9 H :    0.153611
  10 H :    0.136954
  11 Pd:   -0.319259
  12 O :   -0.204469
  13 O :   -0.170938
  14 O :   -0.031084
  15 C :    0.205202
  16 O :   -0.228597
  17 H :    0.352915
  18 C :    0.133877
  19 H :    0.106166
  20 H :    0.141539

  Mayer bond orders larger than 0.100000
B(  0-C ,  1-C ) :   1.4226 B(  0-C ,  4-C ) :   1.3729 B(  0-C ,  6-H ) :   0.9123
B(  1-C ,  2-C ) :   1.4403 B(  1-C ,  7-H ) :   0.9191 B(  2-C ,  3-C ) :   1.4132
B(  2-C ,  8-H ) :   0.9219 B(  3-C ,  5-C ) :   1.4400 B(  3-C , 10-H ) :   0.9183
B(  4-C ,  5-C ) :   1.3803 B(  4-C , 11-Pd) :   0.9259 B(  5-C ,  9-H ) :   0.9092
B( 11-Pd, 12-O ) :   0.3505 B( 11-Pd, 13-O ) :   0.5506 B( 11-Pd, 14-O ) :   0.3694
B( 12-O , 13-O ) :   0.1168 B( 12-O , 18-C ) :   1.6125 B( 13-O , 18-C ) :   1.4232
B( 14-O , 15-C ) :   1.7751 B( 15-C , 16-O ) :   1.1617 B( 15-C , 20-H ) :   0.8575
B( 16-O , 17-H ) :   0.7242 B( 18-C , 19-H ) :   0.8868

Dispersion correction           -0.013107332
FINAL SINGLE POINT ENERGY      -737.101641466629
Dispersion correction            ... done

DIPOLE MOMENT
-------------
                                X             Y             Z
Electronic contribution:     48.83330      37.33409      -3.66018
Nuclear contribution   :    -50.49171     -36.24807       5.22406
                        -----------------------------------------
Total Dipole Moment    :     -1.65841       1.08602       1.56388
                        -----------------------------------------
Magnitude (a.u.)       :      2.52497
Magnitude (Debye)      :      6.41797

Rotational constants in cm-1:     0.028785     0.017966     0.013103
Rotational constants in MHz :   862.960434   538.609709   392.804572

                             ****ORCA TERMINATED NORMALLY****
TOTAL RUN TIME: 0 days 0 hours 3 minutes 44 seconds 732 msec
