                         Program Version 5.0.3 -  RELEASE  -
|  1> ! EnGrad PBEh-3c
|  2> %output
|  3> xyzfile=True
|  4> end
|  5> %scf
|  6> maxiter 250
|  7> end
|  8> %output
|  9> Print[P_Hirshfeld] = 1
| 10> end
| 11> % maxcore
| 12> 4000
| 13> *xyz 0 1
| 14> C   -1.40560465   0.15591477  -0.67477298
| 15> C   -2.15892986  -0.90213605  -1.19558919
| 16> C   -1.85388534  -2.20327598  -0.87493682
| 17> C   -0.90907240  -2.45129662   0.09663063
| 18> C   -0.28671427  -0.11668627   0.12780172
| 19> C   -0.15590531  -1.41323083   0.64161822
| 20> H   -1.64736255   1.19497162  -0.93159955
| 21> H   -2.88196119  -0.66585169  -1.95101959
| 22> H   -2.28607719  -3.01439179  -1.41439787
| 23> H    0.60345328  -1.59388508   1.41219166
| 24> H   -0.62189728  -3.44678168   0.37947440
| 25> Pd   1.33621293   0.96031883  -0.09153203
| 26> O    3.28797950   1.35966130  -1.06662004
| 27> O    2.58722428  -0.59984279  -0.40300439
| 28> O    0.35843665   2.75466639   0.27410620
| 29> C   -0.16617493   2.85745114   1.36380423
| 30> O    0.00020253   1.94410411   2.31864070
| 31> H   -0.80846274   1.62257544   2.67196914
| 32> C    3.45865913   0.13576956  -0.95026601
| 33> H    4.36002641  -0.35446456  -1.32878744
| 34> H   -0.85397417   3.76053711   1.60149894
| 35> *
| 36>
| 37>                          ****END OF INPUT****

CARTESIAN COORDINATES (ANGSTROEM)
---------------------------------
  C     -1.405605    0.155915   -0.674773
  C     -2.158930   -0.902136   -1.195589
  C     -1.853885   -2.203276   -0.874937
  C     -0.909072   -2.451297    0.096631
  C     -0.286714   -0.116686    0.127802
  C     -0.155905   -1.413231    0.641618
  H     -1.647363    1.194972   -0.931600
  H     -2.881961   -0.665852   -1.951020
  H     -2.286077   -3.014392   -1.414398
  H      0.603453   -1.593885    1.412192
  H     -0.621897   -3.446782    0.379474
  Pd     1.336213    0.960319   -0.091532
  O      3.287980    1.359661   -1.066620
  O      2.587224   -0.599843   -0.403004
  O      0.358437    2.754666    0.274106
  C     -0.166175    2.857451    1.363804
  O      0.000203    1.944104    2.318641
  H     -0.808463    1.622575    2.671969
  C      3.458659    0.135770   -0.950266
  H      4.360026   -0.354465   -1.328787
  H     -0.853974    3.760537    1.601499

 Total Charge           Charge          ....    0
 Multiplicity           Mult            ....    1
 Number of Electrons    NEL             ....  106
 Basis Dimension        Dim             ....  227

ORBITAL ENERGIES
----------------

  NO   OCC          E(Eh)            E(eV)
   0   2.0000     -19.593084      -533.1549
   1   2.0000     -19.589441      -533.0558
   2   2.0000     -19.489800      -530.3444
   3   2.0000     -19.475862      -529.9652
   4   2.0000     -10.658689      -290.0377
   5   2.0000     -10.549785      -287.0742
   6   2.0000     -10.447664      -284.2954
   7   2.0000     -10.441332      -284.1231
   8   2.0000     -10.437067      -284.0070
   9   2.0000     -10.434809      -283.9456
  10   2.0000     -10.434234      -283.9299
  11   2.0000     -10.430266      -283.8220
  12   2.0000      -3.643559       -99.1463
  13   2.0000      -2.292136       -62.3722
  14   2.0000      -2.288271       -62.2670
  15   2.0000      -2.256645       -61.4064
  16   2.0000      -1.288875       -35.0721
  17   2.0000      -1.209022       -32.8992
  18   2.0000      -1.187405       -32.3109
  19   2.0000      -1.077231       -29.3130
  20   2.0000      -0.942520       -25.6473
  21   2.0000      -0.823501       -22.4086
  22   2.0000      -0.821012       -22.3409
  23   2.0000      -0.782802       -21.3011
  24   2.0000      -0.701901       -19.0997
  25   2.0000      -0.669004       -18.2045
  26   2.0000      -0.659941       -17.9579
  27   2.0000      -0.656101       -17.8534
  28   2.0000      -0.620353       -16.8807
  29   2.0000      -0.588622       -16.0172
  30   2.0000      -0.571788       -15.5591
  31   2.0000      -0.549825       -14.9615
  32   2.0000      -0.520289       -14.1578
  33   2.0000      -0.505033       -13.7426
  34   2.0000      -0.502003       -13.6602
  35   2.0000      -0.497212       -13.5298
  36   2.0000      -0.490365       -13.3435
  37   2.0000      -0.467021       -12.7083
  38   2.0000      -0.452532       -12.3140
  39   2.0000      -0.449371       -12.2280
  40   2.0000      -0.445521       -12.1232
  41   2.0000      -0.422181       -11.4881
  42   2.0000      -0.392084       -10.6691
  43   2.0000      -0.379763       -10.3339
  44   2.0000      -0.374002       -10.1771
  45   2.0000      -0.361577        -9.8390
  46   2.0000      -0.344861        -9.3841
  47   2.0000      -0.331847        -9.0300
  48   2.0000      -0.313636        -8.5345
  49   2.0000      -0.306824        -8.3491
  50   2.0000      -0.282873        -7.6974
  51   2.0000      -0.276527        -7.5247
  52   2.0000      -0.255216        -6.9448
  53   0.0000      -0.047595        -1.2951
  54   0.0000      -0.023626        -0.6429
  55   0.0000       0.026438         0.7194
  56   0.0000       0.031570         0.8591
  57   0.0000       0.051260         1.3948

MULLIKEN ATOMIC CHARGES
-----------------------
   0 C :   -0.251918
   1 C :   -0.219645
   2 C :   -0.222940
   3 C :   -0.220083
   4 C :   -0.168393
   5 C :   -0.231552
   6 H :    0.212970
   7 H :    0.214019
   8 H :    0.215978
   9 H :    0.236459
  10 H :    0.217046
  11 Pd:    0.376854
  12 O :   -0.468626
  13 O :   -0.483937
  14 O :   -0.345739
  15 C :    0.390168
  16 O :   -0.536922
  17 H :    0.481913
  18 C :    0.387895
  19 H :    0.181119
  20 H :    0.235333
Sum of atomic charges:    0.0000000

LOEWDIN ATOMIC CHARGES
----------------------
   0 C :   -0.136201
   1 C :   -0.133951
   2 C :   -0.148576
   3 C :   -0.129626
   4 C :   -0.030765
   5 C :   -0.111196
   6 H :    0.141243
   7 H :    0.134972
   8 H :    0.135151
   9 H :    0.153780
  10 H :    0.136710
  11 Pd:   -0.323537
  12 O :   -0.200378
  13 O :   -0.166094
  14 O :   -0.019873
  15 C :    0.199428
  16 O :   -0.241635
  17 H :    0.358692
  18 C :    0.137796
  19 H :    0.107593
  20 H :    0.136467

  Mayer bond orders larger than 0.100000
B(  0-C ,  1-C ) :   1.4225 B(  0-C ,  4-C ) :   1.3712 B(  0-C ,  6-H ) :   0.9125
B(  1-C ,  2-C ) :   1.4380 B(  1-C ,  7-H ) :   0.9196 B(  2-C ,  3-C ) :   1.4142
B(  2-C ,  8-H ) :   0.9211 B(  3-C ,  5-C ) :   1.4371 B(  3-C , 10-H ) :   0.9189
B(  4-C ,  5-C ) :   1.3841 B(  4-C , 11-Pd) :   0.9198 B(  5-C ,  9-H ) :   0.9086
B( 11-Pd, 12-O ) :   0.3599 B( 11-Pd, 13-O ) :   0.5528 B( 11-Pd, 14-O ) :   0.3595
B( 12-O , 13-O ) :   0.1168 B( 12-O , 18-C ) :   1.6005 B( 13-O , 18-C ) :   1.4245
B( 14-O , 15-C ) :   1.8007 B( 15-C , 16-O ) :   1.1479 B( 15-C , 20-H ) :   0.8594
B( 16-O , 17-H ) :   0.7195 B( 18-C , 19-H ) :   0.8873

Dispersion correction           -0.013128464
FINAL SINGLE POINT ENERGY      -737.100144196859
Dispersion correction            ... done

DIPOLE MOMENT
-------------
                                X             Y             Z
Electronic contribution:     48.98846      37.15488      -3.11399
Nuclear contribution   :    -50.53320     -36.10173       4.59394
                        -----------------------------------------
Total Dipole Moment    :     -1.54474       1.05315       1.47995
                        -----------------------------------------
Magnitude (a.u.)       :      2.38445
Magnitude (Debye)      :      6.06080

Rotational constants in cm-1:     0.028668     0.018186     0.013216
Rotational constants in MHz :   859.439324   545.209419   396.191806

                             ****ORCA TERMINATED NORMALLY****
TOTAL RUN TIME: 0 days 0 hours 3 minutes 59 seconds 7 msec
