                         Program Version 5.0.3 -  RELEASE  -
|  1> ! EnGrad PBEh-3c
|  2> %output
|  3> xyzfile=True
|  4> end
|  5> %scf
|  6> maxiter 250
|  7> end
|  8> %output
|  9> Print[P_Hirshfeld] = 1
| 10> end
| 11> % maxcore
| 12> 4000
| 13> *xyz 0 1
| 14> C   -1.40059893   0.16361623  -0.65356618
| 15> C   -2.14253457  -0.89091957  -1.20233530
| 16> C   -1.82824194  -2.20492335  -0.89101552
| 17> C   -0.88474657  -2.44761451   0.09852991
| 18> C   -0.30010146  -0.10930413   0.15773044
| 19> C   -0.15735738  -1.39639691   0.65617398
| 20> H   -1.66377854   1.19047201  -0.91217296
| 21> H   -2.87640034  -0.66375756  -1.97060292
| 22> H   -2.24451572  -3.01461147  -1.44895565
| 23> H    0.58618308  -1.59609883   1.42890803
| 24> H   -0.60695554  -3.46155480   0.37664338
| 25> Pd   1.32280815   0.95808949  -0.08812991
| 26> O    3.26224900   1.34601699  -1.07934047
| 27> O    2.57405334  -0.60744196  -0.38639682
| 28> O    0.34381993   2.77417339   0.26966803
| 29> C   -0.16182202   2.87464046   1.36405513
| 30> O    0.00294454   1.97618010   2.31890356
| 31> H   -0.82664150   1.59687540   2.66782195
| 32> C    3.43527232   0.12038131  -0.95903861
| 33> H    4.33987058  -0.37277197  -1.34212418
| 34> H   -0.82072304   3.74452429   1.59734904
| 35> *
| 36>
| 37>                          ****END OF INPUT****

CARTESIAN COORDINATES (ANGSTROEM)
---------------------------------
  C     -1.400599    0.163616   -0.653566
  C     -2.142535   -0.890920   -1.202335
  C     -1.828242   -2.204923   -0.891016
  C     -0.884747   -2.447615    0.098530
  C     -0.300101   -0.109304    0.157730
  C     -0.157357   -1.396397    0.656174
  H     -1.663779    1.190472   -0.912173
  H     -2.876400   -0.663758   -1.970603
  H     -2.244516   -3.014611   -1.448956
  H      0.586183   -1.596099    1.428908
  H     -0.606956   -3.461555    0.376643
  Pd     1.322808    0.958089   -0.088130
  O      3.262249    1.346017   -1.079340
  O      2.574053   -0.607442   -0.386397
  O      0.343820    2.774173    0.269668
  C     -0.161822    2.874640    1.364055
  O      0.002945    1.976180    2.318904
  H     -0.826642    1.596875    2.667822
  C      3.435272    0.120381   -0.959039
  H      4.339871   -0.372772   -1.342124
  H     -0.820723    3.744524    1.597349

 Total Charge           Charge          ....    0
 Multiplicity           Mult            ....    1
 Number of Electrons    NEL             ....  106
 Basis Dimension        Dim             ....  227

ORBITAL ENERGIES
----------------

  NO   OCC          E(Eh)            E(eV)
   0   2.0000     -19.592769      -533.1463
   1   2.0000     -19.586608      -532.9787
   2   2.0000     -19.490179      -530.3547
   3   2.0000     -19.476171      -529.9735
   4   2.0000     -10.651815      -289.8506
   5   2.0000     -10.550815      -287.1023
   6   2.0000     -10.446300      -284.2583
   7   2.0000     -10.441175      -284.1188
   8   2.0000     -10.440229      -284.0931
   9   2.0000     -10.437583      -284.0211
  10   2.0000     -10.433896      -283.9208
  11   2.0000     -10.433070      -283.8983
  12   2.0000      -3.643042       -99.1322
  13   2.0000      -2.291851       -62.3644
  14   2.0000      -2.287449       -62.2446
  15   2.0000      -2.256274       -61.3963
  16   2.0000      -1.286754       -35.0144
  17   2.0000      -1.204887       -32.7867
  18   2.0000      -1.187175       -32.3047
  19   2.0000      -1.076783       -29.3007
  20   2.0000      -0.942510       -25.6470
  21   2.0000      -0.823337       -22.4041
  22   2.0000      -0.821802       -22.3624
  23   2.0000      -0.779758       -21.2183
  24   2.0000      -0.703480       -19.1427
  25   2.0000      -0.669151       -18.2085
  26   2.0000      -0.659715       -17.9517
  27   2.0000      -0.655830       -17.8460
  28   2.0000      -0.619694       -16.8627
  29   2.0000      -0.588302       -16.0085
  30   2.0000      -0.571156       -15.5419
  31   2.0000      -0.549681       -14.9576
  32   2.0000      -0.520312       -14.1584
  33   2.0000      -0.503606       -13.7038
  34   2.0000      -0.501767       -13.6538
  35   2.0000      -0.494378       -13.4527
  36   2.0000      -0.490023       -13.3342
  37   2.0000      -0.466749       -12.7009
  38   2.0000      -0.451622       -12.2893
  39   2.0000      -0.447264       -12.1707
  40   2.0000      -0.445236       -12.1155
  41   2.0000      -0.424096       -11.5402
  42   2.0000      -0.392312       -10.6753
  43   2.0000      -0.380023       -10.3409
  44   2.0000      -0.373383       -10.1603
  45   2.0000      -0.361194        -9.8286
  46   2.0000      -0.344402        -9.3717
  47   2.0000      -0.331799        -9.0287
  48   2.0000      -0.313526        -8.5315
  49   2.0000      -0.306857        -8.3500
  50   2.0000      -0.283024        -7.7015
  51   2.0000      -0.276867        -7.5339
  52   2.0000      -0.255113        -6.9420
  53   0.0000      -0.045956        -1.2505
  54   0.0000      -0.024756        -0.6736
  55   0.0000       0.025594         0.6965
  56   0.0000       0.030803         0.8382
  57   0.0000       0.048653         1.3239

MULLIKEN ATOMIC CHARGES
-----------------------
   0 C :   -0.243985
   1 C :   -0.224199
   2 C :   -0.225118
   3 C :   -0.223417
   4 C :   -0.176575
   5 C :   -0.225518
   6 H :    0.214766
   7 H :    0.213531
   8 H :    0.217473
   9 H :    0.236705
  10 H :    0.216266
  11 Pd:    0.375939
  12 O :   -0.469773
  13 O :   -0.482872
  14 O :   -0.345089
  15 C :    0.392625
  16 O :   -0.541044
  17 H :    0.486264
  18 C :    0.388431
  19 H :    0.181499
  20 H :    0.234090
Sum of atomic charges:   -0.0000000

LOEWDIN ATOMIC CHARGES
----------------------
   0 C :   -0.135330
   1 C :   -0.133006
   2 C :   -0.148624
   3 C :   -0.128036
   4 C :   -0.035457
   5 C :   -0.111099
   6 H :    0.141945
   7 H :    0.134864
   8 H :    0.135134
   9 H :    0.153548
  10 H :    0.136456
  11 Pd:   -0.319834
  12 O :   -0.201099
  13 O :   -0.165857
  14 O :   -0.020650
  15 C :    0.191077
  16 O :   -0.243824
  17 H :    0.370819
  18 C :    0.139409
  19 H :    0.108066
  20 H :    0.131497

  Mayer bond orders larger than 0.100000
B(  0-C ,  1-C ) :   1.4247 B(  0-C ,  4-C ) :   1.3660 B(  0-C ,  6-H ) :   0.9115
B(  1-C ,  2-C ) :   1.4358 B(  1-C ,  7-H ) :   0.9195 B(  2-C ,  3-C ) :   1.4151
B(  2-C ,  8-H ) :   0.9201 B(  3-C ,  5-C ) :   1.4361 B(  3-C , 10-H ) :   0.9189
B(  4-C ,  5-C ) :   1.3859 B(  4-C , 11-Pd) :   0.9207 B(  5-C ,  9-H ) :   0.9081
B( 11-Pd, 12-O ) :   0.3637 B( 11-Pd, 13-O ) :   0.5505 B( 11-Pd, 14-O ) :   0.3578
B( 12-O , 13-O ) :   0.1167 B( 12-O , 18-C ) :   1.5940 B( 13-O , 18-C ) :   1.4271
B( 14-O , 15-C ) :   1.8081 B( 15-C , 16-O ) :   1.1573 B( 15-C , 20-H ) :   0.8659
B( 16-O , 17-H ) :   0.7113 B( 18-C , 19-H ) :   0.8865

Dispersion correction           -0.013151783
FINAL SINGLE POINT ENERGY      -737.102170122081
Dispersion correction            ... done

DIPOLE MOMENT
-------------
                                X             Y             Z
Electronic contribution:     48.45624      36.85748      -3.03493
Nuclear contribution   :    -50.00002     -35.87095       4.48888
                        -----------------------------------------
Total Dipole Moment    :     -1.54378       0.98653       1.45395
                        -----------------------------------------
Magnitude (a.u.)       :      2.33890
Magnitude (Debye)      :      5.94502

Rotational constants in cm-1:     0.028486     0.018383     0.013294
Rotational constants in MHz :   853.975232   551.117304   398.542120

                             ****ORCA TERMINATED NORMALLY****
TOTAL RUN TIME: 0 days 0 hours 3 minutes 58 seconds 775 msec
