                         Program Version 5.0.3 -  RELEASE  -
|  1> ! EnGrad PBEh-3c
|  2> %output
|  3> xyzfile=True
|  4> end
|  5> %scf
|  6> maxiter 250
|  7> end
|  8> %output
|  9> Print[P_Hirshfeld] = 1
| 10> end
| 11> % maxcore
| 12> 4000
| 13> *xyz 0 1
| 14> C   -1.40264040   0.16825220  -0.63737027
| 15> C   -2.12762084  -0.87929222  -1.20690893
| 16> C   -1.80017608  -2.19917559  -0.90220912
| 17> C   -0.86522679  -2.44325953   0.10477908
| 18> C   -0.30812951  -0.10592792   0.17537842
| 19> C   -0.15904121  -1.39104458   0.67049924
| 20> H   -1.67495556   1.18557068  -0.89124563
| 21> H   -2.86381569  -0.66428830  -1.98249078
| 22> H   -2.21126858  -3.02261402  -1.48461231
| 23> H    0.56863622  -1.59295850   1.44202454
| 24> H   -0.59424799  -3.46381507   0.37006439
| 25> Pd   1.30058552   0.95644116  -0.08185382
| 26> O    3.24313857   1.33400173  -1.09374427
| 27> O    2.56194235  -0.61654489  -0.37110536
| 28> O    0.33827898   2.77853137   0.28919077
| 29> C   -0.17863006   2.88480543   1.36696924
| 30> O    0.00570193   1.99687422   2.31434814
| 31> H   -0.82310039   1.58788742   2.64326923
| 32> C    3.41581850   0.10752468  -0.96539895
| 33> H    4.31885868  -0.38759816  -1.35451249
| 34> H   -0.79375325   3.74204578   1.59407185
| 35> *
| 36>
| 37>                          ****END OF INPUT****

CARTESIAN COORDINATES (ANGSTROEM)
---------------------------------
  C     -1.402640    0.168252   -0.637370
  C     -2.127621   -0.879292   -1.206909
  C     -1.800176   -2.199176   -0.902209
  C     -0.865227   -2.443260    0.104779
  C     -0.308130   -0.105928    0.175378
  C     -0.159041   -1.391045    0.670499
  H     -1.674956    1.185571   -0.891246
  H     -2.863816   -0.664288   -1.982491
  H     -2.211269   -3.022614   -1.484612
  H      0.568636   -1.592958    1.442025
  H     -0.594248   -3.463815    0.370064
  Pd     1.300586    0.956441   -0.081854
  O      3.243139    1.334002   -1.093744
  O      2.561942   -0.616545   -0.371105
  O      0.338279    2.778531    0.289191
  C     -0.178630    2.884805    1.366969
  O      0.005702    1.996874    2.314348
  H     -0.823100    1.587887    2.643269
  C      3.415818    0.107525   -0.965399
  H      4.318859   -0.387598   -1.354512
  H     -0.793753    3.742046    1.594072

 Total Charge           Charge          ....    0
 Multiplicity           Mult            ....    1
 Number of Electrons    NEL             ....  106
 Basis Dimension        Dim             ....  227

ORBITAL ENERGIES
----------------

  NO   OCC          E(Eh)            E(eV)
   0   2.0000     -19.591031      -533.0991
   1   2.0000     -19.584014      -532.9081
   2   2.0000     -19.488744      -530.3157
   3   2.0000     -19.475064      -529.9434
   4   2.0000     -10.645422      -289.6766
   5   2.0000     -10.550238      -287.0866
   6   2.0000     -10.447043      -284.2785
   7   2.0000     -10.441765      -284.1349
   8   2.0000     -10.440690      -284.1056
   9   2.0000     -10.438529      -284.0468
  10   2.0000     -10.436603      -283.9944
  11   2.0000     -10.433179      -283.9012
  12   2.0000      -3.643121       -99.1344
  13   2.0000      -2.292351       -62.3780
  14   2.0000      -2.287176       -62.2372
  15   2.0000      -2.256458       -61.4014
  16   2.0000      -1.292262       -35.1642
  17   2.0000      -1.205817       -32.8119
  18   2.0000      -1.183861       -32.2145
  19   2.0000      -1.074333       -29.2341
  20   2.0000      -0.944016       -25.6880
  21   2.0000      -0.826336       -22.4857
  22   2.0000      -0.821084       -22.3428
  23   2.0000      -0.781156       -21.2563
  24   2.0000      -0.709415       -19.3042
  25   2.0000      -0.670201       -18.2371
  26   2.0000      -0.660201       -17.9650
  27   2.0000      -0.654910       -17.8210
  28   2.0000      -0.621728       -16.9181
  29   2.0000      -0.591830       -16.1045
  30   2.0000      -0.571295       -15.5457
  31   2.0000      -0.547613       -14.9013
  32   2.0000      -0.518393       -14.1062
  33   2.0000      -0.504816       -13.7367
  34   2.0000      -0.502884       -13.6842
  35   2.0000      -0.493705       -13.4344
  36   2.0000      -0.487656       -13.2698
  37   2.0000      -0.469856       -12.7854
  38   2.0000      -0.453121       -12.3301
  39   2.0000      -0.446224       -12.1424
  40   2.0000      -0.444391       -12.0925
  41   2.0000      -0.426404       -11.6030
  42   2.0000      -0.393138       -10.6978
  43   2.0000      -0.379509       -10.3270
  44   2.0000      -0.372775       -10.1437
  45   2.0000      -0.360117        -9.7993
  46   2.0000      -0.343950        -9.3594
  47   2.0000      -0.331842        -9.0299
  48   2.0000      -0.313990        -8.5441
  49   2.0000      -0.306489        -8.3400
  50   2.0000      -0.284163        -7.7325
  51   2.0000      -0.278112        -7.5678
  52   2.0000      -0.254250        -6.9185
  53   0.0000      -0.044486        -1.2105
  54   0.0000      -0.024321        -0.6618
  55   0.0000       0.025444         0.6924
  56   0.0000       0.029955         0.8151
  57   0.0000       0.047987         1.3058

MULLIKEN ATOMIC CHARGES
-----------------------
   0 C :   -0.238932
   1 C :   -0.223063
   2 C :   -0.231214
   3 C :   -0.221654
   4 C :   -0.186444
   5 C :   -0.220433
   6 H :    0.216020
   7 H :    0.214487
   8 H :    0.215913
   9 H :    0.238176
  10 H :    0.217320
  11 Pd:    0.379578
  12 O :   -0.470238
  13 O :   -0.484643
  14 O :   -0.342202
  15 C :    0.385247
  16 O :   -0.539230
  17 H :    0.485825
  18 C :    0.387325
  19 H :    0.181228
  20 H :    0.236936
Sum of atomic charges:    0.0000000

LOEWDIN ATOMIC CHARGES
----------------------
   0 C :   -0.135439
   1 C :   -0.133193
   2 C :   -0.146870
   3 C :   -0.127938
   4 C :   -0.034649
   5 C :   -0.110657
   6 H :    0.142442
   7 H :    0.135370
   8 H :    0.134914
   9 H :    0.153772
  10 H :    0.136972
  11 Pd:   -0.314706
  12 O :   -0.204279
  13 O :   -0.170951
  14 O :   -0.014693
  15 C :    0.179247
  16 O :   -0.239211
  17 H :    0.371934
  18 C :    0.140129
  19 H :    0.107809
  20 H :    0.129996

  Mayer bond orders larger than 0.100000
B(  0-C ,  1-C ) :   1.4261 B(  0-C ,  4-C ) :   1.3637 B(  0-C ,  6-H ) :   0.9108
B(  1-C ,  2-C ) :   1.4352 B(  1-C ,  7-H ) :   0.9191 B(  2-C ,  3-C ) :   1.4123
B(  2-C ,  8-H ) :   0.9205 B(  3-C ,  5-C ) :   1.4397 B(  3-C , 10-H ) :   0.9185
B(  4-C ,  5-C ) :   1.3844 B(  4-C , 11-Pd) :   0.9292 B(  5-C ,  9-H ) :   0.9075
B( 11-Pd, 12-O ) :   0.3608 B( 11-Pd, 13-O ) :   0.5462 B( 11-Pd, 14-O ) :   0.3571
B( 12-O , 13-O ) :   0.1169 B( 12-O , 18-C ) :   1.5959 B( 13-O , 18-C ) :   1.4272
B( 14-O , 15-C ) :   1.8169 B( 15-C , 16-O ) :   1.1653 B( 15-C , 20-H ) :   0.8688
B( 16-O , 17-H ) :   0.7105 B( 18-C , 19-H ) :   0.8858

Dispersion correction           -0.013196684
FINAL SINGLE POINT ENERGY      -737.100873783370
Dispersion correction            ... done

DIPOLE MOMENT
-------------
                                X             Y             Z
Electronic contribution:     47.48448      36.72100      -2.86332
Nuclear contribution   :    -49.06526     -35.74690       4.29083
                        -----------------------------------------
Total Dipole Moment    :     -1.58078       0.97410       1.42751
                        -----------------------------------------
Magnitude (a.u.)       :      2.34212
Magnitude (Debye)      :      5.95319

Rotational constants in cm-1:     0.028361     0.018605     0.013383
Rotational constants in MHz :   850.246123   557.754894   401.224950

                             ****ORCA TERMINATED NORMALLY****
TOTAL RUN TIME: 0 days 0 hours 3 minutes 58 seconds 812 msec
