                         Program Version 5.0.3 -  RELEASE  -
|  1> ! EnGrad PBEh-3c
|  2> %output
|  3> xyzfile=True
|  4> end
|  5> %scf
|  6> maxiter 250
|  7> end
|  8> %output
|  9> Print[P_Hirshfeld] = 1
| 10> end
| 11> % maxcore
| 12> 4000
| 13> *xyz 0 1
| 14> C   -1.40783214   0.17048904  -0.62680525
| 15> C   -2.11369890  -0.87379697  -1.21205883
| 16> C   -1.77611560  -2.19368808  -0.91230656
| 17> C   -0.85126211  -2.44074657   0.10450367
| 18> C   -0.32052926  -0.10316255   0.19453464
| 19> C   -0.16106930  -1.39177674   0.68246141
| 20> H   -1.68329537   1.18129568  -0.88268809
| 21> H   -2.85473688  -0.66473212  -1.98662733
| 22> H   -2.18729839  -3.02082431  -1.50241509
| 23> H    0.55897410  -1.59587491   1.45072806
| 24> H   -0.58729670  -3.46459641   0.36475149
| 25> Pd   1.28433272   0.96400416  -0.08002937
| 26> O    3.23150602   1.32223569  -1.10090277
| 27> O    2.55500462  -0.62282326  -0.36449996
| 28> O    0.33661373   2.77960036   0.29074012
| 29> C   -0.19287794   2.88831210   1.37206497
| 30> O    0.00292234   2.01102220   2.32079487
| 31> H   -0.81412030   1.57741503   2.62222480
| 32> C    3.40206233   0.09733687  -0.96714174
| 33> H    4.30474708  -0.39751431  -1.36364292
| 34> H   -0.77641817   3.74835128   1.59154535
| 35> *
| 36>
| 37>                          ****END OF INPUT****

CARTESIAN COORDINATES (ANGSTROEM)
---------------------------------
  C     -1.407832    0.170489   -0.626805
  C     -2.113699   -0.873797   -1.212059
  C     -1.776116   -2.193688   -0.912307
  C     -0.851262   -2.440747    0.104504
  C     -0.320529   -0.103163    0.194535
  C     -0.161069   -1.391777    0.682461
  H     -1.683295    1.181296   -0.882688
  H     -2.854737   -0.664732   -1.986627
  H     -2.187298   -3.020824   -1.502415
  H      0.558974   -1.595875    1.450728
  H     -0.587297   -3.464596    0.364751
  Pd     1.284333    0.964004   -0.080029
  O      3.231506    1.322236   -1.100903
  O      2.555005   -0.622823   -0.364500
  O      0.336614    2.779600    0.290740
  C     -0.192878    2.888312    1.372065
  O      0.002922    2.011022    2.320795
  H     -0.814120    1.577415    2.622225
  C      3.402062    0.097337   -0.967142
  H      4.304747   -0.397514   -1.363643
  H     -0.776418    3.748351    1.591545

 Total Charge           Charge          ....    0
 Multiplicity           Mult            ....    1
 Number of Electrons    NEL             ....  106
 Basis Dimension        Dim             ....  227

ORBITAL ENERGIES
----------------

  NO   OCC          E(Eh)            E(eV)
   0   2.0000     -19.591479      -533.1112
   1   2.0000     -19.584348      -532.9172
   2   2.0000     -19.486941      -530.2666
   3   2.0000     -19.473349      -529.8968
   4   2.0000     -10.645243      -289.6718
   5   2.0000     -10.548466      -287.0384
   6   2.0000     -10.448114      -284.3076
   7   2.0000     -10.442069      -284.1431
   8   2.0000     -10.440499      -284.1004
   9   2.0000     -10.438861      -284.0558
  10   2.0000     -10.437857      -284.0285
  11   2.0000     -10.433234      -283.9027
  12   2.0000      -3.643311       -99.1395
  13   2.0000      -2.292456       -62.3809
  14   2.0000      -2.287277       -62.2400
  15   2.0000      -2.256682       -61.4075
  16   2.0000      -1.292755       -35.1777
  17   2.0000      -1.205332       -32.7987
  18   2.0000      -1.182875       -32.1877
  19   2.0000      -1.073306       -29.2062
  20   2.0000      -0.945588       -25.7308
  21   2.0000      -0.828967       -22.5573
  22   2.0000      -0.820843       -22.3363
  23   2.0000      -0.786043       -21.3893
  24   2.0000      -0.712049       -19.3758
  25   2.0000      -0.670923       -18.2568
  26   2.0000      -0.661283       -17.9944
  27   2.0000      -0.652961       -17.7680
  28   2.0000      -0.622473       -16.9383
  29   2.0000      -0.593268       -16.1437
  30   2.0000      -0.572282       -15.5726
  31   2.0000      -0.545938       -14.8557
  32   2.0000      -0.517112       -14.0713
  33   2.0000      -0.505522       -13.7560
  34   2.0000      -0.503740       -13.7075
  35   2.0000      -0.492457       -13.4004
  36   2.0000      -0.486488       -13.2380
  37   2.0000      -0.472422       -12.8552
  38   2.0000      -0.455222       -12.3872
  39   2.0000      -0.446810       -12.1583
  40   2.0000      -0.443908       -12.0794
  41   2.0000      -0.427754       -11.6398
  42   2.0000      -0.393652       -10.7118
  43   2.0000      -0.378520       -10.3001
  44   2.0000      -0.371365       -10.1054
  45   2.0000      -0.358934        -9.7671
  46   2.0000      -0.343685        -9.3521
  47   2.0000      -0.331169        -9.0116
  48   2.0000      -0.313510        -8.5310
  49   2.0000      -0.306661        -8.3447
  50   2.0000      -0.285655        -7.7731
  51   2.0000      -0.279173        -7.5967
  52   2.0000      -0.254189        -6.9168
  53   0.0000      -0.047508        -1.2928
  54   0.0000      -0.026691        -0.7263
  55   0.0000       0.025407         0.6914
  56   0.0000       0.029662         0.8071
  57   0.0000       0.048362         1.3160

MULLIKEN ATOMIC CHARGES
-----------------------
   0 C :   -0.233176
   1 C :   -0.222351
   2 C :   -0.232456
   3 C :   -0.220616
   4 C :   -0.199712
   5 C :   -0.216542
   6 H :    0.217646
   7 H :    0.214979
   8 H :    0.215256
   9 H :    0.239447
  10 H :    0.217822
  11 Pd:    0.380827
  12 O :   -0.470330
  13 O :   -0.482914
  14 O :   -0.349925
  15 C :    0.386080
  16 O :   -0.536971
  17 H :    0.487153
  18 C :    0.385205
  19 H :    0.179048
  20 H :    0.241532
Sum of atomic charges:    0.0000000

LOEWDIN ATOMIC CHARGES
----------------------
   0 C :   -0.135395
   1 C :   -0.132866
   2 C :   -0.145148
   3 C :   -0.127490
   4 C :   -0.035649
   5 C :   -0.110372
   6 H :    0.142914
   7 H :    0.135535
   8 H :    0.134727
   9 H :    0.153780
  10 H :    0.137229
  11 Pd:   -0.312802
  12 O :   -0.205416
  13 O :   -0.172837
  14 O :   -0.018785
  15 C :    0.182977
  16 O :   -0.235581
  17 H :    0.371287
  18 C :    0.136228
  19 H :    0.106434
  20 H :    0.131230

  Mayer bond orders larger than 0.100000
B(  0-C ,  1-C ) :   1.4278 B(  0-C ,  4-C ) :   1.3621 B(  0-C ,  6-H ) :   0.9099
B(  1-C ,  2-C ) :   1.4355 B(  1-C ,  7-H ) :   0.9187 B(  2-C ,  3-C ) :   1.4113
B(  2-C ,  8-H ) :   0.9207 B(  3-C ,  5-C ) :   1.4428 B(  3-C , 10-H ) :   0.9181
B(  4-C ,  5-C ) :   1.3838 B(  4-C , 11-Pd) :   0.9298 B(  5-C ,  9-H ) :   0.9070
B( 11-Pd, 12-O ) :   0.3613 B( 11-Pd, 13-O ) :   0.5396 B( 11-Pd, 14-O ) :   0.3647
B( 12-O , 13-O ) :   0.1166 B( 12-O , 18-C ) :   1.5956 B( 13-O , 18-C ) :   1.4344
B( 14-O , 15-C ) :   1.8059 B( 15-C , 16-O ) :   1.1721 B( 15-C , 20-H ) :   0.8698
B( 16-O , 17-H ) :   0.7086 B( 18-C , 19-H ) :   0.8854

Dispersion correction           -0.013224683
FINAL SINGLE POINT ENERGY      -737.099298044555
Dispersion correction            ... done

DIPOLE MOMENT
-------------
                                X             Y             Z
Electronic contribution:     46.75712      37.04554      -2.84248
Nuclear contribution   :    -48.38507     -36.08186       4.26362
                        -----------------------------------------
Total Dipole Moment    :     -1.62795       0.96368       1.42114
                        -----------------------------------------
Magnitude (a.u.)       :      2.36612
Magnitude (Debye)      :      6.01420

Rotational constants in cm-1:     0.028232     0.018737     0.013436
Rotational constants in MHz :   846.382505   561.709397   402.786910

                             ****ORCA TERMINATED NORMALLY****
TOTAL RUN TIME: 0 days 0 hours 3 minutes 47 seconds 220 msec
