                         Program Version 5.0.3 -  RELEASE  -
|  1> ! EnGrad PBEh-3c
|  2> %output
|  3> xyzfile=True
|  4> end
|  5> %scf
|  6> maxiter 250
|  7> end
|  8> %output
|  9> Print[P_Hirshfeld] = 1
| 10> end
| 11> % maxcore
| 12> 4000
| 13> *xyz 0 1
| 14> C   -1.41514337   0.17180339  -0.61374153
| 15> C   -2.09785870  -0.87560990  -1.22143790
| 16> C   -1.74630849  -2.18848596  -0.92808309
| 17> C   -0.83835499  -2.44228433   0.09735558
| 18> C   -0.33487846  -0.09539030   0.22264993
| 19> C   -0.16538848  -1.39218044   0.69662378
| 20> H   -1.69341789   1.18031412  -0.87466303
| 21> H   -2.84170162  -0.66490481  -1.98914417
| 22> H   -2.15305336  -3.01130696  -1.51985479
| 23> H    0.55307966  -1.60172711   1.46553915
| 24> H   -0.57894868  -3.46480585   0.35882647
| 25> Pd   1.26692103   0.97324669  -0.07797986
| 26> O    3.21567471   1.30750443  -1.10852449
| 27> O    2.54223326  -0.63085690  -0.35691206
| 28> O    0.32979483   2.78281161   0.29077224
| 29> C   -0.19416094   2.88481192   1.36678463
| 30> O   -0.00366439   2.02750014   2.33671615
| 31> H   -0.80337556   1.55977844   2.59773982
| 32> C    3.38701797   0.08309568  -0.96953623
| 33> H    4.28514190  -0.40994719  -1.37533348
| 34> H   -0.76489709   3.76982765   1.59185079
| 35> *
| 36>
| 37>                          ****END OF INPUT****

CARTESIAN COORDINATES (ANGSTROEM)
---------------------------------
  C     -1.415143    0.171803   -0.613742
  C     -2.097859   -0.875610   -1.221438
  C     -1.746308   -2.188486   -0.928083
  C     -0.838355   -2.442284    0.097356
  C     -0.334878   -0.095390    0.222650
  C     -0.165388   -1.392180    0.696624
  H     -1.693418    1.180314   -0.874663
  H     -2.841702   -0.664905   -1.989144
  H     -2.153053   -3.011307   -1.519855
  H      0.553080   -1.601727    1.465539
  H     -0.578949   -3.464806    0.358826
  Pd     1.266921    0.973247   -0.077980
  O      3.215675    1.307504   -1.108524
  O      2.542233   -0.630857   -0.356912
  O      0.329795    2.782812    0.290772
  C     -0.194161    2.884812    1.366785
  O     -0.003664    2.027500    2.336716
  H     -0.803376    1.559778    2.597740
  C      3.387018    0.083096   -0.969536
  H      4.285142   -0.409947   -1.375333
  H     -0.764897    3.769828    1.591851

 Total Charge           Charge          ....    0
 Multiplicity           Mult            ....    1
 Number of Electrons    NEL             ....  106
 Basis Dimension        Dim             ....  227

ORBITAL ENERGIES
----------------

  NO   OCC          E(Eh)            E(eV)
   0   2.0000     -19.588674      -533.0349
   1   2.0000     -19.587440      -533.0013
   2   2.0000     -19.486211      -530.2468
   3   2.0000     -19.473004      -529.8874
   4   2.0000     -10.646062      -289.6941
   5   2.0000     -10.548010      -287.0259
   6   2.0000     -10.449840      -284.3546
   7   2.0000     -10.442471      -284.1541
   8   2.0000     -10.441760      -284.1347
   9   2.0000     -10.439503      -284.0733
  10   2.0000     -10.437933      -284.0306
  11   2.0000     -10.435129      -283.9543
  12   2.0000      -3.644696       -99.1772
  13   2.0000      -2.293761       -62.4164
  14   2.0000      -2.288646       -62.2772
  15   2.0000      -2.258078       -61.4454
  16   2.0000      -1.294760       -35.2322
  17   2.0000      -1.210236       -32.9322
  18   2.0000      -1.182090       -32.1663
  19   2.0000      -1.072254       -29.1775
  20   2.0000      -0.946755       -25.7625
  21   2.0000      -0.830136       -22.5891
  22   2.0000      -0.822229       -22.3740
  23   2.0000      -0.786316       -21.3967
  24   2.0000      -0.708692       -19.2845
  25   2.0000      -0.672291       -18.2940
  26   2.0000      -0.662542       -18.0287
  27   2.0000      -0.652828       -17.7644
  28   2.0000      -0.626088       -17.0367
  29   2.0000      -0.595393       -16.2015
  30   2.0000      -0.573614       -15.6088
  31   2.0000      -0.544998       -14.8302
  32   2.0000      -0.516798       -14.0628
  33   2.0000      -0.507107       -13.7991
  34   2.0000      -0.504499       -13.7281
  35   2.0000      -0.494084       -13.4447
  36   2.0000      -0.485605       -13.2140
  37   2.0000      -0.473678       -12.8894
  38   2.0000      -0.453646       -12.3443
  39   2.0000      -0.449699       -12.2369
  40   2.0000      -0.444119       -12.0851
  41   2.0000      -0.428678       -11.6649
  42   2.0000      -0.395407       -10.7596
  43   2.0000      -0.379035       -10.3141
  44   2.0000      -0.370714       -10.0876
  45   2.0000      -0.358818        -9.7639
  46   2.0000      -0.344582        -9.3765
  47   2.0000      -0.331536        -9.0216
  48   2.0000      -0.314150        -8.5484
  49   2.0000      -0.307901        -8.3784
  50   2.0000      -0.287139        -7.8134
  51   2.0000      -0.280400        -7.6301
  52   2.0000      -0.255246        -6.9456
  53   0.0000      -0.047647        -1.2966
  54   0.0000      -0.029516        -0.8032
  55   0.0000       0.024780         0.6743
  56   0.0000       0.028842         0.7848
  57   0.0000       0.049652         1.3511

MULLIKEN ATOMIC CHARGES
-----------------------
   0 C :   -0.229905
   1 C :   -0.219928
   2 C :   -0.231490
   3 C :   -0.217983
   4 C :   -0.214284
   5 C :   -0.216653
   6 H :    0.218795
   7 H :    0.216097
   8 H :    0.215384
   9 H :    0.240394
  10 H :    0.218925
  11 Pd:    0.381382
  12 O :   -0.470948
  13 O :   -0.482041
  14 O :   -0.341725
  15 C :    0.385382
  16 O :   -0.542287
  17 H :    0.488995
  18 C :    0.384272
  19 H :    0.179209
  20 H :    0.238407
Sum of atomic charges:   -0.0000000

LOEWDIN ATOMIC CHARGES
----------------------
   0 C :   -0.133885
   1 C :   -0.132715
   2 C :   -0.142901
   3 C :   -0.127205
   4 C :   -0.040161
   5 C :   -0.108437
   6 H :    0.142991
   7 H :    0.135948
   8 H :    0.134616
   9 H :    0.153760
  10 H :    0.137753
  11 Pd:   -0.311538
  12 O :   -0.206645
  13 O :   -0.175620
  14 O :   -0.008834
  15 C :    0.181753
  16 O :   -0.241015
  17 H :    0.370059
  18 C :    0.135117
  19 H :    0.106339
  20 H :    0.130620

  Mayer bond orders larger than 0.100000
B(  0-C ,  1-C ) :   1.4285 B(  0-C ,  4-C ) :   1.3591 B(  0-C ,  6-H ) :   0.9092
B(  1-C ,  2-C ) :   1.4372 B(  1-C ,  7-H ) :   0.9182 B(  2-C ,  3-C ) :   1.4116
B(  2-C ,  8-H ) :   0.9205 B(  3-C ,  5-C ) :   1.4447 B(  3-C , 10-H ) :   0.9177
B(  4-C ,  5-C ) :   1.3830 B(  4-C , 11-Pd) :   0.9281 B(  5-C ,  9-H ) :   0.9066
B( 11-Pd, 12-O ) :   0.3637 B( 11-Pd, 13-O ) :   0.5350 B( 11-Pd, 14-O ) :   0.3672
B( 12-O , 13-O ) :   0.1164 B( 12-O , 18-C ) :   1.5933 B( 13-O , 18-C ) :   1.4392
B( 14-O , 15-C ) :   1.8136 B( 15-C , 16-O ) :   1.1634 B( 15-C , 20-H ) :   0.8698
B( 16-O , 17-H ) :   0.7062 B( 18-C , 19-H ) :   0.8852

Dispersion correction           -0.013256777
FINAL SINGLE POINT ENERGY      -737.098432025208
Dispersion correction            ... done

DIPOLE MOMENT
-------------
                                X             Y             Z
Electronic contribution:     46.05959      37.43399      -2.88354
Nuclear contribution   :    -47.67974     -36.52139       4.22371
                        -----------------------------------------
Total Dipole Moment    :     -1.62015       0.91261       1.34017
                        -----------------------------------------
Magnitude (a.u.)       :      2.29212
Magnitude (Debye)      :      5.82610

Rotational constants in cm-1:     0.028094     0.018868     0.013492
Rotational constants in MHz :   842.234606   565.655879   404.488405

                             ****ORCA TERMINATED NORMALLY****
TOTAL RUN TIME: 0 days 0 hours 3 minutes 59 seconds 701 msec
