                         Program Version 5.0.3 -  RELEASE  -
|  1> ! EnGrad PBEh-3c
|  2> %output
|  3> xyzfile=True
|  4> end
|  5> %scf
|  6> maxiter 250
|  7> end
|  8> %output
|  9> Print[P_Hirshfeld] = 1
| 10> end
| 11> % maxcore
| 12> 4000
| 13> *xyz 0 1
| 14> C   -1.40982765   0.17084778  -0.62323967
| 15> C   -2.10937551  -0.87429179  -1.21461873
| 16> C   -1.76798012  -2.19226822  -0.91661257
| 17> C   -0.84773927  -2.44116629   0.10255269
| 18> C   -0.32444570  -0.10104121   0.20220836
| 19> C   -0.16224817  -1.39188693   0.68632686
| 20> H   -1.68605819   1.18102778  -0.88049775
| 21> H   -2.85117906  -0.66477926  -1.98731427
| 22> H   -2.17795163  -3.01822667  -1.50717504
| 23> H    0.55736528  -1.59747220   1.45477057
| 24> H   -0.58501821  -3.46465357   0.36313433
| 25> Pd   1.27958041   0.96652680  -0.07946998
| 26> O    3.22718506   1.31821497  -1.10298303
| 27> O    2.55151883  -0.62501594  -0.36242894
| 28> O    0.33475259   2.78047684   0.29074889
| 29> C   -0.19322812   2.88735677   1.37062377
| 30> O    0.00112458   2.01551965   2.32514039
| 31> H   -0.81118765   1.57260134   2.61554193
| 32> C    3.39795616   0.09344991  -0.96779529
| 33> H    4.29939609  -0.40090771  -1.36683371
| 34> H   -0.77327363   3.75421299   1.59162871
| 35> *
| 36>
| 37>                          ****END OF INPUT****

CARTESIAN COORDINATES (ANGSTROEM)
---------------------------------
  C     -1.409828    0.170848   -0.623240
  C     -2.109376   -0.874292   -1.214619
  C     -1.767980   -2.192268   -0.916613
  C     -0.847739   -2.441166    0.102553
  C     -0.324446   -0.101041    0.202208
  C     -0.162248   -1.391887    0.686327
  H     -1.686058    1.181028   -0.880498
  H     -2.851179   -0.664779   -1.987314
  H     -2.177952   -3.018227   -1.507175
  H      0.557365   -1.597472    1.454771
  H     -0.585018   -3.464654    0.363134
  Pd     1.279580    0.966527   -0.079470
  O      3.227185    1.318215   -1.102983
  O      2.551519   -0.625016   -0.362429
  O      0.334753    2.780477    0.290749
  C     -0.193228    2.887357    1.370624
  O      0.001125    2.015520    2.325140
  H     -0.811188    1.572601    2.615542
  C      3.397956    0.093450   -0.967795
  H      4.299396   -0.400908   -1.366834
  H     -0.773274    3.754213    1.591629

 Total Charge           Charge          ....    0
 Multiplicity           Mult            ....    1
 Number of Electrons    NEL             ....  106
 Basis Dimension        Dim             ....  227

ORBITAL ENERGIES
----------------

  NO   OCC          E(Eh)            E(eV)
   0   2.0000     -19.590679      -533.0895
   1   2.0000     -19.585190      -532.9401
   2   2.0000     -19.486731      -530.2609
   3   2.0000     -19.473247      -529.8940
   4   2.0000     -10.645463      -289.6778
   5   2.0000     -10.548332      -287.0347
   6   2.0000     -10.448574      -284.3202
   7   2.0000     -10.442150      -284.1454
   8   2.0000     -10.440840      -284.1097
   9   2.0000     -10.439019      -284.0601
  10   2.0000     -10.437864      -284.0287
  11   2.0000     -10.433735      -283.9164
  12   2.0000      -3.643673       -99.1494
  13   2.0000      -2.292798       -62.3902
  14   2.0000      -2.287632       -62.2496
  15   2.0000      -2.257049       -61.4174
  16   2.0000      -1.293299       -35.1925
  17   2.0000      -1.206728       -32.8367
  18   2.0000      -1.182657       -32.1817
  19   2.0000      -1.073012       -29.1981
  20   2.0000      -0.945918       -25.7397
  21   2.0000      -0.829298       -22.5663
  22   2.0000      -0.821218       -22.3465
  23   2.0000      -0.786180       -21.3930
  24   2.0000      -0.711177       -19.3521
  25   2.0000      -0.671294       -18.2668
  26   2.0000      -0.661626       -18.0038
  27   2.0000      -0.652923       -17.7669
  28   2.0000      -0.623480       -16.9658
  29   2.0000      -0.593858       -16.1597
  30   2.0000      -0.572649       -15.5826
  31   2.0000      -0.545673       -14.8485
  32   2.0000      -0.517008       -14.0685
  33   2.0000      -0.505944       -13.7674
  34   2.0000      -0.503954       -13.7133
  35   2.0000      -0.492817       -13.4102
  36   2.0000      -0.486234       -13.2311
  37   2.0000      -0.472770       -12.8647
  38   2.0000      -0.454872       -12.3777
  39   2.0000      -0.447593       -12.1796
  40   2.0000      -0.443981       -12.0813
  41   2.0000      -0.428035       -11.6474
  42   2.0000      -0.394124       -10.7247
  43   2.0000      -0.378655       -10.3037
  44   2.0000      -0.371169       -10.1000
  45   2.0000      -0.358894        -9.7660
  46   2.0000      -0.343919        -9.3585
  47   2.0000      -0.331254        -9.0139
  48   2.0000      -0.313682        -8.5357
  49   2.0000      -0.306999        -8.3539
  50   2.0000      -0.286061        -7.7841
  51   2.0000      -0.279515        -7.6060
  52   2.0000      -0.254465        -6.9243
  53   0.0000      -0.047515        -1.2930
  54   0.0000      -0.027462        -0.7473
  55   0.0000       0.025262         0.6874
  56   0.0000       0.029457         0.8016
  57   0.0000       0.048762         1.3269

MULLIKEN ATOMIC CHARGES
-----------------------
   0 C :   -0.232268
   1 C :   -0.221671
   2 C :   -0.232217
   3 C :   -0.219881
   4 C :   -0.203637
   5 C :   -0.216593
   6 H :    0.217961
   7 H :    0.215281
   8 H :    0.215283
   9 H :    0.239705
  10 H :    0.218120
  11 Pd:    0.380915
  12 O :   -0.470507
  13 O :   -0.482664
  14 O :   -0.347705
  15 C :    0.385928
  16 O :   -0.538496
  17 H :    0.487698
  18 C :    0.384960
  19 H :    0.179087
  20 H :    0.240702
Sum of atomic charges:   -0.0000000

LOEWDIN ATOMIC CHARGES
----------------------
   0 C :   -0.134999
   1 C :   -0.132818
   2 C :   -0.144539
   3 C :   -0.127412
   4 C :   -0.036837
   5 C :   -0.109860
   6 H :    0.142933
   7 H :    0.135645
   8 H :    0.134689
   9 H :    0.153773
  10 H :    0.137371
  11 Pd:   -0.312467
  12 O :   -0.205755
  13 O :   -0.173591
  14 O :   -0.016059
  15 C :    0.182640
  16 O :   -0.237056
  17 H :    0.370933
  18 C :    0.135920
  19 H :    0.106404
  20 H :    0.131083

  Mayer bond orders larger than 0.100000
B(  0-C ,  1-C ) :   1.4280 B(  0-C ,  4-C ) :   1.3612 B(  0-C ,  6-H ) :   0.9097
B(  1-C ,  2-C ) :   1.4360 B(  1-C ,  7-H ) :   0.9186 B(  2-C ,  3-C ) :   1.4114
B(  2-C ,  8-H ) :   0.9206 B(  3-C ,  5-C ) :   1.4433 B(  3-C , 10-H ) :   0.9180
B(  4-C ,  5-C ) :   1.3836 B(  4-C , 11-Pd) :   0.9294 B(  5-C ,  9-H ) :   0.9069
B( 11-Pd, 12-O ) :   0.3620 B( 11-Pd, 13-O ) :   0.5383 B( 11-Pd, 14-O ) :   0.3654
B( 12-O , 13-O ) :   0.1166 B( 12-O , 18-C ) :   1.5949 B( 13-O , 18-C ) :   1.4357
B( 14-O , 15-C ) :   1.8080 B( 15-C , 16-O ) :   1.1697 B( 15-C , 20-H ) :   0.8698
B( 16-O , 17-H ) :   0.7080 B( 18-C , 19-H ) :   0.8854

Dispersion correction           -0.013233462
FINAL SINGLE POINT ENERGY      -737.099205286410
Dispersion correction            ... done

DIPOLE MOMENT
-------------
                                X             Y             Z
Electronic contribution:     46.56644      37.15183      -2.85338
Nuclear contribution   :    -48.19256     -36.20183       4.25272
                        -----------------------------------------
Total Dipole Moment    :     -1.62612       0.95000       1.39935
                        -----------------------------------------
Magnitude (a.u.)       :      2.34626
Magnitude (Debye)      :      5.96372

Rotational constants in cm-1:     0.028194     0.018773     0.013451
Rotational constants in MHz :   845.242828   562.795370   403.254952

                             ****ORCA TERMINATED NORMALLY****
TOTAL RUN TIME: 0 days 0 hours 3 minutes 43 seconds 981 msec
