                         Program Version 5.0.3 -  RELEASE  -
|  1> ! EnGrad PBEh-3c
|  2> %output
|  3> xyzfile=True
|  4> end
|  5> %scf
|  6> maxiter 250
|  7> end
|  8> %output
|  9> Print[P_Hirshfeld] = 1
| 10> end
| 11> % maxcore
| 12> 4000
| 13> *xyz 0 1
| 14> C   -1.41929214   0.12857565  -0.76325262
| 15> C   -2.23018132  -0.87945779  -1.18740253
| 16> C   -1.98828784  -2.18333122  -0.77376973
| 17> C   -0.93938539  -2.46856838   0.10707864
| 18> C   -0.25583087  -0.07238360   0.09468713
| 19> C   -0.14863026  -1.46098211   0.57052331
| 20> H   -1.59503176   1.13790111  -1.17066777
| 21> H   -3.03306851  -0.67173632  -1.86430440
| 22> H   -2.62003724  -2.97219266  -1.11394829
| 23> H    0.67976809  -1.69964046   1.24742153
| 24> H   -0.74586817  -3.47854440   0.39916593
| 25> Pd   1.38611024   0.99697838  -0.17599822
| 26> O    3.49097606   1.46591680  -0.92435007
| 27> O    2.69983039  -0.53097229  -0.52560419
| 28> O    0.33139698   2.75700651   0.18356317
| 29> C   -0.15424320   2.83904018   1.28896774
| 30> O    0.05425157   1.93607742   2.36661788
| 31> H   -0.88613687   1.54457019   2.84910173
| 32> C    3.64557096   0.21860330  -0.91679468
| 33> H    4.58716362  -0.23536110  -1.23086761
| 34> H   -0.86032037   3.62788423   1.53924839
| 35> *
| 36>
| 37>                          ****END OF INPUT****

CARTESIAN COORDINATES (ANGSTROEM)
---------------------------------
  C     -1.419292    0.128576   -0.763253
  C     -2.230181   -0.879458   -1.187403
  C     -1.988288   -2.183331   -0.773770
  C     -0.939385   -2.468568    0.107079
  C     -0.255831   -0.072384    0.094687
  C     -0.148630   -1.460982    0.570523
  H     -1.595032    1.137901   -1.170668
  H     -3.033069   -0.671736   -1.864304
  H     -2.620037   -2.972193   -1.113948
  H      0.679768   -1.699640    1.247422
  H     -0.745868   -3.478544    0.399166
  Pd     1.386110    0.996978   -0.175998
  O      3.490976    1.465917   -0.924350
  O      2.699830   -0.530972   -0.525604
  O      0.331397    2.757007    0.183563
  C     -0.154243    2.839040    1.288968
  O      0.054252    1.936077    2.366618
  H     -0.886137    1.544570    2.849102
  C      3.645571    0.218603   -0.916795
  H      4.587164   -0.235361   -1.230868
  H     -0.860320    3.627884    1.539248

 Total Charge           Charge          ....    0
 Multiplicity           Mult            ....    1
 Number of Electrons    NEL             ....  106
 Basis Dimension        Dim             ....  227

ORBITAL ENERGIES
----------------

  NO   OCC          E(Eh)            E(eV)
   0   2.0000     -19.602146      -533.4015
   1   2.0000     -19.592148      -533.1295
   2   2.0000     -19.491919      -530.4021
   3   2.0000     -19.474776      -529.9356
   4   2.0000     -10.658263      -290.0261
   5   2.0000     -10.552248      -287.1413
   6   2.0000     -10.461221      -284.6643
   7   2.0000     -10.443103      -284.1713
   8   2.0000     -10.439093      -284.0622
   9   2.0000     -10.435498      -283.9643
  10   2.0000     -10.434872      -283.9473
  11   2.0000     -10.434179      -283.9285
  12   2.0000      -3.651113       -99.3518
  13   2.0000      -2.299204       -62.5645
  14   2.0000      -2.295478       -62.4631
  15   2.0000      -2.263428       -61.5910
  16   2.0000      -1.268100       -34.5067
  17   2.0000      -1.180834       -32.1321
  18   2.0000      -1.165197       -31.7066
  19   2.0000      -1.069443       -29.1010
  20   2.0000      -0.935881       -25.4666
  21   2.0000      -0.829801       -22.5800
  22   2.0000      -0.807087       -21.9619
  23   2.0000      -0.761058       -20.7094
  24   2.0000      -0.670170       -18.2363
  25   2.0000      -0.664048       -18.0697
  26   2.0000      -0.660744       -17.9797
  27   2.0000      -0.657365       -17.8878
  28   2.0000      -0.621858       -16.9216
  29   2.0000      -0.575247       -15.6533
  30   2.0000      -0.564241       -15.3538
  31   2.0000      -0.545894       -14.8545
  32   2.0000      -0.516142       -14.0449
  33   2.0000      -0.502808       -13.6821
  34   2.0000      -0.497425       -13.5356
  35   2.0000      -0.493418       -13.4266
  36   2.0000      -0.485158       -13.2018
  37   2.0000      -0.471783       -12.8379
  38   2.0000      -0.447535       -12.1780
  39   2.0000      -0.439465       -11.9584
  40   2.0000      -0.434317       -11.8184
  41   2.0000      -0.412798       -11.2328
  42   2.0000      -0.387940       -10.5564
  43   2.0000      -0.379670       -10.3313
  44   2.0000      -0.375971       -10.2307
  45   2.0000      -0.359403        -9.7799
  46   2.0000      -0.348679        -9.4880
  47   2.0000      -0.332139        -9.0380
  48   2.0000      -0.320110        -8.7106
  49   2.0000      -0.310836        -8.4583
  50   2.0000      -0.290924        -7.9164
  51   2.0000      -0.285676        -7.7736
  52   2.0000      -0.253523        -6.8987
  53   0.0000      -0.057448        -1.5632
  54   0.0000      -0.037743        -1.0271
  55   0.0000       0.011418         0.3107
  56   0.0000       0.028721         0.7815
  57   0.0000       0.035278         0.9600

MULLIKEN ATOMIC CHARGES
-----------------------
   0 C :   -0.259988
   1 C :   -0.187619
   2 C :   -0.250234
   3 C :   -0.187483
   4 C :   -0.173170
   5 C :   -0.248529
   6 H :    0.209888
   7 H :    0.215984
   8 H :    0.214310
   9 H :    0.231719
  10 H :    0.218384
  11 Pd:    0.379559
  12 O :   -0.474654
  13 O :   -0.481821
  14 O :   -0.334699
  15 C :    0.421849
  16 O :   -0.569074
  17 H :    0.463235
  18 C :    0.384074
  19 H :    0.188878
  20 H :    0.239393
Sum of atomic charges:   -0.0000000

LOEWDIN ATOMIC CHARGES
----------------------
   0 C :   -0.133472
   1 C :   -0.144566
   2 C :   -0.137428
   3 C :   -0.139461
   4 C :   -0.028861
   5 C :   -0.107555
   6 H :    0.137738
   7 H :    0.135769
   8 H :    0.131882
   9 H :    0.149652
  10 H :    0.137273
  11 Pd:   -0.294883
  12 O :   -0.222105
  13 O :   -0.169200
  14 O :   -0.006215
  15 C :    0.235831
  16 O :   -0.315751
  17 H :    0.381838
  18 C :    0.143904
  19 H :    0.111363
  20 H :    0.134246

  Mayer bond orders larger than 0.100000
B(  0-C ,  1-C ) :   1.4300 B(  0-C ,  4-C ) :   1.3529 B(  0-C ,  6-H ) :   0.9137
B(  1-C ,  2-C ) :   1.4392 B(  1-C ,  7-H ) :   0.9184 B(  2-C ,  3-C ) :   1.4024
B(  2-C ,  4-C ) :   0.1101 B(  2-C ,  8-H ) :   0.9194 B(  3-C ,  5-C ) :   1.4577
B(  3-C , 10-H ) :   0.9181 B(  4-C ,  5-C ) :   1.3506 B(  4-C , 11-Pd) :   0.9147
B(  5-C ,  9-H ) :   0.9117 B( 11-Pd, 12-O ) :   0.3596 B( 11-Pd, 13-O ) :   0.5568
B( 11-Pd, 14-O ) :   0.3552 B( 12-O , 13-O ) :   0.1160 B( 12-O , 18-C ) :   1.5950
B( 13-O , 18-C ) :   1.4279 B( 14-O , 15-C ) :   1.8285 B( 15-C , 16-O ) :   1.0979
B( 15-C , 20-H ) :   0.8652 B( 16-O , 17-H ) :   0.7293 B( 18-C , 19-H ) :   0.8842

Dispersion correction           -0.012958130
FINAL SINGLE POINT ENERGY      -737.072636298643
Dispersion correction            ... done

DIPOLE MOMENT
-------------
                                X             Y             Z
Electronic contribution:     50.26880      38.20317      -6.70660
Nuclear contribution   :    -51.95108     -37.25340       8.15394
                        -----------------------------------------
Total Dipole Moment    :     -1.68228       0.94977       1.44733
                        -----------------------------------------
Magnitude (a.u.)       :      2.41390
Magnitude (Debye)      :      6.13565

Rotational constants in cm-1:     0.028697     0.016998     0.012646
Rotational constants in MHz :   860.317664   509.576057   379.121658

                             ****ORCA TERMINATED NORMALLY****
TOTAL RUN TIME: 0 days 0 hours 3 minutes 47 seconds 222 msec
