                         Program Version 5.0.3 -  RELEASE  -
|  1> ! EnGrad PBEh-3c
|  2> %output
|  3> xyzfile=True
|  4> end
|  5> %scf
|  6> maxiter 250
|  7> end
|  8> %output
|  9> Print[P_Hirshfeld] = 1
| 10> end
| 11> % maxcore
| 12> 4000
| 13> *xyz 0 1
| 14> C   -1.39945541   0.14123856  -0.77471958
| 15> C   -2.23022778  -0.87763026  -1.18017484
| 16> C   -1.99868258  -2.17757488  -0.75853260
| 17> C   -0.94177680  -2.46323215   0.09974428
| 18> C   -0.30788031  -0.12810935   0.08420980
| 19> C   -0.13239352  -1.45370110   0.56377890
| 20> H   -1.59020298   1.13222768  -1.19341623
| 21> H   -3.04581517  -0.66867617  -1.85202591
| 22> H   -2.64737612  -2.96938217  -1.08978003
| 23> H    0.68960096  -1.71119486   1.23047559
| 24> H   -0.75879220  -3.47804010   0.40834412
| 25> Pd   1.43611486   1.03394855  -0.19443710
| 26> O    3.49448330   1.46821888  -0.90583445
| 27> O    2.71266360  -0.53408486  -0.54392394
| 28> O    0.32474866   2.74190550   0.18221666
| 29> C   -0.15210257   2.83182033   1.29567463
| 30> O    0.13126326   1.97955597   2.30415890
| 31> H   -0.96898765   1.50981155   2.91022664
| 32> C    3.65327338   0.22830309  -0.90548823
| 33> H    4.59878474  -0.22581158  -1.22104315
| 34> H   -0.86782305   3.62011147   1.54027892
| 35> *
| 36>
| 37>                          ****END OF INPUT****

CARTESIAN COORDINATES (ANGSTROEM)
---------------------------------
  C     -1.399455    0.141239   -0.774720
  C     -2.230228   -0.877630   -1.180175
  C     -1.998683   -2.177575   -0.758533
  C     -0.941777   -2.463232    0.099744
  C     -0.307880   -0.128109    0.084210
  C     -0.132394   -1.453701    0.563779
  H     -1.590203    1.132228   -1.193416
  H     -3.045815   -0.668676   -1.852026
  H     -2.647376   -2.969382   -1.089780
  H      0.689601   -1.711195    1.230476
  H     -0.758792   -3.478040    0.408344
  Pd     1.436115    1.033949   -0.194437
  O      3.494483    1.468219   -0.905834
  O      2.712664   -0.534085   -0.543924
  O      0.324749    2.741905    0.182217
  C     -0.152103    2.831820    1.295675
  O      0.131263    1.979556    2.304159
  H     -0.968988    1.509812    2.910227
  C      3.653273    0.228303   -0.905488
  H      4.598785   -0.225812   -1.221043
  H     -0.867823    3.620111    1.540279

 Total Charge           Charge          ....    0
 Multiplicity           Mult            ....    1
 Number of Electrons    NEL             ....  106
 Basis Dimension        Dim             ....  227

ORBITAL ENERGIES
----------------

  NO   OCC          E(Eh)            E(eV)
   0   2.0000     -19.603637      -533.4421
   1   2.0000     -19.584943      -532.9334
   2   2.0000     -19.490907      -530.3746
   3   2.0000     -19.476428      -529.9806
   4   2.0000     -10.643433      -289.6225
   5   2.0000     -10.551019      -287.1078
   6   2.0000     -10.453051      -284.4420
   7   2.0000     -10.439381      -284.0700
   8   2.0000     -10.436064      -283.9797
   9   2.0000     -10.435851      -283.9740
  10   2.0000     -10.434898      -283.9480
  11   2.0000     -10.434069      -283.9254
  12   2.0000      -3.640698       -99.0684
  13   2.0000      -2.288029       -62.2604
  14   2.0000      -2.284638       -62.1682
  15   2.0000      -2.253517       -61.3213
  16   2.0000      -1.262376       -34.3510
  17   2.0000      -1.185059       -32.2471
  18   2.0000      -1.165002       -31.7013
  19   2.0000      -1.073418       -29.2092
  20   2.0000      -0.940163       -25.5831
  21   2.0000      -0.829180       -22.5631
  22   2.0000      -0.811567       -22.0839
  23   2.0000      -0.744358       -20.2550
  24   2.0000      -0.663988       -18.0680
  25   2.0000      -0.660754       -17.9800
  26   2.0000      -0.657023       -17.8785
  27   2.0000      -0.652729       -17.7616
  28   2.0000      -0.611335       -16.6353
  29   2.0000      -0.574328       -15.6282
  30   2.0000      -0.563148       -15.3240
  31   2.0000      -0.546524       -14.8717
  32   2.0000      -0.516800       -14.0628
  33   2.0000      -0.500793       -13.6273
  34   2.0000      -0.497381       -13.5344
  35   2.0000      -0.488188       -13.2843
  36   2.0000      -0.478063       -13.0088
  37   2.0000      -0.471846       -12.8396
  38   2.0000      -0.443659       -12.0726
  39   2.0000      -0.435087       -11.8393
  40   2.0000      -0.431936       -11.7536
  41   2.0000      -0.413312       -11.2468
  42   2.0000      -0.386310       -10.5120
  43   2.0000      -0.377625       -10.2757
  44   2.0000      -0.367011        -9.9869
  45   2.0000      -0.355807        -9.6820
  46   2.0000      -0.344046        -9.3620
  47   2.0000      -0.324344        -8.8259
  48   2.0000      -0.307136        -8.3576
  49   2.0000      -0.306127        -8.3301
  50   2.0000      -0.286412        -7.7937
  51   2.0000      -0.280261        -7.6263
  52   2.0000      -0.259144        -7.0517
  53   0.0000      -0.082085        -2.2336
  54   0.0000      -0.038883        -1.0581
  55   0.0000      -0.014634        -0.3982
  56   0.0000       0.030331         0.8253
  57   0.0000       0.032792         0.8923

MULLIKEN ATOMIC CHARGES
-----------------------
   0 C :   -0.245263
   1 C :   -0.208918
   2 C :   -0.234680
   3 C :   -0.208139
   4 C :   -0.173167
   5 C :   -0.237074
   6 H :    0.220094
   7 H :    0.213633
   8 H :    0.213014
   9 H :    0.236605
  10 H :    0.215496
  11 Pd:    0.361684
  12 O :   -0.472333
  13 O :   -0.477057
  14 O :   -0.353788
  15 C :    0.406449
  16 O :   -0.486014
  17 H :    0.428324
  18 C :    0.387329
  19 H :    0.184101
  20 H :    0.229705
Sum of atomic charges:   -0.0000000

LOEWDIN ATOMIC CHARGES
----------------------
   0 C :   -0.137167
   1 C :   -0.138824
   2 C :   -0.142528
   3 C :   -0.133571
   4 C :   -0.034528
   5 C :   -0.114165
   6 H :    0.142921
   7 H :    0.133125
   8 H :    0.132419
   9 H :    0.152100
  10 H :    0.134781
  11 Pd:   -0.312137
  12 O :   -0.205324
  13 O :   -0.165174
  14 O :   -0.021611
  15 C :    0.187718
  16 O :   -0.245733
  17 H :    0.389447
  18 C :    0.141313
  19 H :    0.109332
  20 H :    0.127605

  Mayer bond orders larger than 0.100000
B(  0-C ,  1-C ) :   1.4259 B(  0-C ,  4-C ) :   1.3695 B(  0-C ,  6-H ) :   0.9113
B(  1-C ,  2-C ) :   1.4412 B(  1-C ,  7-H ) :   0.9183 B(  2-C ,  3-C ) :   1.4136
B(  2-C ,  8-H ) :   0.9208 B(  3-C ,  5-C ) :   1.4438 B(  3-C , 10-H ) :   0.9182
B(  4-C ,  5-C ) :   1.3809 B(  4-C , 11-Pd) :   0.8626 B(  5-C ,  9-H ) :   0.9097
B( 11-Pd, 12-O ) :   0.3747 B( 11-Pd, 13-O ) :   0.5523 B( 11-Pd, 14-O ) :   0.3689
B( 12-O , 13-O ) :   0.1160 B( 12-O , 18-C ) :   1.5834 B( 13-O , 18-C ) :   1.4382
B( 14-O , 15-C ) :   1.7785 B( 15-C , 16-O ) :   1.1843 B( 15-C , 20-H ) :   0.8689
B( 16-O , 17-H ) :   0.7360 B( 18-C , 19-H ) :   0.8857

Dispersion correction           -0.013133258
FINAL SINGLE POINT ENERGY      -737.041489341192
Dispersion correction            ... done

DIPOLE MOMENT
-------------
                                X             Y             Z
Electronic contribution:     52.25036      39.73049      -7.20807
Nuclear contribution   :    -54.01731     -38.87396       8.84042
                        -----------------------------------------
Total Dipole Moment    :     -1.76696       0.85653       1.63235
                        -----------------------------------------
Magnitude (a.u.)       :      2.55350
Magnitude (Debye)      :      6.49048

Rotational constants in cm-1:     0.028995     0.016815     0.012553
Rotational constants in MHz :   869.240645   504.090828   376.340024

                             ****ORCA TERMINATED NORMALLY****
TOTAL RUN TIME: 0 days 0 hours 3 minutes 47 seconds 629 msec
