                         Program Version 5.0.3 -  RELEASE  -
|  1> ! EnGrad PBEh-3c
|  2> %output
|  3> xyzfile=True
|  4> end
|  5> %scf
|  6> maxiter 250
|  7> end
|  8> %output
|  9> Print[P_Hirshfeld] = 1
| 10> end
| 11> % maxcore
| 12> 4000
| 13> *xyz 0 1
| 14> C   -1.40752589   0.13840959  -0.75411997
| 15> C   -2.22834663  -0.88555784  -1.18637985
| 16> C   -1.98228750  -2.18223195  -0.77537122
| 17> C   -0.94277551  -2.46633573   0.10292247
| 18> C   -0.26913444  -0.08729788   0.09441496
| 19> C   -0.14352258  -1.44448075   0.57359908
| 20> H   -1.59878341   1.13630562  -1.16534032
| 21> H   -3.03109943  -0.67186952  -1.86852360
| 22> H   -2.61470873  -2.97517215  -1.12134463
| 23> H    0.67525988  -1.69879834   1.25119528
| 24> H   -0.74211307  -3.48045432   0.39798506
| 25> Pd   1.38729093   0.99762999  -0.17530743
| 26> O    3.48664201   1.45935357  -0.92891214
| 27> O    2.69910448  -0.53239674  -0.52223857
| 28> O    0.33287451   2.75601364   0.18955884
| 29> C   -0.15479163   2.82873620   1.30276795
| 30> O    0.03742024   1.94106635   2.35920040
| 31> H   -0.86949650   1.55201270   2.83601950
| 32> C    3.63825910   0.22210073  -0.91606956
| 33> H    4.58405663  -0.23919552  -1.23409364
| 34> H   -0.85813586   3.63154530   1.53953060
| 35> *
| 36>
| 37>                          ****END OF INPUT****

CARTESIAN COORDINATES (ANGSTROEM)
---------------------------------
  C     -1.407526    0.138410   -0.754120
  C     -2.228347   -0.885558   -1.186380
  C     -1.982287   -2.182232   -0.775371
  C     -0.942776   -2.466336    0.102922
  C     -0.269134   -0.087298    0.094415
  C     -0.143523   -1.444481    0.573599
  H     -1.598783    1.136306   -1.165340
  H     -3.031099   -0.671870   -1.868524
  H     -2.614709   -2.975172   -1.121345
  H      0.675260   -1.698798    1.251195
  H     -0.742113   -3.480454    0.397985
  Pd     1.387291    0.997630   -0.175307
  O      3.486642    1.459354   -0.928912
  O      2.699104   -0.532397   -0.522239
  O      0.332875    2.756014    0.189559
  C     -0.154792    2.828736    1.302768
  O      0.037420    1.941066    2.359200
  H     -0.869496    1.552013    2.836019
  C      3.638259    0.222101   -0.916070
  H      4.584057   -0.239196   -1.234094
  H     -0.858136    3.631545    1.539531

 Total Charge           Charge          ....    0
 Multiplicity           Mult            ....    1
 Number of Electrons    NEL             ....  106
 Basis Dimension        Dim             ....  227

ORBITAL ENERGIES
----------------

  NO   OCC          E(Eh)            E(eV)
   0   2.0000     -19.598378      -533.2990
   1   2.0000     -19.594653      -533.1976
   2   2.0000     -19.489633      -530.3399
   3   2.0000     -19.474420      -529.9259
   4   2.0000     -10.657694      -290.0106
   5   2.0000     -10.550456      -287.0925
   6   2.0000     -10.457882      -284.5734
   7   2.0000     -10.443171      -284.1731
   8   2.0000     -10.439048      -284.0609
   9   2.0000     -10.437225      -284.0113
  10   2.0000     -10.436116      -283.9811
  11   2.0000     -10.434305      -283.9319
  12   2.0000      -3.648148       -99.2712
  13   2.0000      -2.295868       -62.4737
  14   2.0000      -2.292635       -62.3858
  15   2.0000      -2.260725       -61.5175
  16   2.0000      -1.265452       -34.4347
  17   2.0000      -1.182843       -32.1868
  18   2.0000      -1.177743       -32.0480
  19   2.0000      -1.071659       -29.1613
  20   2.0000      -0.937543       -25.5119
  21   2.0000      -0.826849       -22.4997
  22   2.0000      -0.812596       -22.1119
  23   2.0000      -0.763526       -20.7766
  24   2.0000      -0.679291       -18.4844
  25   2.0000      -0.663434       -18.0530
  26   2.0000      -0.661917       -18.0117
  27   2.0000      -0.655752       -17.8439
  28   2.0000      -0.619773       -16.8649
  29   2.0000      -0.575771       -15.6675
  30   2.0000      -0.565033       -15.3753
  31   2.0000      -0.545608       -14.8467
  32   2.0000      -0.516237       -14.0475
  33   2.0000      -0.503542       -13.7021
  34   2.0000      -0.497995       -13.5511
  35   2.0000      -0.493539       -13.4299
  36   2.0000      -0.486022       -13.2253
  37   2.0000      -0.470568       -12.8048
  38   2.0000      -0.448751       -12.2111
  39   2.0000      -0.440786       -11.9944
  40   2.0000      -0.437350       -11.9009
  41   2.0000      -0.413597       -11.2545
  42   2.0000      -0.386279       -10.5112
  43   2.0000      -0.381155       -10.3718
  44   2.0000      -0.374379       -10.1874
  45   2.0000      -0.358057        -9.7432
  46   2.0000      -0.347820        -9.4647
  47   2.0000      -0.331642        -9.0244
  48   2.0000      -0.317725        -8.6457
  49   2.0000      -0.309289        -8.4162
  50   2.0000      -0.288712        -7.8562
  51   2.0000      -0.282912        -7.6984
  52   2.0000      -0.257350        -7.0028
  53   0.0000      -0.055505        -1.5104
  54   0.0000      -0.035977        -0.9790
  55   0.0000       0.017232         0.4689
  56   0.0000       0.030768         0.8372
  57   0.0000       0.033956         0.9240

MULLIKEN ATOMIC CHARGES
-----------------------
   0 C :   -0.255943
   1 C :   -0.197703
   2 C :   -0.240745
   3 C :   -0.197359
   4 C :   -0.170840
   5 C :   -0.243644
   6 H :    0.214219
   7 H :    0.215985
   8 H :    0.213484
   9 H :    0.233785
  10 H :    0.218383
  11 Pd:    0.370956
  12 O :   -0.467917
  13 O :   -0.483332
  14 O :   -0.343737
  15 C :    0.424512
  16 O :   -0.566018
  17 H :    0.473740
  18 C :    0.382031
  19 H :    0.184399
  20 H :    0.235746
Sum of atomic charges:   -0.0000000

LOEWDIN ATOMIC CHARGES
----------------------
   0 C :   -0.133383
   1 C :   -0.141573
   2 C :   -0.140068
   3 C :   -0.136471
   4 C :   -0.031655
   5 C :   -0.107748
   6 H :    0.139829
   7 H :    0.135284
   8 H :    0.132188
   9 H :    0.150830
  10 H :    0.136963
  11 Pd:   -0.299034
  12 O :   -0.212845
  13 O :   -0.170814
  14 O :   -0.015516
  15 C :    0.230327
  16 O :   -0.299657
  17 H :    0.384588
  18 C :    0.137462
  19 H :    0.109106
  20 H :    0.132187

  Mayer bond orders larger than 0.100000
B(  0-C ,  1-C ) :   1.4251 B(  0-C ,  4-C ) :   1.3593 B(  0-C ,  6-H ) :   0.9125
B(  1-C ,  2-C ) :   1.4416 B(  1-C ,  7-H ) :   0.9183 B(  2-C ,  3-C ) :   1.4085
B(  2-C ,  8-H ) :   0.9199 B(  3-C ,  5-C ) :   1.4487 B(  3-C , 10-H ) :   0.9180
B(  4-C ,  5-C ) :   1.3625 B(  4-C , 11-Pd) :   0.9089 B(  5-C ,  9-H ) :   0.9106
B( 11-Pd, 12-O ) :   0.3558 B( 11-Pd, 13-O ) :   0.5574 B( 11-Pd, 14-O ) :   0.3605
B( 12-O , 13-O ) :   0.1155 B( 12-O , 18-C ) :   1.6056 B( 13-O , 18-C ) :   1.4247
B( 14-O , 15-C ) :   1.8129 B( 15-C , 16-O ) :   1.1173 B( 15-C , 20-H ) :   0.8677
B( 16-O , 17-H ) :   0.7200 B( 18-C , 19-H ) :   0.8840

Dispersion correction           -0.012946606
FINAL SINGLE POINT ENERGY      -737.087552947315
Dispersion correction            ... done

DIPOLE MOMENT
-------------
                                X             Y             Z
Electronic contribution:     50.33654      38.21958      -6.64557
Nuclear contribution   :    -52.05113     -37.28909       8.14797
                        -----------------------------------------
Total Dipole Moment    :     -1.71460       0.93049       1.50240
                        -----------------------------------------
Magnitude (a.u.)       :      2.46229
Magnitude (Debye)      :      6.25865

Rotational constants in cm-1:     0.028730     0.017050     0.012661
Rotational constants in MHz :   861.307091   511.157571   379.562360

                             ****ORCA TERMINATED NORMALLY****
TOTAL RUN TIME: 0 days 0 hours 3 minutes 47 seconds 123 msec
