                         Program Version 5.0.3 -  RELEASE  -
|  1> ! EnGrad PBEh-3c
|  2> %output
|  3> xyzfile=True
|  4> end
|  5> %scf
|  6> maxiter 250
|  7> end
|  8> %output
|  9> Print[P_Hirshfeld] = 1
| 10> end
| 11> % maxcore
| 12> 4000
| 13> *xyz 0 1
| 14> C   -1.40190248   0.14606558  -0.72464201
| 15> C   -2.22020806  -0.89399056  -1.18822891
| 16> C   -1.96159073  -2.18879376  -0.79456724
| 17> C   -0.94416429  -2.46151374   0.10482686
| 18> C   -0.25176760  -0.07212110   0.10043560
| 19> C   -0.14763625  -1.41865828   0.58574092
| 20> H   -1.61051301   1.13842344  -1.13043825
| 21> H   -3.01444837  -0.67512762  -1.88981216
| 22> H   -2.57583698  -2.98530581  -1.16233051
| 23> H    0.65551370  -1.68433691   1.27503893
| 24> H   -0.72147687  -3.48466837   0.38677417
| 25> Pd   1.34203071   0.96575662  -0.15527654
| 26> O    3.47350286   1.44672366  -0.95699057
| 27> O    2.68407433  -0.53448444  -0.49727753
| 28> O    0.34144655   2.76446984   0.21591948
| 29> C   -0.16658129   2.81236615   1.32477408
| 30> O   -0.06772597   1.91083490   2.39622359
| 31> H   -0.75203684   1.60587491   2.74557695
| 32> C    3.61582653   0.21648106  -0.92516750
| 33> H    4.56387109  -0.25630086  -1.25040004
| 34> H   -0.84432163   3.64714303   1.53928033
| 35> *
| 36>
| 37>                          ****END OF INPUT****

CARTESIAN COORDINATES (ANGSTROEM)
---------------------------------
  C     -1.401902    0.146066   -0.724642
  C     -2.220208   -0.893991   -1.188229
  C     -1.961591   -2.188794   -0.794567
  C     -0.944164   -2.461514    0.104827
  C     -0.251768   -0.072121    0.100436
  C     -0.147636   -1.418658    0.585741
  H     -1.610513    1.138423   -1.130438
  H     -3.014448   -0.675128   -1.889812
  H     -2.575837   -2.985306   -1.162331
  H      0.655514   -1.684337    1.275039
  H     -0.721477   -3.484668    0.386774
  Pd     1.342031    0.965757   -0.155277
  O      3.473503    1.446724   -0.956991
  O      2.684074   -0.534484   -0.497278
  O      0.341447    2.764470    0.215919
  C     -0.166581    2.812366    1.324774
  O     -0.067726    1.910835    2.396224
  H     -0.752037    1.605875    2.745577
  C      3.615827    0.216481   -0.925167
  H      4.563871   -0.256301   -1.250400
  H     -0.844322    3.647143    1.539280

 Total Charge           Charge          ....    0
 Multiplicity           Mult            ....    1
 Number of Electrons    NEL             ....  106
 Basis Dimension        Dim             ....  227

ORBITAL ENERGIES
----------------

  NO   OCC          E(Eh)            E(eV)
   0   2.0000     -19.608022      -533.5614
   1   2.0000     -19.577520      -532.7314
   2   2.0000     -19.487092      -530.2707
   3   2.0000     -19.472144      -529.8640
   4   2.0000     -10.669980      -290.3449
   5   2.0000     -10.549046      -287.0541
   6   2.0000     -10.460365      -284.6410
   7   2.0000     -10.447104      -284.2802
   8   2.0000     -10.441758      -284.1347
   9   2.0000     -10.441723      -284.1337
  10   2.0000     -10.440052      -284.0883
  11   2.0000     -10.435211      -283.9565
  12   2.0000      -3.653248       -99.4099
  13   2.0000      -2.302972       -62.6670
  14   2.0000      -2.296709       -62.4966
  15   2.0000      -2.266102       -61.6638
  16   2.0000      -1.280409       -34.8417
  17   2.0000      -1.224867       -33.3303
  18   2.0000      -1.181002       -32.1367
  19   2.0000      -1.071030       -29.1442
  20   2.0000      -0.939099       -25.5542
  21   2.0000      -0.824109       -22.4252
  22   2.0000      -0.820411       -22.3245
  23   2.0000      -0.810632       -22.0584
  24   2.0000      -0.708578       -19.2814
  25   2.0000      -0.667732       -18.1699
  26   2.0000      -0.663293       -18.0491
  27   2.0000      -0.652500       -17.7554
  28   2.0000      -0.626856       -17.0576
  29   2.0000      -0.580704       -15.8017
  30   2.0000      -0.569536       -15.4979
  31   2.0000      -0.544557       -14.8181
  32   2.0000      -0.516517       -14.0551
  33   2.0000      -0.510271       -13.8852
  34   2.0000      -0.503911       -13.7121
  35   2.0000      -0.499978       -13.6051
  36   2.0000      -0.484861       -13.1937
  37   2.0000      -0.468031       -12.7358
  38   2.0000      -0.458402       -12.4737
  39   2.0000      -0.450528       -12.2595
  40   2.0000      -0.446863       -12.1598
  41   2.0000      -0.418159       -11.3787
  42   2.0000      -0.392465       -10.6795
  43   2.0000      -0.384411       -10.4604
  44   2.0000      -0.379511       -10.3270
  45   2.0000      -0.360095        -9.7987
  46   2.0000      -0.350718        -9.5435
  47   2.0000      -0.336246        -9.1497
  48   2.0000      -0.321901        -8.7594
  49   2.0000      -0.310417        -8.4469
  50   2.0000      -0.292050        -7.9471
  51   2.0000      -0.281308        -7.6548
  52   2.0000      -0.259289        -7.0556
  53   0.0000      -0.060648        -1.6503
  54   0.0000      -0.037922        -1.0319
  55   0.0000       0.023318         0.6345
  56   0.0000       0.026740         0.7276
  57   0.0000       0.053667         1.4604

MULLIKEN ATOMIC CHARGES
-----------------------
   0 C :   -0.256619
   1 C :   -0.203843
   2 C :   -0.233133
   3 C :   -0.203517
   4 C :   -0.165694
   5 C :   -0.239070
   6 H :    0.213378
   7 H :    0.217843
   8 H :    0.215133
   9 H :    0.234137
  10 H :    0.220504
  11 Pd:    0.375939
  12 O :   -0.461602
  13 O :   -0.490774
  14 O :   -0.336951
  15 C :    0.428469
  16 O :   -0.569589
  17 H :    0.457184
  18 C :    0.375709
  19 H :    0.181671
  20 H :    0.240826
Sum of atomic charges:    0.0000000

LOEWDIN ATOMIC CHARGES
----------------------
   0 C :   -0.131395
   1 C :   -0.138994
   2 C :   -0.141686
   3 C :   -0.134146
   4 C :   -0.028525
   5 C :   -0.103030
   6 H :    0.139944
   7 H :    0.136520
   8 H :    0.133071
   9 H :    0.152062
  10 H :    0.138415
  11 Pd:   -0.286582
  12 O :   -0.215391
  13 O :   -0.178798
  14 O :   -0.012385
  15 C :    0.261431
  16 O :   -0.281837
  17 H :    0.317404
  18 C :    0.130717
  19 H :    0.107329
  20 H :    0.135877

  Mayer bond orders larger than 0.100000
B(  0-C ,  1-C ) :   1.4206 B(  0-C ,  4-C ) :   1.3554 B(  0-C ,  6-H ) :   0.9123
B(  1-C ,  2-C ) :   1.4432 B(  1-C ,  7-H ) :   0.9180 B(  2-C ,  3-C ) :   1.4092
B(  2-C ,  8-H ) :   0.9189 B(  3-C ,  5-C ) :   1.4443 B(  3-C , 10-H ) :   0.9177
B(  4-C ,  5-C ) :   1.3580 B(  4-C , 11-Pd) :   0.9496 B(  5-C ,  9-H ) :   0.9104
B( 11-Pd, 12-O ) :   0.3348 B( 11-Pd, 13-O ) :   0.5576 B( 11-Pd, 14-O ) :   0.3547
B( 12-O , 13-O ) :   0.1149 B( 12-O , 18-C ) :   1.6316 B( 13-O , 18-C ) :   1.4115
B( 14-O , 15-C ) :   1.8331 B( 15-C , 16-O ) :   1.0839 B( 15-C , 20-H ) :   0.8680
B( 16-O , 17-H ) :   0.7480 B( 18-C , 19-H ) :   0.8822

Dispersion correction           -0.013101950
FINAL SINGLE POINT ENERGY      -737.067768824272
Dispersion correction            ... done

DIPOLE MOMENT
-------------
                                X             Y             Z
Electronic contribution:     48.61912      36.89271      -6.08826
Nuclear contribution   :    -50.29589     -35.92294       7.44805
                        -----------------------------------------
Total Dipole Moment    :     -1.67677       0.96977       1.35980
                        -----------------------------------------
Magnitude (a.u.)       :      2.36665
Magnitude (Debye)      :      6.01556

Rotational constants in cm-1:     0.028529     0.017348     0.012777
Rotational constants in MHz :   855.282151   520.070184   383.049059

                             ****ORCA TERMINATED NORMALLY****
TOTAL RUN TIME: 0 days 0 hours 3 minutes 43 seconds 349 msec
