                         Program Version 5.0.3 -  RELEASE  -
|  1> ! EnGrad PBEh-3c
|  2> %output
|  3> xyzfile=True
|  4> end
|  5> %scf
|  6> maxiter 250
|  7> end
|  8> %output
|  9> Print[P_Hirshfeld] = 1
| 10> end
| 11> % maxcore
| 12> 4000
| 13> *xyz 0 1
| 14> C   -1.38197839   0.15579657  -0.71156086
| 15> C   -2.21346580  -0.89308082  -1.17984380
| 16> C   -1.95848613  -2.19383270  -0.79873959
| 17> C   -0.94726932  -2.44946606   0.11002502
| 18> C   -0.25683221  -0.09770422   0.08275302
| 19> C   -0.13883089  -1.39498307   0.58396968
| 20> H   -1.60879957   1.13629832  -1.11753507
| 21> H   -3.01203131  -0.67586681  -1.89610466
| 22> H   -2.56741772  -2.99482257  -1.17871684
| 23> H    0.64890474  -1.67620861   1.27686152
| 24> H   -0.71715813  -3.48631930   0.38618872
| 25> Pd   1.32872230   0.95491625  -0.15049481
| 26> O    3.46889536   1.44434612  -0.96291194
| 27> O    2.67785537  -0.54032796  -0.49177603
| 28> O    0.34488396   2.75420113   0.25948695
| 29> C   -0.19416139   2.78498868   1.35584582
| 30> O   -0.01244733   1.95734560   2.32729029
| 31> H   -0.78863458   1.60245982   2.74535334
| 32> C    3.60406899   0.21680979  -0.92519679
| 33> H    4.55586159  -0.26054736  -1.25461721
| 34> H   -0.83789618   3.65426883   1.53960539
| 35> *
| 36>
| 37>                          ****END OF INPUT****

CARTESIAN COORDINATES (ANGSTROEM)
---------------------------------
  C     -1.381978    0.155797   -0.711561
  C     -2.213466   -0.893081   -1.179844
  C     -1.958486   -2.193833   -0.798740
  C     -0.947269   -2.449466    0.110025
  C     -0.256832   -0.097704    0.082753
  C     -0.138831   -1.394983    0.583970
  H     -1.608800    1.136298   -1.117535
  H     -3.012031   -0.675867   -1.896105
  H     -2.567418   -2.994823   -1.178717
  H      0.648905   -1.676209    1.276862
  H     -0.717158   -3.486319    0.386189
  Pd     1.328722    0.954916   -0.150495
  O      3.468895    1.444346   -0.962912
  O      2.677855   -0.540328   -0.491776
  O      0.344884    2.754201    0.259487
  C     -0.194161    2.784989    1.355846
  O     -0.012447    1.957346    2.327290
  H     -0.788635    1.602460    2.745353
  C      3.604069    0.216810   -0.925197
  H      4.555862   -0.260547   -1.254617
  H     -0.837896    3.654269    1.539605

 Total Charge           Charge          ....    0
 Multiplicity           Mult            ....    1
 Number of Electrons    NEL             ....  106
 Basis Dimension        Dim             ....  227

ORBITAL ENERGIES
----------------

  NO   OCC          E(Eh)            E(eV)
   0   2.0000     -19.604628      -533.4691
   1   2.0000     -19.584546      -532.9226
   2   2.0000     -19.482104      -530.1350
   3   2.0000     -19.467609      -529.7406
   4   2.0000     -10.652767      -289.8765
   5   2.0000     -10.544834      -286.9395
   6   2.0000     -10.454245      -284.4745
   7   2.0000     -10.445350      -284.2324
   8   2.0000     -10.444495      -284.2092
   9   2.0000     -10.442615      -284.1580
  10   2.0000     -10.439581      -284.0754
  11   2.0000     -10.435760      -283.9715
  12   2.0000      -3.646650       -99.2304
  13   2.0000      -2.296542       -62.4921
  14   2.0000      -2.289802       -62.3087
  15   2.0000      -2.259883       -61.4945
  16   2.0000      -1.299180       -35.3525
  17   2.0000      -1.213442       -33.0194
  18   2.0000      -1.176084       -32.0029
  19   2.0000      -1.067649       -29.0522
  20   2.0000      -0.942716       -25.6526
  21   2.0000      -0.827289       -22.5117
  22   2.0000      -0.822084       -22.3701
  23   2.0000      -0.801123       -21.7997
  24   2.0000      -0.714894       -19.4533
  25   2.0000      -0.671820       -18.2811
  26   2.0000      -0.661429       -17.9984
  27   2.0000      -0.646595       -17.5947
  28   2.0000      -0.620594       -16.8872
  29   2.0000      -0.596146       -16.2220
  30   2.0000      -0.572882       -15.5889
  31   2.0000      -0.540249       -14.7009
  32   2.0000      -0.512138       -13.9360
  33   2.0000      -0.506547       -13.7838
  34   2.0000      -0.503033       -13.6882
  35   2.0000      -0.497591       -13.5401
  36   2.0000      -0.480610       -13.0781
  37   2.0000      -0.465470       -12.6661
  38   2.0000      -0.456981       -12.4351
  39   2.0000      -0.452036       -12.3005
  40   2.0000      -0.447059       -12.1651
  41   2.0000      -0.421598       -11.4723
  42   2.0000      -0.394985       -10.7481
  43   2.0000      -0.378661       -10.3039
  44   2.0000      -0.375374       -10.2144
  45   2.0000      -0.354997        -9.6600
  46   2.0000      -0.346026        -9.4158
  47   2.0000      -0.332060        -9.0358
  48   2.0000      -0.316955        -8.6248
  49   2.0000      -0.304673        -8.2906
  50   2.0000      -0.287796        -7.8313
  51   2.0000      -0.278708        -7.5840
  52   2.0000      -0.261344        -7.1115
  53   0.0000      -0.046979        -1.2784
  54   0.0000      -0.026549        -0.7224
  55   0.0000       0.021232         0.5777
  56   0.0000       0.029381         0.7995
  57   0.0000       0.048828         1.3287

MULLIKEN ATOMIC CHARGES
-----------------------
   0 C :   -0.253116
   1 C :   -0.219776
   2 C :   -0.222090
   3 C :   -0.219528
   4 C :   -0.162439
   5 C :   -0.233080
   6 H :    0.220538
   7 H :    0.216551
   8 H :    0.216242
   9 H :    0.235492
  10 H :    0.219010
  11 Pd:    0.369113
  12 O :   -0.458915
  13 O :   -0.495738
  14 O :   -0.364670
  15 C :    0.401177
  16 O :   -0.517652
  17 H :    0.491247
  18 C :    0.372449
  19 H :    0.176291
  20 H :    0.228893
Sum of atomic charges:    0.0000000

LOEWDIN ATOMIC CHARGES
----------------------
   0 C :   -0.133177
   1 C :   -0.133875
   2 C :   -0.146633
   3 C :   -0.129383
   4 C :   -0.031282
   5 C :   -0.106429
   6 H :    0.144261
   7 H :    0.135399
   8 H :    0.134044
   9 H :    0.154030
  10 H :    0.137373
  11 Pd:   -0.293367
  12 O :   -0.214772
  13 O :   -0.184242
  14 O :   -0.037661
  15 C :    0.188610
  16 O :   -0.211156
  17 H :    0.370010
  18 C :    0.127039
  19 H :    0.104330
  20 H :    0.126882

  Mayer bond orders larger than 0.100000
B(  0-C ,  1-C ) :   1.4171 B(  0-C ,  4-C ) :   1.3603 B(  0-C ,  6-H ) :   0.9101
B(  1-C ,  2-C ) :   1.4421 B(  1-C ,  7-H ) :   0.9183 B(  2-C ,  3-C ) :   1.4152
B(  2-C ,  8-H ) :   0.9188 B(  3-C ,  5-C ) :   1.4334 B(  3-C , 10-H ) :   0.9181
B(  4-C ,  5-C ) :   1.3695 B(  4-C , 11-Pd) :   0.9562 B(  5-C ,  9-H ) :   0.9097
B( 11-Pd, 12-O ) :   0.3246 B( 11-Pd, 13-O ) :   0.5504 B( 11-Pd, 14-O ) :   0.3731
B( 12-O , 13-O ) :   0.1155 B( 12-O , 18-C ) :   1.6438 B( 13-O , 18-C ) :   1.4091
B( 14-O , 15-C ) :   1.7775 B( 15-C , 16-O ) :   1.1947 B( 15-C , 20-H ) :   0.8735
B( 16-O , 17-H ) :   0.7102 B( 18-C , 19-H ) :   0.8818

Dispersion correction           -0.013143871
FINAL SINGLE POINT ENERGY      -737.106946022969
Dispersion correction            ... done

DIPOLE MOMENT
-------------
                                X             Y             Z
Electronic contribution:     47.73148      36.25991      -5.56599
Nuclear contribution   :    -49.60570     -35.39016       7.22383
                        -----------------------------------------
Total Dipole Moment    :     -1.87422       0.86975       1.65783
                        -----------------------------------------
Magnitude (a.u.)       :      2.64907
Magnitude (Debye)      :      6.73341

Rotational constants in cm-1:     0.028836     0.017542     0.012853
Rotational constants in MHz :   864.480530   525.891551   385.316631

                             ****ORCA TERMINATED NORMALLY****
TOTAL RUN TIME: 0 days 0 hours 3 minutes 54 seconds 417 msec
