                         Program Version 5.0.3 -  RELEASE  -
|  1> ! EnGrad PBEh-3c
|  2> %output
|  3> xyzfile=True
|  4> end
|  5> %scf
|  6> maxiter 250
|  7> end
|  8> %output
|  9> Print[P_Hirshfeld] = 1
| 10> end
| 11> % maxcore
| 12> 4000
| 13> *xyz 0 1
| 14> C   -1.37848229   0.15734690  -0.70279098
| 15> C   -2.20365850  -0.88641106  -1.17475130
| 16> C   -1.94991821  -2.19754988  -0.80662912
| 17> C   -0.94253033  -2.43938999   0.11689037
| 18> C   -0.26090544  -0.11122172   0.07582286
| 19> C   -0.13848082  -1.38853459   0.58718182
| 20> H   -1.61089758   1.13759651  -1.09775509
| 21> H   -3.00107776  -0.67726730  -1.90334504
| 22> H   -2.54830817  -3.00452108  -1.20338686
| 23> H    0.63950938  -1.66538285   1.28585188
| 24> H   -0.70839308  -3.48262798   0.38239759
| 25> Pd   1.31764538   0.94923730  -0.14278125
| 26> O    3.45807068   1.44031661  -0.97541896
| 27> O    2.67002528  -0.54624336  -0.48173296
| 28> O    0.34824587   2.74417429   0.29652598
| 29> C   -0.21421496   2.78653805   1.36175750
| 30> O   -0.00754349   1.96019620   2.30865436
| 31> H   -0.77687416   1.61686359   2.72078080
| 32> C    3.59065696   0.21065504  -0.92688700
| 33> H    4.54003267  -0.26821925  -1.26188124
| 34> H   -0.83174098   3.66200204   1.54192736
| 35> *
| 36>
| 37>                          ****END OF INPUT****

CARTESIAN COORDINATES (ANGSTROEM)
---------------------------------
  C     -1.378482    0.157347   -0.702791
  C     -2.203658   -0.886411   -1.174751
  C     -1.949918   -2.197550   -0.806629
  C     -0.942530   -2.439390    0.116890
  C     -0.260905   -0.111222    0.075823
  C     -0.138481   -1.388535    0.587182
  H     -1.610898    1.137597   -1.097755
  H     -3.001078   -0.677267   -1.903345
  H     -2.548308   -3.004521   -1.203387
  H      0.639509   -1.665383    1.285852
  H     -0.708393   -3.482628    0.382398
  Pd     1.317645    0.949237   -0.142781
  O      3.458071    1.440317   -0.975419
  O      2.670025   -0.546243   -0.481733
  O      0.348246    2.744174    0.296526
  C     -0.214215    2.786538    1.361757
  O     -0.007543    1.960196    2.308654
  H     -0.776874    1.616864    2.720781
  C      3.590657    0.210655   -0.926887
  H      4.540033   -0.268219   -1.261881
  H     -0.831741    3.662002    1.541927

 Total Charge           Charge          ....    0
 Multiplicity           Mult            ....    1
 Number of Electrons    NEL             ....  106
 Basis Dimension        Dim             ....  227

ORBITAL ENERGIES
----------------

  NO   OCC          E(Eh)            E(eV)
   0   2.0000     -19.603227      -533.4309
   1   2.0000     -19.579846      -532.7947
   2   2.0000     -19.481352      -530.1145
   3   2.0000     -19.466041      -529.6979
   4   2.0000     -10.646696      -289.7113
   5   2.0000     -10.543857      -286.9129
   6   2.0000     -10.452630      -284.4305
   7   2.0000     -10.445534      -284.2374
   8   2.0000     -10.444011      -284.1960
   9   2.0000     -10.443038      -284.1695
  10   2.0000     -10.437657      -284.0231
  11   2.0000     -10.437136      -284.0089
  12   2.0000      -3.645266       -99.1927
  13   2.0000      -2.295379       -62.4604
  14   2.0000      -2.288331       -62.2687
  15   2.0000      -2.258672       -61.4616
  16   2.0000      -1.311091       -35.6766
  17   2.0000      -1.218074       -33.1455
  18   2.0000      -1.173729       -31.9388
  19   2.0000      -1.066345       -29.0167
  20   2.0000      -0.945905       -25.7394
  21   2.0000      -0.828754       -22.5515
  22   2.0000      -0.824341       -22.4315
  23   2.0000      -0.802350       -21.8331
  24   2.0000      -0.722162       -19.6510
  25   2.0000      -0.672904       -18.3106
  26   2.0000      -0.662506       -18.0277
  27   2.0000      -0.645474       -17.5642
  28   2.0000      -0.622653       -16.9433
  29   2.0000      -0.602663       -16.3993
  30   2.0000      -0.574479       -15.6324
  31   2.0000      -0.539000       -14.6669
  32   2.0000      -0.510873       -13.9016
  33   2.0000      -0.508056       -13.8249
  34   2.0000      -0.502698       -13.6791
  35   2.0000      -0.499630       -13.5956
  36   2.0000      -0.479075       -13.0363
  37   2.0000      -0.466656       -12.6984
  38   2.0000      -0.457217       -12.4415
  39   2.0000      -0.453812       -12.3489
  40   2.0000      -0.448173       -12.1954
  41   2.0000      -0.424659       -11.5556
  42   2.0000      -0.394532       -10.7358
  43   2.0000      -0.377687       -10.2774
  44   2.0000      -0.374936       -10.2025
  45   2.0000      -0.354055        -9.6343
  46   2.0000      -0.344651        -9.3784
  47   2.0000      -0.331519        -9.0211
  48   2.0000      -0.315542        -8.5863
  49   2.0000      -0.303424        -8.2566
  50   2.0000      -0.287263        -7.8168
  51   2.0000      -0.279707        -7.6112
  52   2.0000      -0.261363        -7.1120
  53   0.0000      -0.043831        -1.1927
  54   0.0000      -0.022195        -0.6039
  55   0.0000       0.021897         0.5959
  56   0.0000       0.029751         0.8096
  57   0.0000       0.050058         1.3622

MULLIKEN ATOMIC CHARGES
-----------------------
   0 C :   -0.249628
   1 C :   -0.225728
   2 C :   -0.220850
   3 C :   -0.225665
   4 C :   -0.157767
   5 C :   -0.227333
   6 H :    0.221458
   7 H :    0.215585
   8 H :    0.217420
   9 H :    0.236578
  10 H :    0.218166
  11 Pd:    0.371101
  12 O :   -0.460865
  13 O :   -0.496168
  14 O :   -0.358671
  15 C :    0.381964
  16 O :   -0.504292
  17 H :    0.487025
  18 C :    0.371708
  19 H :    0.175209
  20 H :    0.230753
Sum of atomic charges:   -0.0000000

LOEWDIN ATOMIC CHARGES
----------------------
   0 C :   -0.135238
   1 C :   -0.131378
   2 C :   -0.148078
   3 C :   -0.126928
   4 C :   -0.027349
   5 C :   -0.108194
   6 H :    0.145464
   7 H :    0.134815
   8 H :    0.134793
   9 H :    0.155364
  10 H :    0.136876
  11 Pd:   -0.292212
  12 O :   -0.218392
  13 O :   -0.185209
  14 O :   -0.028302
  15 C :    0.167095
  16 O :   -0.195912
  17 H :    0.364780
  18 C :    0.127125
  19 H :    0.103624
  20 H :    0.127256

  Mayer bond orders larger than 0.100000
B(  0-C ,  1-C ) :   1.4197 B(  0-C ,  4-C ) :   1.3608 B(  0-C ,  6-H ) :   0.9099
B(  1-C ,  2-C ) :   1.4400 B(  1-C ,  7-H ) :   0.9185 B(  2-C ,  3-C ) :   1.4159
B(  2-C ,  8-H ) :   0.9187 B(  3-C ,  5-C ) :   1.4314 B(  3-C , 10-H ) :   0.9183
B(  4-C ,  5-C ) :   1.3748 B(  4-C , 11-Pd) :   0.9597 B(  5-C ,  9-H ) :   0.9095
B( 11-Pd, 12-O ) :   0.3210 B( 11-Pd, 13-O ) :   0.5469 B( 11-Pd, 14-O ) :   0.3692
B( 12-O , 13-O ) :   0.1160 B( 12-O , 18-C ) :   1.6450 B( 13-O , 18-C ) :   1.4106
B( 14-O , 15-C ) :   1.7869 B( 15-C , 16-O ) :   1.2063 B( 15-C , 20-H ) :   0.8730
B( 16-O , 17-H ) :   0.7154 B( 18-C , 19-H ) :   0.8817

Dispersion correction           -0.013179109
FINAL SINGLE POINT ENERGY      -737.106317948777
Dispersion correction            ... done

DIPOLE MOMENT
-------------
                                X             Y             Z
Electronic contribution:     47.23196      36.05455      -5.27501
Nuclear contribution   :    -49.15165     -35.17184       6.93460
                        -----------------------------------------
Total Dipole Moment    :     -1.91970       0.88271       1.65959
                        -----------------------------------------
Magnitude (a.u.)       :      2.68676
Magnitude (Debye)      :      6.82919

Rotational constants in cm-1:     0.028900     0.017693     0.012914
Rotational constants in MHz :   866.404067   530.435202   387.150286

                             ****ORCA TERMINATED NORMALLY****
TOTAL RUN TIME: 0 days 0 hours 3 minutes 56 seconds 571 msec
