                         Program Version 5.0.3 -  RELEASE  -
|  1> ! EnGrad PBEh-3c
|  2> %output
|  3> xyzfile=True
|  4> end
|  5> %scf
|  6> maxiter 250
|  7> end
|  8> %output
|  9> Print[P_Hirshfeld] = 1
| 10> end
| 11> % maxcore
| 12> 4000
| 13> *xyz 0 1
| 14> C   -1.38549746   0.15691113  -0.70150102
| 15> C   -2.18382076  -0.86914927  -1.16705307
| 16> C   -1.92892150  -2.19582843  -0.81702509
| 17> C   -0.92745458  -2.42471524   0.12686643
| 18> C   -0.29227357  -0.15090837   0.06793994
| 19> C   -0.13865531  -1.40150714   0.59807393
| 20> H   -1.61519001   1.14374190  -1.05833295
| 21> H   -2.97012028  -0.67831029  -1.90911828
| 22> H   -2.50611009  -3.02277228  -1.25402417
| 23> H    0.62408844  -1.64353198   1.30499018
| 24> H   -0.69175606  -3.46247729   0.37701969
| 25> Pd   1.32858254   0.96609461  -0.13254244
| 26> O    3.42664882   1.42811020  -0.99865683
| 27> O    2.65700140  -0.56176752  -0.46600144
| 28> O    0.36003567   2.71416052   0.34488013
| 29> C   -0.25114322   2.82415969   1.35792350
| 30> O    0.04623390   1.95566180   2.27197039
| 31> H   -0.80050944   1.62497863   2.70529848
| 32> C    3.56408195   0.19575423  -0.92645817
| 33> H    4.49947463  -0.28337141  -1.27504558
| 34> H   -0.82992380   3.68055269   1.55294363
| 35> *
| 36>
| 37>                          ****END OF INPUT****

CARTESIAN COORDINATES (ANGSTROEM)
---------------------------------
  C     -1.385497    0.156911   -0.701501
  C     -2.183821   -0.869149   -1.167053
  C     -1.928921   -2.195828   -0.817025
  C     -0.927455   -2.424715    0.126866
  C     -0.292274   -0.150908    0.067940
  C     -0.138655   -1.401507    0.598074
  H     -1.615190    1.143742   -1.058333
  H     -2.970120   -0.678310   -1.909118
  H     -2.506110   -3.022772   -1.254024
  H      0.624088   -1.643532    1.304990
  H     -0.691756   -3.462477    0.377020
  Pd     1.328583    0.966095   -0.132542
  O      3.426649    1.428110   -0.998657
  O      2.657001   -0.561768   -0.466001
  O      0.360036    2.714161    0.344880
  C     -0.251143    2.824160    1.357924
  O      0.046234    1.955662    2.271970
  H     -0.800509    1.624979    2.705298
  C      3.564082    0.195754   -0.926458
  H      4.499475   -0.283371   -1.275046
  H     -0.829924    3.680553    1.552944

 Total Charge           Charge          ....    0
 Multiplicity           Mult            ....    1
 Number of Electrons    NEL             ....  106
 Basis Dimension        Dim             ....  227

ORBITAL ENERGIES
----------------

  NO   OCC          E(Eh)            E(eV)
   0   2.0000     -19.598391      -533.2993
   1   2.0000     -19.574497      -532.6492
   2   2.0000     -19.481710      -530.1243
   3   2.0000     -19.465926      -529.6948
   4   2.0000     -10.638247      -289.4814
   5   2.0000     -10.542795      -286.8840
   6   2.0000     -10.449151      -284.3358
   7   2.0000     -10.442535      -284.1558
   8   2.0000     -10.439241      -284.0662
   9   2.0000     -10.438795      -284.0541
  10   2.0000     -10.438608      -284.0490
  11   2.0000     -10.431654      -283.8597
  12   2.0000      -3.639443       -99.0343
  13   2.0000      -2.287758       -62.2531
  14   2.0000      -2.283804       -62.1455
  15   2.0000      -2.252910       -61.3048
  16   2.0000      -1.306269       -35.5454
  17   2.0000      -1.202106       -32.7110
  18   2.0000      -1.173339       -31.9282
  19   2.0000      -1.066678       -29.0258
  20   2.0000      -0.951988       -25.9049
  21   2.0000      -0.833063       -22.6688
  22   2.0000      -0.824378       -22.4325
  23   2.0000      -0.776284       -21.1238
  24   2.0000      -0.720358       -19.6019
  25   2.0000      -0.672693       -18.3049
  26   2.0000      -0.663574       -18.0568
  27   2.0000      -0.646473       -17.5914
  28   2.0000      -0.621906       -16.9229
  29   2.0000      -0.599211       -16.3054
  30   2.0000      -0.576044       -15.6750
  31   2.0000      -0.538855       -14.6630
  32   2.0000      -0.510253       -13.8847
  33   2.0000      -0.508127       -13.8268
  34   2.0000      -0.501800       -13.6547
  35   2.0000      -0.500025       -13.6064
  36   2.0000      -0.479147       -13.0382
  37   2.0000      -0.474895       -12.9226
  38   2.0000      -0.456551       -12.4234
  39   2.0000      -0.448823       -12.2131
  40   2.0000      -0.440848       -11.9961
  41   2.0000      -0.427026       -11.6200
  42   2.0000      -0.391381       -10.6500
  43   2.0000      -0.371889       -10.1196
  44   2.0000      -0.370127       -10.0717
  45   2.0000      -0.351696        -9.5701
  46   2.0000      -0.340433        -9.2637
  47   2.0000      -0.327953        -8.9241
  48   2.0000      -0.309850        -8.4315
  49   2.0000      -0.300824        -8.1858
  50   2.0000      -0.288043        -7.8380
  51   2.0000      -0.279693        -7.6108
  52   2.0000      -0.259208        -7.0534
  53   0.0000      -0.044537        -1.2119
  54   0.0000      -0.018969        -0.5162
  55   0.0000       0.026768         0.7284
  56   0.0000       0.029571         0.8047
  57   0.0000       0.043308         1.1785

MULLIKEN ATOMIC CHARGES
-----------------------
   0 C :   -0.232942
   1 C :   -0.235025
   2 C :   -0.221384
   3 C :   -0.236091
   4 C :   -0.159532
   5 C :   -0.208285
   6 H :    0.221486
   7 H :    0.212986
   8 H :    0.216406
   9 H :    0.239888
  10 H :    0.216365
  11 Pd:    0.373219
  12 O :   -0.465990
  13 O :   -0.491217
  14 O :   -0.347285
  15 C :    0.355329
  16 O :   -0.505829
  17 H :    0.470862
  18 C :    0.375096
  19 H :    0.174126
  20 H :    0.247818
Sum of atomic charges:    0.0000000

LOEWDIN ATOMIC CHARGES
----------------------
   0 C :   -0.140847
   1 C :   -0.128485
   2 C :   -0.149050
   3 C :   -0.123938
   4 C :   -0.015142
   5 C :   -0.113812
   6 H :    0.146319
   7 H :    0.133052
   8 H :    0.135578
   9 H :    0.156920
  10 H :    0.135260
  11 Pd:   -0.303509
  12 O :   -0.217756
  13 O :   -0.181085
  14 O :   -0.009439
  15 C :    0.153838
  16 O :   -0.212041
  17 H :    0.366973
  18 C :    0.129329
  19 H :    0.103015
  20 H :    0.134820

  Mayer bond orders larger than 0.100000
B(  0-C ,  1-C ) :   1.4263 B(  0-C ,  4-C ) :   1.3681 B(  0-C ,  6-H ) :   0.9103
B(  1-C ,  2-C ) :   1.4358 B(  1-C ,  7-H ) :   0.9187 B(  2-C ,  3-C ) :   1.4157
B(  2-C ,  8-H ) :   0.9203 B(  3-C ,  5-C ) :   1.4317 B(  3-C , 10-H ) :   0.9182
B(  4-C ,  5-C ) :   1.3907 B(  4-C , 11-Pd) :   0.9279 B(  5-C ,  9-H ) :   0.9086
B( 11-Pd, 12-O ) :   0.3297 B( 11-Pd, 13-O ) :   0.5428 B( 11-Pd, 14-O ) :   0.3610
B( 12-O , 13-O ) :   0.1171 B( 12-O , 18-C ) :   1.6315 B( 13-O , 18-C ) :   1.4224
B( 14-O , 15-C ) :   1.8015 B( 15-C , 16-O ) :   1.1954 B( 15-C , 20-H ) :   0.8660
B( 16-O , 17-H ) :   0.7278 B( 18-C , 19-H ) :   0.8835

Dispersion correction           -0.013131005
FINAL SINGLE POINT ENERGY      -737.098761169909
Dispersion correction            ... done

DIPOLE MOMENT
-------------
                                X             Y             Z
Electronic contribution:     47.68660      37.06319      -4.87611
Nuclear contribution   :    -49.66586     -36.06656       6.49935
                        -----------------------------------------
Total Dipole Moment    :     -1.97926       0.99664       1.62323
                        -----------------------------------------
Magnitude (a.u.)       :      2.74693
Magnitude (Debye)      :      6.98215

Rotational constants in cm-1:     0.029021     0.017821     0.012983
Rotational constants in MHz :   870.027791   534.274125   389.225327

                             ****ORCA TERMINATED NORMALLY****
TOTAL RUN TIME: 0 days 0 hours 3 minutes 53 seconds 671 msec
