                         Program Version 5.0.3 -  RELEASE  -
|  1> ! EnGrad PBEh-3c
|  2> %output
|  3> xyzfile=True
|  4> end
|  5> %scf
|  6> maxiter 250
|  7> end
|  8> %output
|  9> Print[P_Hirshfeld] = 1
| 10> end
| 11> % maxcore
| 12> 4000
| 13> *xyz 0 1
| 14> C   -1.39502642   0.15518750  -0.70443385
| 15> C   -2.18584053  -0.87460368  -1.17280917
| 16> C   -1.91914635  -2.19214354  -0.82116183
| 17> C   -0.92755310  -2.43389729   0.12421208
| 18> C   -0.28585952  -0.14418545   0.07134452
| 19> C   -0.14153919  -1.41362347   0.60419495
| 20> H   -1.61643713   1.15135543  -1.04140474
| 21> H   -2.95337739  -0.67741005  -1.90860899
| 22> H   -2.48077183  -3.02390879  -1.27418240
| 23> H    0.62298383  -1.63439855   1.31761710
| 24> H   -0.68427945  -3.45142687   0.37633926
| 25> Pd   1.33009082   0.96704350  -0.12630622
| 26> O    3.41021018   1.42029063  -1.00733859
| 27> O    2.64873376  -0.56712109  -0.45920090
| 28> O    0.36722277   2.71377132   0.33158383
| 29> C   -0.24406670   2.82412482   1.36290646
| 30> O    0.04074799   1.94630361   2.28060585
| 31> H   -0.79658786   1.63000788   2.69705907
| 32> C    3.55376718   0.18854544  -0.92871342
| 33> H    4.47999313  -0.29044435  -1.28060120
| 34> H   -0.84201023   3.70124272   1.56185958
| 35> *
| 36>
| 37>                          ****END OF INPUT****

CARTESIAN COORDINATES (ANGSTROEM)
---------------------------------
  C     -1.395026    0.155188   -0.704434
  C     -2.185841   -0.874604   -1.172809
  C     -1.919146   -2.192144   -0.821162
  C     -0.927553   -2.433897    0.124212
  C     -0.285860   -0.144185    0.071345
  C     -0.141539   -1.413623    0.604195
  H     -1.616437    1.151355   -1.041405
  H     -2.953377   -0.677410   -1.908609
  H     -2.480772   -3.023909   -1.274182
  H      0.622984   -1.634399    1.317617
  H     -0.684279   -3.451427    0.376339
  Pd     1.330091    0.967043   -0.126306
  O      3.410210    1.420291   -1.007339
  O      2.648734   -0.567121   -0.459201
  O      0.367223    2.713771    0.331584
  C     -0.244067    2.824125    1.362906
  O      0.040748    1.946304    2.280606
  H     -0.796588    1.630008    2.697059
  C      3.553767    0.188545   -0.928713
  H      4.479993   -0.290444   -1.280601
  H     -0.842010    3.701243    1.561860

 Total Charge           Charge          ....    0
 Multiplicity           Mult            ....    1
 Number of Electrons    NEL             ....  106
 Basis Dimension        Dim             ....  227

ORBITAL ENERGIES
----------------

  NO   OCC          E(Eh)            E(eV)
   0   2.0000     -19.599993      -533.3429
   1   2.0000     -19.577428      -532.7289
   2   2.0000     -19.482345      -530.1415
   3   2.0000     -19.467058      -529.7256
   4   2.0000     -10.644852      -289.6611
   5   2.0000     -10.543258      -286.8966
   6   2.0000     -10.450075      -284.3610
   7   2.0000     -10.439606      -284.0761
   8   2.0000     -10.438626      -284.0495
   9   2.0000     -10.437248      -284.0120
  10   2.0000     -10.436090      -283.9804
  11   2.0000     -10.431936      -283.8674
  12   2.0000      -3.640616       -99.0662
  13   2.0000      -2.288905       -62.2843
  14   2.0000      -2.285109       -62.1810
  15   2.0000      -2.253877       -61.3311
  16   2.0000      -1.302366       -35.4392
  17   2.0000      -1.202040       -32.7092
  18   2.0000      -1.174349       -31.9557
  19   2.0000      -1.067260       -29.0416
  20   2.0000      -0.948894       -25.8207
  21   2.0000      -0.832396       -22.6506
  22   2.0000      -0.821624       -22.3575
  23   2.0000      -0.777424       -21.1548
  24   2.0000      -0.718074       -19.5398
  25   2.0000      -0.672205       -18.2916
  26   2.0000      -0.662680       -18.0324
  27   2.0000      -0.648745       -17.6532
  28   2.0000      -0.621225       -16.9044
  29   2.0000      -0.597503       -16.2589
  30   2.0000      -0.574933       -15.6447
  31   2.0000      -0.539909       -14.6917
  32   2.0000      -0.511089       -13.9074
  33   2.0000      -0.507031       -13.7970
  34   2.0000      -0.503436       -13.6992
  35   2.0000      -0.499842       -13.6014
  36   2.0000      -0.480059       -13.0631
  37   2.0000      -0.475371       -12.9355
  38   2.0000      -0.457025       -12.4363
  39   2.0000      -0.445800       -12.1308
  40   2.0000      -0.443185       -12.0597
  41   2.0000      -0.424706       -11.5568
  42   2.0000      -0.392636       -10.6842
  43   2.0000      -0.373531       -10.1643
  44   2.0000      -0.370804       -10.0901
  45   2.0000      -0.352821        -9.6008
  46   2.0000      -0.341052        -9.2805
  47   2.0000      -0.328317        -8.9340
  48   2.0000      -0.310739        -8.4556
  49   2.0000      -0.301655        -8.2085
  50   2.0000      -0.287270        -7.8170
  51   2.0000      -0.279280        -7.5996
  52   2.0000      -0.257645        -7.0109
  53   0.0000      -0.047191        -1.2841
  54   0.0000      -0.020317        -0.5528
  55   0.0000       0.027179         0.7396
  56   0.0000       0.029966         0.8154
  57   0.0000       0.046406         1.2628

MULLIKEN ATOMIC CHARGES
-----------------------
   0 C :   -0.240515
   1 C :   -0.225690
   2 C :   -0.227034
   3 C :   -0.226712
   4 C :   -0.163846
   5 C :   -0.216014
   6 H :    0.219807
   7 H :    0.214591
   8 H :    0.213831
   9 H :    0.239192
  10 H :    0.218148
  11 Pd:    0.377233
  12 O :   -0.466953
  13 O :   -0.491240
  14 O :   -0.356649
  15 C :    0.361572
  16 O :   -0.506835
  17 H :    0.473969
  18 C :    0.377026
  19 H :    0.175930
  20 H :    0.250187
Sum of atomic charges:    0.0000000

LOEWDIN ATOMIC CHARGES
----------------------
   0 C :   -0.140070
   1 C :   -0.131391
   2 C :   -0.146915
   3 C :   -0.127065
   4 C :   -0.016401
   5 C :   -0.112894
   6 H :    0.144662
   7 H :    0.133882
   8 H :    0.134630
   9 H :    0.155594
  10 H :    0.135984
  11 Pd:   -0.307256
  12 O :   -0.216245
  13 O :   -0.180514
  14 O :   -0.018749
  15 C :    0.167612
  16 O :   -0.213381
  17 H :    0.364756
  18 C :    0.131145
  19 H :    0.103955
  20 H :    0.138662

  Mayer bond orders larger than 0.100000
B(  0-C ,  1-C ) :   1.4263 B(  0-C ,  4-C ) :   1.3708 B(  0-C ,  6-H ) :   0.9109
B(  1-C ,  2-C ) :   1.4378 B(  1-C ,  7-H ) :   0.9185 B(  2-C ,  3-C ) :   1.4137
B(  2-C ,  8-H ) :   0.9214 B(  3-C ,  5-C ) :   1.4374 B(  3-C , 10-H ) :   0.9180
B(  4-C ,  5-C ) :   1.3866 B(  4-C , 11-Pd) :   0.9293 B(  5-C ,  9-H ) :   0.9089
B( 11-Pd, 12-O ) :   0.3335 B( 11-Pd, 13-O ) :   0.5436 B( 11-Pd, 14-O ) :   0.3669
B( 12-O , 13-O ) :   0.1172 B( 12-O , 18-C ) :   1.6277 B( 13-O , 18-C ) :   1.4224
B( 14-O , 15-C ) :   1.7843 B( 15-C , 16-O ) :   1.1912 B( 15-C , 20-H ) :   0.8623
B( 16-O , 17-H ) :   0.7263 B( 18-C , 19-H ) :   0.8845

Dispersion correction           -0.013119128
FINAL SINGLE POINT ENERGY      -737.104686409767
Dispersion correction            ... done

DIPOLE MOMENT
-------------
                                X             Y             Z
Electronic contribution:     47.87542      37.23495      -4.57072
Nuclear contribution   :    -49.79239     -36.19875       6.20153
                        -----------------------------------------
Total Dipole Moment    :     -1.91697       1.03620       1.63081
                        -----------------------------------------
Magnitude (a.u.)       :      2.72177
Magnitude (Debye)      :      6.91818

Rotational constants in cm-1:     0.028979     0.017836     0.013007
Rotational constants in MHz :   868.780322   534.718012   389.934412

                             ****ORCA TERMINATED NORMALLY****
TOTAL RUN TIME: 0 days 0 hours 3 minutes 57 seconds 838 msec
