                         Program Version 5.0.3 -  RELEASE  -
|  1> ! EnGrad PBEh-3c
|  2> %output
|  3> xyzfile=True
|  4> end
|  5> %scf
|  6> maxiter 250
|  7> end
|  8> %output
|  9> Print[P_Hirshfeld] = 1
| 10> end
| 11> % maxcore
| 12> 4000
| 13> *xyz 0 1
| 14> C   -1.40275784   0.15218234  -0.70728372
| 15> C   -2.18955851  -0.88607958  -1.18147598
| 16> C   -1.91081966  -2.19076077  -0.82678944
| 17> C   -0.92954870  -2.44689622   0.11555591
| 18> C   -0.27889055  -0.13268591   0.08080413
| 19> C   -0.14590611  -1.42379546   0.60882271
| 20> H   -1.61866701   1.16313287  -1.02557791
| 21> H   -2.93760134  -0.67478701  -1.90865042
| 22> H   -2.44823597  -3.01818690  -1.29277280
| 23> H    0.62651296  -1.62725332   1.33412432
| 24> H   -0.67620539  -3.44379910   0.37866707
| 25> Pd   1.33833405   0.96928338  -0.12122765
| 26> O    3.38907296   1.40951650  -1.01411554
| 27> O    2.63948743  -0.57205762  -0.45342010
| 28> O    0.36581578   2.72245613   0.30694032
| 29> C   -0.21532900   2.82459081   1.35695101
| 30> O    0.02272271   1.93495333   2.30166611
| 31> H   -0.79336244   1.63044106   2.69649074
| 32> C    3.54056930   0.18027637  -0.93123066
| 33> H    4.45890396  -0.29897082  -1.28652074
| 34> H   -0.85788572   3.72155905   1.57291636
| 35> *
| 36>
| 37>                          ****END OF INPUT****

CARTESIAN COORDINATES (ANGSTROEM)
---------------------------------
  C     -1.402758    0.152182   -0.707284
  C     -2.189559   -0.886080   -1.181476
  C     -1.910820   -2.190761   -0.826789
  C     -0.929549   -2.446896    0.115556
  C     -0.278891   -0.132686    0.080804
  C     -0.145906   -1.423795    0.608823
  H     -1.618667    1.163133   -1.025578
  H     -2.937601   -0.674787   -1.908650
  H     -2.448236   -3.018187   -1.292773
  H      0.626513   -1.627253    1.334124
  H     -0.676205   -3.443799    0.378667
  Pd     1.338334    0.969283   -0.121228
  O      3.389073    1.409517   -1.014116
  O      2.639487   -0.572058   -0.453420
  O      0.365816    2.722456    0.306940
  C     -0.215329    2.824591    1.356951
  O      0.022723    1.934953    2.301666
  H     -0.793362    1.630441    2.696491
  C      3.540569    0.180276   -0.931231
  H      4.458904   -0.298971   -1.286521
  H     -0.857886    3.721559    1.572916

 Total Charge           Charge          ....    0
 Multiplicity           Mult            ....    1
 Number of Electrons    NEL             ....  106
 Basis Dimension        Dim             ....  227

ORBITAL ENERGIES
----------------

  NO   OCC          E(Eh)            E(eV)
   0   2.0000     -19.596745      -533.2545
   1   2.0000     -19.584319      -532.9164
   2   2.0000     -19.484788      -530.2080
   3   2.0000     -19.470001      -529.8057
   4   2.0000     -10.652148      -289.8597
   5   2.0000     -10.545095      -286.9466
   6   2.0000     -10.450997      -284.3861
   7   2.0000     -10.440072      -284.0888
   8   2.0000     -10.436875      -284.0018
   9   2.0000     -10.434589      -283.9396
  10   2.0000     -10.434013      -283.9239
  11   2.0000     -10.433424      -283.9079
  12   2.0000      -3.642791       -99.1254
  13   2.0000      -2.291072       -62.3432
  14   2.0000      -2.287428       -62.2441
  15   2.0000      -2.255874       -61.3854
  16   2.0000      -1.297013       -35.2935
  17   2.0000      -1.208233       -32.8777
  18   2.0000      -1.178953       -32.0809
  19   2.0000      -1.070583       -29.1320
  20   2.0000      -0.945338       -25.7239
  21   2.0000      -0.829951       -22.5841
  22   2.0000      -0.819898       -22.3106
  23   2.0000      -0.779423       -21.2092
  24   2.0000      -0.711253       -19.3542
  25   2.0000      -0.671399       -18.2697
  26   2.0000      -0.661680       -18.0052
  27   2.0000      -0.652317       -17.7504
  28   2.0000      -0.622892       -16.9497
  29   2.0000      -0.593895       -16.1607
  30   2.0000      -0.573664       -15.6102
  31   2.0000      -0.543211       -14.7815
  32   2.0000      -0.513925       -13.9846
  33   2.0000      -0.507223       -13.8022
  34   2.0000      -0.504337       -13.7237
  35   2.0000      -0.499638       -13.5958
  36   2.0000      -0.483554       -13.1582
  37   2.0000      -0.473947       -12.8967
  38   2.0000      -0.455759       -12.4018
  39   2.0000      -0.448256       -12.1977
  40   2.0000      -0.443599       -12.0710
  41   2.0000      -0.422206       -11.4888
  42   2.0000      -0.393502       -10.7077
  43   2.0000      -0.376218       -10.2374
  44   2.0000      -0.372449       -10.1349
  45   2.0000      -0.355893        -9.6843
  46   2.0000      -0.343296        -9.3416
  47   2.0000      -0.329883        -8.9766
  48   2.0000      -0.312676        -8.5083
  49   2.0000      -0.304335        -8.2814
  50   2.0000      -0.285868        -7.7789
  51   2.0000      -0.279596        -7.6082
  52   2.0000      -0.256867        -6.9897
  53   0.0000      -0.046666        -1.2698
  54   0.0000      -0.022089        -0.6011
  55   0.0000       0.027046         0.7360
  56   0.0000       0.030248         0.8231
  57   0.0000       0.050968         1.3869

MULLIKEN ATOMIC CHARGES
-----------------------
   0 C :   -0.250910
   1 C :   -0.214809
   2 C :   -0.231789
   3 C :   -0.215656
   4 C :   -0.163796
   5 C :   -0.228253
   6 H :    0.216892
   7 H :    0.216125
   8 H :    0.212411
   9 H :    0.237768
  10 H :    0.219622
  11 Pd:    0.376745
  12 O :   -0.467087
  13 O :   -0.488482
  14 O :   -0.349949
  15 C :    0.374652
  16 O :   -0.522731
  17 H :    0.477384
  18 C :    0.380124
  19 H :    0.178070
  20 H :    0.243668
Sum of atomic charges:   -0.0000000

LOEWDIN ATOMIC CHARGES
----------------------
   0 C :   -0.137917
   1 C :   -0.134441
   2 C :   -0.144930
   3 C :   -0.130231
   4 C :   -0.020813
   5 C :   -0.110998
   6 H :    0.142578
   7 H :    0.134748
   8 H :    0.133863
   9 H :    0.154303
  10 H :    0.136714
  11 Pd:   -0.311282
  12 O :   -0.211286
  13 O :   -0.175935
  14 O :   -0.014855
  15 C :    0.182975
  16 O :   -0.228389
  17 H :    0.359683
  18 C :    0.132353
  19 H :    0.105217
  20 H :    0.138643

  Mayer bond orders larger than 0.100000
B(  0-C ,  1-C ) :   1.4251 B(  0-C ,  4-C ) :   1.3721 B(  0-C ,  6-H ) :   0.9117
B(  1-C ,  2-C ) :   1.4402 B(  1-C ,  7-H ) :   0.9184 B(  2-C ,  3-C ) :   1.4131
B(  2-C ,  8-H ) :   0.9221 B(  3-C ,  5-C ) :   1.4407 B(  3-C , 10-H ) :   0.9178
B(  4-C ,  5-C ) :   1.3826 B(  4-C , 11-Pd) :   0.9267 B(  5-C ,  9-H ) :   0.9091
B( 11-Pd, 12-O ) :   0.3420 B( 11-Pd, 13-O ) :   0.5477 B( 11-Pd, 14-O ) :   0.3647
B( 12-O , 13-O ) :   0.1169 B( 12-O , 18-C ) :   1.6203 B( 13-O , 18-C ) :   1.4235
B( 14-O , 15-C ) :   1.7932 B( 15-C , 16-O ) :   1.1667 B( 15-C , 20-H ) :   0.8596
B( 16-O , 17-H ) :   0.7248 B( 18-C , 19-H ) :   0.8856

Dispersion correction           -0.013098247
FINAL SINGLE POINT ENERGY      -737.108404229534
Dispersion correction            ... done

DIPOLE MOMENT
-------------
                                X             Y             Z
Electronic contribution:     48.47604      37.43826      -4.36313
Nuclear contribution   :    -50.26235     -36.38923       5.93605
                        -----------------------------------------
Total Dipole Moment    :     -1.78630       1.04903       1.57292
                        -----------------------------------------
Magnitude (a.u.)       :      2.60104
Magnitude (Debye)      :      6.61133

Rotational constants in cm-1:     0.028901     0.017818     0.013017
Rotational constants in MHz :   866.424943   534.156485   390.229708

                             ****ORCA TERMINATED NORMALLY****
TOTAL RUN TIME: 0 days 0 hours 3 minutes 52 seconds 261 msec
