                         Program Version 5.0.3 -  RELEASE  -
|  1> ! EnGrad PBEh-3c
|  2> %output
|  3> xyzfile=True
|  4> end
|  5> %scf
|  6> maxiter 250
|  7> end
|  8> %output
|  9> Print[P_Hirshfeld] = 1
| 10> end
| 11> % maxcore
| 12> 4000
| 13> %pal nprocs 4
| 14> end
| 15> *xyz 0 1
| 16> C   -1.26531000   0.06894000  -1.02241000
| 17> C   -2.32893000  -0.82434000  -1.08991000
| 18> C   -2.23022000  -2.07741000  -0.50600000
| 19> C   -1.05615000  -2.43734000   0.14007000
| 20> C   -0.08554000  -0.28836000  -0.37440000
| 21> C    0.01203000  -1.55252000   0.20243000
| 22> H   -1.36540000   1.03449000  -1.50456000
| 23> H   -3.23433000  -0.53847000  -1.61093000
| 24> H   -3.05762000  -2.77273000  -0.56277000
| 25> H    0.92734000  -1.86608000   0.68936000
| 26> H   -0.96388000  -3.41844000   0.58910000
| 27> Pd   1.44840000   0.90054000  -0.31164000
| 28> O    3.59504000   1.58069000  -0.46482000
| 29> O    2.87387000  -0.46053000  -0.78216000
| 30> O    0.18889000   2.46944000   0.21014000
| 31> C   -0.33840000   2.58755000   1.29011000
| 32> O   -0.10649000   1.76680000   2.27893000
| 33> H   -0.62276000   1.98477000   3.06301000
| 34> C    3.81244000   0.39076000  -0.74437000
| 35> H    4.83085000   0.03775000  -0.96753000
| 36> H   -1.03382000   3.41448000   1.47837000
| 37> *
| 38>
| 39>                          ****END OF INPUT****

CARTESIAN COORDINATES (ANGSTROEM)
---------------------------------
  C     -1.265310    0.068940   -1.022410
  C     -2.328930   -0.824340   -1.089910
  C     -2.230220   -2.077410   -0.506000
  C     -1.056150   -2.437340    0.140070
  C     -0.085540   -0.288360   -0.374400
  C      0.012030   -1.552520    0.202430
  H     -1.365400    1.034490   -1.504560
  H     -3.234330   -0.538470   -1.610930
  H     -3.057620   -2.772730   -0.562770
  H      0.927340   -1.866080    0.689360
  H     -0.963880   -3.418440    0.589100
  Pd     1.448400    0.900540   -0.311640
  O      3.595040    1.580690   -0.464820
  O      2.873870   -0.460530   -0.782160
  O      0.188890    2.469440    0.210140
  C     -0.338400    2.587550    1.290110
  O     -0.106490    1.766800    2.278930
  H     -0.622760    1.984770    3.063010
  C      3.812440    0.390760   -0.744370
  H      4.830850    0.037750   -0.967530
  H     -1.033820    3.414480    1.478370

 Total Charge           Charge          ....    0
 Multiplicity           Mult            ....    1
 Number of Electrons    NEL             ....  106
 Basis Dimension        Dim             ....  227

ORBITAL ENERGIES
----------------

  NO   OCC          E(Eh)            E(eV)
   0   2.0000     -19.612106      -533.6725
   1   2.0000     -19.574873      -532.6594
   2   2.0000     -19.487578      -530.2840
   3   2.0000     -19.470749      -529.8260
   4   2.0000     -10.648383      -289.7572
   5   2.0000     -10.547397      -287.0093
   6   2.0000     -10.442844      -284.1642
   7   2.0000     -10.435484      -283.9640
   8   2.0000     -10.433643      -283.9139
   9   2.0000     -10.432746      -283.8894
  10   2.0000     -10.431666      -283.8601
  11   2.0000     -10.428831      -283.7829
  12   2.0000      -3.638705       -99.0142
  13   2.0000      -2.287917       -62.2574
  14   2.0000      -2.282443       -62.1084
  15   2.0000      -2.252292       -61.2880
  16   2.0000      -1.297730       -35.3130
  17   2.0000      -1.210741       -32.9460
  18   2.0000      -1.181666       -32.1548
  19   2.0000      -1.072418       -29.1820
  20   2.0000      -0.939204       -25.5570
  21   2.0000      -0.822430       -22.3795
  22   2.0000      -0.816783       -22.2258
  23   2.0000      -0.784674       -21.3521
  24   2.0000      -0.722724       -19.6663
  25   2.0000      -0.666400       -18.1337
  26   2.0000      -0.657431       -17.8896
  27   2.0000      -0.652256       -17.7488
  28   2.0000      -0.620088       -16.8735
  29   2.0000      -0.581702       -15.8289
  30   2.0000      -0.568244       -15.4627
  31   2.0000      -0.545518       -14.8443
  32   2.0000      -0.520096       -14.1525
  33   2.0000      -0.514828       -14.0092
  34   2.0000      -0.499742       -13.5987
  35   2.0000      -0.497860       -13.5475
  36   2.0000      -0.485742       -13.2177
  37   2.0000      -0.466822       -12.7029
  38   2.0000      -0.454298       -12.3621
  39   2.0000      -0.445634       -12.1263
  40   2.0000      -0.441843       -12.0232
  41   2.0000      -0.412485       -11.2243
  42   2.0000      -0.387009       -10.5310
  43   2.0000      -0.376678       -10.2499
  44   2.0000      -0.371826       -10.1179
  45   2.0000      -0.354906        -9.6575
  46   2.0000      -0.344747        -9.3810
  47   2.0000      -0.325782        -8.8650
  48   2.0000      -0.312845        -8.5129
  49   2.0000      -0.301954        -8.2166
  50   2.0000      -0.282202        -7.6791
  51   2.0000      -0.275249        -7.4899
  52   2.0000      -0.262219        -7.1353
  53   0.0000      -0.026367        -0.7175
  54   0.0000      -0.008625        -0.2347
  55   0.0000       0.032286         0.8786
  56   0.0000       0.033381         0.9083
  57   0.0000       0.051682         1.4063

MULLIKEN ATOMIC CHARGES
-----------------------
   0 C :   -0.269620
   1 C :   -0.220674
   2 C :   -0.231699
   3 C :   -0.221929
   4 C :   -0.091026
   5 C :   -0.233939
   6 H :    0.222782
   7 H :    0.209270
   8 H :    0.210835
   9 H :    0.234915
  10 H :    0.212128
  11 Pd:    0.356279
  12 O :   -0.468580
  13 O :   -0.486995
  14 O :   -0.371041
  15 C :    0.390469
  16 O :   -0.496217
  17 H :    0.469371
  18 C :    0.378620
  19 H :    0.179251
  20 H :    0.227799
Sum of atomic charges:   -0.0000000

LOEWDIN ATOMIC CHARGES
----------------------
   0 C :   -0.134680
   1 C :   -0.136508
   2 C :   -0.149841
   3 C :   -0.132284
   4 C :   -0.005019
   5 C :   -0.110375
   6 H :    0.146696
   7 H :    0.131885
   8 H :    0.132026
   9 H :    0.156895
  10 H :    0.133561
  11 Pd:   -0.316603
  12 O :   -0.209544
  13 O :   -0.169328
  14 O :   -0.034056
  15 C :    0.180230
  16 O :   -0.204587
  17 H :    0.353707
  18 C :    0.134707
  19 H :    0.106574
  20 H :    0.126543

  Mayer bond orders larger than 0.100000
B(  0-C ,  1-C ) :   1.4191 B(  0-C ,  4-C ) :   1.3805 B(  0-C ,  6-H ) :   0.9124
B(  1-C ,  2-C ) :   1.4329 B(  1-C ,  7-H ) :   0.9208 B(  2-C ,  3-C ) :   1.4207
B(  2-C ,  8-H ) :   0.9221 B(  3-C ,  5-C ) :   1.4211 B(  3-C , 10-H ) :   0.9204
B(  4-C ,  5-C ) :   1.3787 B(  4-C , 11-Pd) :   0.9384 B(  5-C ,  9-H ) :   0.9106
B( 11-Pd, 12-O ) :   0.3438 B( 11-Pd, 13-O ) :   0.5467 B( 11-Pd, 14-O ) :   0.3541
B( 12-O , 13-O ) :   0.1166 B( 12-O , 18-C ) :   1.6186 B( 13-O , 18-C ) :   1.4204
B( 14-O , 15-C ) :   1.7824 B( 15-C , 16-O ) :   1.2077 B( 15-C , 20-H ) :   0.8720
B( 16-O , 17-H ) :   0.7394 B( 18-C , 19-H ) :   0.8855

Dispersion correction           -0.012809347
FINAL SINGLE POINT ENERGY      -737.137386142243
Dispersion correction            ... done

DIPOLE MOMENT
-------------
                                X             Y             Z
Electronic contribution:     53.01947      35.26596     -11.73935
Nuclear contribution   :    -54.78138     -33.91864      13.80689
                        -----------------------------------------
Total Dipole Moment    :     -1.76192       1.34732       2.06754
                        -----------------------------------------
Magnitude (a.u.)       :      3.03222
Magnitude (Debye)      :      7.70729

Rotational constants in cm-1:     0.030836     0.016460     0.012495
Rotational constants in MHz :   924.431494   493.465817   374.593730

                             ****ORCA TERMINATED NORMALLY****
TOTAL RUN TIME: 0 days 0 hours 1 minutes 1 seconds 564 msec
