                         Program Version 5.0.3 -  RELEASE  -
|  1> ! EnGrad PBEh-3c
|  2> %output
|  3> xyzfile=True
|  4> end
|  5> %scf
|  6> maxiter 250
|  7> end
|  8> %output
|  9> Print[P_Hirshfeld] = 1
| 10> end
| 11> % maxcore
| 12> 4000
| 13> *xyz -1 1
| 14> C   -2.66848373  -0.32153589   0.88383838
| 15> C   -2.06444184   0.89014507   1.24620268
| 16> C   -3.95345176  -0.60483832   1.34364520
| 17> C   -4.71554273   0.39003565   1.94083915
| 18> C   -4.09319869   1.55559163   2.35404072
| 19> C   -2.73001297   1.71754771   2.14966362
| 20> H   -2.43869865  -1.29406912  -0.33390060
| 21> H   -4.44963164  -1.53080019   1.07742217
| 22> H   -2.25495500   2.61437780   2.53362783
| 23> H   -5.75569012   0.20344621   2.17862245
| 24> H   -4.65582961   2.29579903   2.90936322
| 25> C   -0.73214702   1.32546376   0.71124978
| 26> C    0.42370388   0.55701781   1.34941532
| 27> H   -0.55994762   2.40061854   0.83641512
| 28> H   -0.76011210   1.21924774  -0.37435899
| 29> C    1.68478989   0.62541770   0.52994660
| 30> H    0.14364484  -0.48788364   1.50564556
| 31> H    0.59296096   0.95841779   2.35458721
| 32> C    1.87091092  -0.17329400  -0.60880352
| 33> C    3.02448820   0.01746483  -1.36558036
| 34> C    3.96375141   0.98401280  -1.02798781
| 35> C    2.73361814   1.43071803   0.97197439
| 36> C    3.80069462   1.72113881   0.13432097
| 37> H    3.19796019  -0.58497399  -2.24810426
| 38> H    4.81812329   1.16035397  -1.67109934
| 39> H    2.60980218   1.99025426   1.89419824
| 40> H    4.48835957   2.52188183   0.37777472
| 41> Pd   0.55969120  -1.54172903  -1.15341494
| 42> Br  -1.15209190  -3.55016433  -1.65875501
| 43> P    1.17450683  -2.95072148   0.37894845
| 44> H    0.24653859  -3.33418474   1.35601250
| 45> C    0.73855491  -0.87671050  -3.98822027
| 46> O    1.68239426  -1.62948708  -4.13414406
| 47> O   -0.13926365  -0.78924870  -3.07895998
| 48> O    0.38909716   0.00609301  -4.96196066
| 49> H    2.26306614  -2.65505328   1.22029250
| 50> H    1.61916942  -4.21808101  -0.02787950
| 51> H    1.09768296  -0.04226355  -5.60485481
| 52> *
| 53>
| 54>                          ****END OF INPUT****

CARTESIAN COORDINATES (ANGSTROEM)
---------------------------------
  C     -2.668484   -0.321536    0.883838
  C     -2.064442    0.890145    1.246203
  C     -3.953452   -0.604838    1.343645
  C     -4.715543    0.390036    1.940839
  C     -4.093199    1.555592    2.354041
  C     -2.730013    1.717548    2.149664
  H     -2.438699   -1.294069   -0.333901
  H     -4.449632   -1.530800    1.077422
  H     -2.254955    2.614378    2.533628
  H     -5.755690    0.203446    2.178622
  H     -4.655830    2.295799    2.909363
  C     -0.732147    1.325464    0.711250
  C      0.423704    0.557018    1.349415
  H     -0.559948    2.400619    0.836415
  H     -0.760112    1.219248   -0.374359
  C      1.684790    0.625418    0.529947
  H      0.143645   -0.487884    1.505646
  H      0.592961    0.958418    2.354587
  C      1.870911   -0.173294   -0.608804
  C      3.024488    0.017465   -1.365580
  C      3.963751    0.984013   -1.027988
  C      2.733618    1.430718    0.971974
  C      3.800695    1.721139    0.134321
  H      3.197960   -0.584974   -2.248104
  H      4.818123    1.160354   -1.671099
  H      2.609802    1.990254    1.894198
  H      4.488360    2.521882    0.377775
  Pd     0.559691   -1.541729   -1.153415
  Br    -1.152092   -3.550164   -1.658755
  P      1.174507   -2.950721    0.378948
  H      0.246539   -3.334185    1.356013
  C      0.738555   -0.876710   -3.988220
  O      1.682394   -1.629487   -4.134144
  O     -0.139264   -0.789249   -3.078960
  O      0.389097    0.006093   -4.961961
  H      2.263066   -2.655053    1.220292
  H      1.619169   -4.218081   -0.027880
  H      1.097683   -0.042264   -5.604855

 Total Charge           Charge          ....   -1
 Multiplicity           Mult            ....    1
 Number of Electrons    NEL             ....  200
 Basis Dimension        Dim             ....  385

ORBITAL ENERGIES
----------------

  NO   OCC          E(Eh)            E(eV)
   0   2.0000    -484.320481    -13179.0303
   1   2.0000     -77.677075     -2113.7007
   2   2.0000     -62.981968     -1713.8265
   3   2.0000     -56.685561     -1542.4925
   4   2.0000     -56.684661     -1542.4680
   5   2.0000     -56.684587     -1542.4660
   6   2.0000     -19.367576      -527.0185
   7   2.0000     -19.314126      -525.5641
   8   2.0000     -19.300664      -525.1978
   9   2.0000     -10.432933      -283.8945
  10   2.0000     -10.378799      -282.4215
  11   2.0000     -10.367068      -282.1023
  12   2.0000     -10.360116      -281.9131
  13   2.0000     -10.358106      -281.8584
  14   2.0000     -10.356258      -281.8081
  15   2.0000     -10.355158      -281.7782
  16   2.0000     -10.342217      -281.4260
  17   2.0000     -10.340516      -281.3797
  18   2.0000     -10.340136      -281.3694
  19   2.0000     -10.338949      -281.3371
  20   2.0000     -10.337775      -281.3051
  21   2.0000     -10.335901      -281.2542
  22   2.0000     -10.335439      -281.2416
  23   2.0000     -10.324296      -280.9384
  24   2.0000      -8.809141      -239.7089
  25   2.0000      -6.751977      -183.7306
  26   2.0000      -6.578379      -179.0068
  27   2.0000      -6.574120      -178.8909
  28   2.0000      -6.573518      -178.8745
  29   2.0000      -4.843045      -131.7859
  30   2.0000      -4.842828      -131.7801
  31   2.0000      -4.841371      -131.7404
  32   2.0000      -3.528337       -96.0109
  33   2.0000      -2.592489       -70.5452
  34   2.0000      -2.591442       -70.5167
  35   2.0000      -2.590908       -70.5022
  36   2.0000      -2.587222       -70.4019
  37   2.0000      -2.587192       -70.4011
  38   2.0000      -2.174718       -59.1771
  39   2.0000      -2.171154       -59.0801
  40   2.0000      -2.142351       -58.2963
  41   2.0000      -1.070245       -29.1228
  42   2.0000      -0.952555       -25.9204
  43   2.0000      -0.926336       -25.2069
  44   2.0000      -0.869388       -23.6573
  45   2.0000      -0.846544       -23.0356
  46   2.0000      -0.793416       -21.5900
  47   2.0000      -0.749470       -20.3941
  48   2.0000      -0.739106       -20.1121
  49   2.0000      -0.718109       -19.5407
  50   2.0000      -0.692730       -18.8501
  51   2.0000      -0.654625       -17.8133
  52   2.0000      -0.627104       -17.0644
  53   2.0000      -0.620488       -16.8843
  54   2.0000      -0.583871       -15.8879
  55   2.0000      -0.564242       -15.3538
  56   2.0000      -0.558510       -15.1978
  57   2.0000      -0.538082       -14.6420
  58   2.0000      -0.520157       -14.1542
  59   2.0000      -0.481949       -13.1145
  60   2.0000      -0.462656       -12.5895
  61   2.0000      -0.440073       -11.9750
  62   2.0000      -0.420503       -11.4425
  63   2.0000      -0.414882       -11.2895
  64   2.0000      -0.402469       -10.9517
  65   2.0000      -0.392613       -10.6835
  66   2.0000      -0.384420       -10.4606
  67   2.0000      -0.382976       -10.4213
  68   2.0000      -0.377499       -10.2723
  69   2.0000      -0.375154       -10.2084
  70   2.0000      -0.370848       -10.0913
  71   2.0000      -0.366441        -9.9714
  72   2.0000      -0.363575        -9.8934
  73   2.0000      -0.354511        -9.6467
  74   2.0000      -0.349992        -9.5238
  75   2.0000      -0.333949        -9.0872
  76   2.0000      -0.328345        -8.9347
  77   2.0000      -0.325501        -8.8573
  78   2.0000      -0.311676        -8.4811
  79   2.0000      -0.306150        -8.3308
  80   2.0000      -0.298864        -8.1325
  81   2.0000      -0.289393        -7.8748
  82   2.0000      -0.277746        -7.5579
  83   2.0000      -0.264657        -7.2017
  84   2.0000      -0.258731        -7.0404
  85   2.0000      -0.256884        -6.9902
  86   2.0000      -0.234525        -6.3817
  87   2.0000      -0.222502        -6.0546
  88   2.0000      -0.214645        -5.8408
  89   2.0000      -0.199179        -5.4199
  90   2.0000      -0.193750        -5.2722
  91   2.0000      -0.190494        -5.1836
  92   2.0000      -0.190196        -5.1755
  93   2.0000      -0.176570        -4.8047
  94   2.0000      -0.172250        -4.6872
  95   2.0000      -0.160211        -4.3596
  96   2.0000      -0.156705        -4.2642
  97   2.0000      -0.146115        -3.9760
  98   2.0000      -0.145695        -3.9646
  99   2.0000      -0.142567        -3.8794
 100   0.0000       0.088840         2.4175
 101   0.0000       0.099819         2.7162
 102   0.0000       0.109607         2.9826
 103   0.0000       0.128292         3.4910
 104   0.0000       0.134836         3.6691

MULLIKEN ATOMIC CHARGES
-----------------------
   0 C :   -0.209076
   1 C :    0.059523
   2 C :   -0.215145
   3 C :   -0.223235
   4 C :   -0.223895
   5 C :   -0.250837
   6 H :    0.241675
   7 H :    0.222549
   8 H :    0.195361
   9 H :    0.196766
  10 H :    0.194724
  11 C :   -0.497335
  12 C :   -0.505951
  13 H :    0.215005
  14 H :    0.308007
  15 C :    0.117108
  16 H :    0.250636
  17 H :    0.209775
  18 C :   -0.147051
  19 C :   -0.262235
  20 C :   -0.227636
  21 C :   -0.284161
  22 C :   -0.232074
  23 H :    0.259709
  24 H :    0.187662
  25 H :    0.174736
  26 H :    0.182609
  27 Pd:    0.133112
  28 Br:   -0.496112
  29 P :   -0.126827
  30 H :    0.125151
  31 C :    0.688588
  32 O :   -0.527394
  33 O :   -0.531602
  34 O :   -0.613154
  35 H :    0.084202
  36 H :    0.129033
  37 H :    0.397787
Sum of atomic charges:   -1.0000000

LOEWDIN ATOMIC CHARGES
----------------------
   0 C :   -0.115103
   1 C :   -0.043572
   2 C :   -0.143569
   3 C :   -0.160502
   4 C :   -0.147657
   5 C :   -0.144398
   6 H :    0.206721
   7 H :    0.133736
   8 H :    0.127142
   9 H :    0.124935
  10 H :    0.123602
  11 C :   -0.211536
  12 C :   -0.205370
  13 H :    0.124906
  14 H :    0.171483
  15 C :   -0.043248
  16 H :    0.145288
  17 H :    0.119836
  18 C :   -0.022676
  19 C :   -0.119553
  20 C :   -0.150356
  21 C :   -0.148720
  22 C :   -0.164163
  23 H :    0.162579
  24 H :    0.122658
  25 H :    0.118644
  26 H :    0.119112
  27 Pd:   -0.784279
  28 Br:   -0.303958
  29 P :    0.431233
  30 H :    0.057532
  31 C :    0.112983
  32 O :   -0.323071
  33 O :   -0.228507
  34 O :   -0.335518
  35 H :    0.027989
  36 H :    0.061447
  37 H :    0.303929

  Mayer bond orders larger than 0.100000
B(  0-C ,  1-C ) :   1.3941 B(  0-C ,  2-C ) :   1.3953 B(  0-C ,  6-H ) :   0.8317
B(  1-C ,  5-C ) :   1.3978 B(  1-C , 11-C ) :   0.9645 B(  2-C ,  3-C ) :   1.4272
B(  2-C ,  7-H ) :   0.9182 B(  3-C ,  4-C ) :   1.4239 B(  3-C ,  9-H ) :   0.9241
B(  4-C ,  5-C ) :   1.4372 B(  4-C , 10-H ) :   0.9258 B(  5-C ,  8-H ) :   0.9249
B( 11-C , 12-C ) :   0.9330 B( 11-C , 13-H ) :   0.9241 B( 11-C , 14-H ) :   0.8755
B( 12-C , 15-C ) :   0.9640 B( 12-C , 16-H ) :   0.8924 B( 12-C , 17-H ) :   0.9269
B( 15-C , 18-C ) :   1.3427 B( 15-C , 21-C ) :   1.4114 B( 18-C , 19-C ) :   1.4171
B( 18-C , 27-Pd) :   0.8082 B( 18-C , 28-Br) :   0.1157 B( 19-C , 20-C ) :   1.4015
B( 19-C , 23-H ) :   0.8840 B( 20-C , 22-C ) :   1.4331 B( 20-C , 24-H ) :   0.9270
B( 21-C , 22-C ) :   1.4208 B( 21-C , 25-H ) :   0.9273 B( 22-C , 26-H ) :   0.9292
B( 27-Pd, 28-Br) :   0.5079 B( 27-Pd, 29-P ) :   0.7990 B( 27-Pd, 33-O ) :   0.4935
B( 28-Br, 29-P ) :   0.1162 B( 29-P , 30-H ) :   0.9246 B( 29-P , 35-H ) :   0.9050
B( 29-P , 36-H ) :   0.9299 B( 31-C , 32-O ) :   1.8125 B( 31-C , 33-O ) :   1.3826
B( 31-C , 34-O ) :   1.0588 B( 34-O , 37-H ) :   0.7956

Dispersion correction           -0.031275816
FINAL SINGLE POINT ENERGY     -3847.674674585661
Dispersion correction            ... done

DIPOLE MOMENT
-------------
                                X             Y             Z
Electronic contribution:     27.54492     -77.32476     -49.94262
Nuclear contribution   :    -27.00207      78.12124      53.03823
                        -----------------------------------------
Total Dipole Moment    :      0.54285       0.79648       3.09561
                        -----------------------------------------
Magnitude (a.u.)       :      3.24220
Magnitude (Debye)      :      8.24103

Rotational constants in cm-1:     0.007124     0.005526     0.004053
Rotational constants in MHz :   213.578670   165.650649   121.508477

                             ****ORCA TERMINATED NORMALLY****
TOTAL RUN TIME: 0 days 0 hours 21 minutes 39 seconds 793 msec
