                         Program Version 5.0.3 -  RELEASE  -
|  1> ! EnGrad PBEh-3c
|  2> %output
|  3> xyzfile=True
|  4> end
|  5> %scf
|  6> maxiter 250
|  7> end
|  8> %output
|  9> Print[P_Hirshfeld] = 1
| 10> end
| 11> % maxcore
| 12> 4000
| 13> *xyz -1 1
| 14> C   -2.59234577  -0.16361297   0.52318947
| 15> C   -1.98345171   0.89988777   1.24589703
| 16> C   -3.88557270  -0.52768553   0.85016359
| 17> C   -4.71031250   0.36041876   1.51925345
| 18> C   -4.21674365   1.55191080   2.03314287
| 19> C   -2.84563158   1.72886360   1.97247216
| 20> H   -2.34390172  -0.73410346  -0.43850727
| 21> H   -4.19538339  -1.56503033   0.74020823
| 22> H   -2.46369057   2.61741331   2.46426830
| 23> H   -5.76256695   0.24709390   1.33549166
| 24> H   -4.91115288   2.34446420   2.38338941
| 25> C   -0.54247679   1.40579494   1.20577894
| 26> C    0.61577047   0.46999223   1.66689792
| 27> H   -0.46285447   2.35633365   1.82319547
| 28> H   -0.42396160   1.69182483   0.14837562
| 29> C    1.78830471   0.54728735   0.71277903
| 30> H    0.20713591  -0.53747402   1.70633556
| 31> H    0.91601789   0.76713128   2.68398381
| 32> C    1.73633554  -0.12312527  -0.54923654
| 33> C    2.83165350   0.12772900  -1.38505643
| 34> C    3.82376525   1.07691290  -1.09397987
| 35> C    2.80796789   1.46832977   1.03098223
| 36> C    3.82110227   1.75091071   0.12157290
| 37> H    2.91656967  -0.45088026  -2.29852987
| 38> H    4.58362603   1.30515306  -1.83822661
| 39> H    2.91098212   1.83117775   2.06318942
| 40> H    4.56024934   2.51402384   0.35424673
| 41> Pd   0.28902080  -1.67804431  -1.06220088
| 42> Br  -1.35659739  -3.68364196  -0.96947097
| 43> P    1.35622573  -2.97637101   0.25722074
| 44> H    0.71145711  -3.52076783   1.38369287
| 45> C    0.48495414  -1.18515928  -3.92952942
| 46> O    1.58145814  -1.62097336  -4.19722928
| 47> O   -0.39326612  -1.57806932  -3.06811447
| 48> O    0.04383778  -0.06375795  -4.60441986
| 49> H    2.64376519  -2.74402136   0.82258902
| 50> H    1.66746991  -4.15789397  -0.45686037
| 51> H    0.78678542   0.25004091  -5.15410687
| 52> *
| 53>
| 54>                          ****END OF INPUT****

CARTESIAN COORDINATES (ANGSTROEM)
---------------------------------
  C     -2.592346   -0.163613    0.523189
  C     -1.983452    0.899888    1.245897
  C     -3.885573   -0.527686    0.850164
  C     -4.710312    0.360419    1.519253
  C     -4.216744    1.551911    2.033143
  C     -2.845632    1.728864    1.972472
  H     -2.343902   -0.734103   -0.438507
  H     -4.195383   -1.565030    0.740208
  H     -2.463691    2.617413    2.464268
  H     -5.762567    0.247094    1.335492
  H     -4.911153    2.344464    2.383389
  C     -0.542477    1.405795    1.205779
  C      0.615770    0.469992    1.666898
  H     -0.462854    2.356334    1.823195
  H     -0.423962    1.691825    0.148376
  C      1.788305    0.547287    0.712779
  H      0.207136   -0.537474    1.706336
  H      0.916018    0.767131    2.683984
  C      1.736336   -0.123125   -0.549237
  C      2.831653    0.127729   -1.385056
  C      3.823765    1.076913   -1.093980
  C      2.807968    1.468330    1.030982
  C      3.821102    1.750911    0.121573
  H      2.916570   -0.450880   -2.298530
  H      4.583626    1.305153   -1.838227
  H      2.910982    1.831178    2.063189
  H      4.560249    2.514024    0.354247
  Pd     0.289021   -1.678044   -1.062201
  Br    -1.356597   -3.683642   -0.969471
  P      1.356226   -2.976371    0.257221
  H      0.711457   -3.520768    1.383693
  C      0.484954   -1.185159   -3.929529
  O      1.581458   -1.620973   -4.197229
  O     -0.393266   -1.578069   -3.068114
  O      0.043838   -0.063758   -4.604420
  H      2.643765   -2.744021    0.822589
  H      1.667470   -4.157894   -0.456860
  H      0.786785    0.250041   -5.154107

 Total Charge           Charge          ....   -1
 Multiplicity           Mult            ....    1
 Number of Electrons    NEL             ....  200
 Basis Dimension        Dim             ....  385

ORBITAL ENERGIES
----------------

  NO   OCC          E(Eh)            E(eV)
   0   2.0000    -484.328172    -13179.2396
   1   2.0000     -77.681867     -2113.8311
   2   2.0000     -62.990006     -1714.0452
   3   2.0000     -56.693749     -1542.7153
   4   2.0000     -56.692635     -1542.6850
   5   2.0000     -56.692516     -1542.6818
   6   2.0000     -19.369822      -527.0797
   7   2.0000     -19.312788      -525.5277
   8   2.0000     -19.306311      -525.3514
   9   2.0000     -10.439932      -284.0850
  10   2.0000     -10.370056      -282.1836
  11   2.0000     -10.356173      -281.8058
  12   2.0000     -10.355812      -281.7960
  13   2.0000     -10.352438      -281.7042
  14   2.0000     -10.351722      -281.6847
  15   2.0000     -10.349995      -281.6377
  16   2.0000     -10.348451      -281.5957
  17   2.0000     -10.347771      -281.5772
  18   2.0000     -10.344614      -281.4912
  19   2.0000     -10.344002      -281.4746
  20   2.0000     -10.343053      -281.4488
  21   2.0000     -10.342905      -281.4448
  22   2.0000     -10.339953      -281.3644
  23   2.0000     -10.328837      -281.0620
  24   2.0000      -8.817414      -239.9340
  25   2.0000      -6.755346      -183.8223
  26   2.0000      -6.587427      -179.2530
  27   2.0000      -6.582043      -179.1065
  28   2.0000      -6.581382      -179.0885
  29   2.0000      -4.846435      -131.8782
  30   2.0000      -4.846294      -131.8744
  31   2.0000      -4.844976      -131.8385
  32   2.0000      -3.529302       -96.0372
  33   2.0000      -2.601363       -70.7867
  34   2.0000      -2.600094       -70.7522
  35   2.0000      -2.599500       -70.7360
  36   2.0000      -2.594862       -70.6098
  37   2.0000      -2.594845       -70.6093
  38   2.0000      -2.177763       -59.2599
  39   2.0000      -2.169787       -59.0429
  40   2.0000      -2.143540       -58.3287
  41   2.0000      -1.061668       -28.8895
  42   2.0000      -0.950914       -25.8757
  43   2.0000      -0.921983       -25.0884
  44   2.0000      -0.864247       -23.5174
  45   2.0000      -0.841452       -22.8971
  46   2.0000      -0.785523       -21.3752
  47   2.0000      -0.746199       -20.3051
  48   2.0000      -0.740540       -20.1511
  49   2.0000      -0.717606       -19.5271
  50   2.0000      -0.686676       -18.6854
  51   2.0000      -0.657276       -17.8854
  52   2.0000      -0.631901       -17.1949
  53   2.0000      -0.620589       -16.8871
  54   2.0000      -0.577686       -15.7196
  55   2.0000      -0.560886       -15.2625
  56   2.0000      -0.559283       -15.2189
  57   2.0000      -0.536320       -14.5940
  58   2.0000      -0.517748       -14.0886
  59   2.0000      -0.476488       -12.9659
  60   2.0000      -0.459578       -12.5058
  61   2.0000      -0.439288       -11.9536
  62   2.0000      -0.422993       -11.5102
  63   2.0000      -0.413949       -11.2641
  64   2.0000      -0.401200       -10.9172
  65   2.0000      -0.396090       -10.7782
  66   2.0000      -0.385221       -10.4824
  67   2.0000      -0.383825       -10.4444
  68   2.0000      -0.376651       -10.2492
  69   2.0000      -0.373792       -10.1714
  70   2.0000      -0.372340       -10.1319
  71   2.0000      -0.366416        -9.9707
  72   2.0000      -0.363341        -9.8870
  73   2.0000      -0.354135        -9.6365
  74   2.0000      -0.348193        -9.4748
  75   2.0000      -0.334637        -9.1059
  76   2.0000      -0.327785        -8.9195
  77   2.0000      -0.318681        -8.6718
  78   2.0000      -0.318215        -8.6591
  79   2.0000      -0.311404        -8.4737
  80   2.0000      -0.291432        -7.9303
  81   2.0000      -0.286767        -7.8033
  82   2.0000      -0.282475        -7.6865
  83   2.0000      -0.266492        -7.2516
  84   2.0000      -0.257642        -7.0108
  85   2.0000      -0.250470        -6.8156
  86   2.0000      -0.246733        -6.7139
  87   2.0000      -0.228980        -6.2309
  88   2.0000      -0.214229        -5.8295
  89   2.0000      -0.203530        -5.5383
  90   2.0000      -0.188033        -5.1166
  91   2.0000      -0.183221        -4.9857
  92   2.0000      -0.182459        -4.9650
  93   2.0000      -0.173890        -4.7318
  94   2.0000      -0.171355        -4.6628
  95   2.0000      -0.165853        -4.5131
  96   2.0000      -0.160628        -4.3709
  97   2.0000      -0.152758        -4.1567
  98   2.0000      -0.148260        -4.0343
  99   2.0000      -0.139973        -3.8089
 100   0.0000       0.068858         1.8737
 101   0.0000       0.100019         2.7217
 102   0.0000       0.109542         2.9808
 103   0.0000       0.124060         3.3759
 104   0.0000       0.129484         3.5234

MULLIKEN ATOMIC CHARGES
-----------------------
   0 C :   -0.283772
   1 C :    0.129240
   2 C :   -0.225400
   3 C :   -0.237860
   4 C :   -0.211425
   5 C :   -0.269870
   6 H :    0.292886
   7 H :    0.243840
   8 H :    0.192752
   9 H :    0.197237
  10 H :    0.192349
  11 C :   -0.489272
  12 C :   -0.506131
  13 H :    0.198666
  14 H :    0.275922
  15 C :    0.034210
  16 H :    0.262649
  17 H :    0.202031
  18 C :   -0.108037
  19 C :   -0.291465
  20 C :   -0.221839
  21 C :   -0.248690
  22 C :   -0.235539
  23 H :    0.265046
  24 H :    0.188732
  25 H :    0.176455
  26 H :    0.183597
  27 Pd:    0.144077
  28 Br:   -0.459157
  29 P :   -0.124196
  30 H :    0.119620
  31 C :    0.690300
  32 O :   -0.513368
  33 O :   -0.565106
  34 O :   -0.622663
  35 H :    0.084343
  36 H :    0.139943
  37 H :    0.399894
Sum of atomic charges:   -1.0000000

LOEWDIN ATOMIC CHARGES
----------------------
   0 C :   -0.104853
   1 C :   -0.039103
   2 C :   -0.135713
   3 C :   -0.162967
   4 C :   -0.158329
   5 C :   -0.146245
   6 H :    0.197429
   7 H :    0.147031
   8 H :    0.122935
   9 H :    0.127334
  10 H :    0.124797
  11 C :   -0.208559
  12 C :   -0.217685
  13 H :    0.121084
  14 H :    0.160714
  15 C :   -0.048229
  16 H :    0.148079
  17 H :    0.118905
  18 C :   -0.046438
  19 C :   -0.127941
  20 C :   -0.155385
  21 C :   -0.157302
  22 C :   -0.161595
  23 H :    0.159331
  24 H :    0.123293
  25 H :    0.120424
  26 H :    0.119791
  27 Pd:   -0.791680
  28 Br:   -0.246435
  29 P :    0.440138
  30 H :    0.054054
  31 C :    0.133698
  32 O :   -0.317020
  33 O :   -0.250193
  34 O :   -0.352483
  35 H :    0.030853
  36 H :    0.070950
  37 H :    0.307316

  Mayer bond orders larger than 0.100000
B(  0-C ,  1-C ) :   1.3577 B(  0-C ,  2-C ) :   1.4347 B(  0-C ,  6-H ) :   0.8736
B(  1-C ,  5-C ) :   1.4166 B(  1-C , 11-C ) :   0.9366 B(  2-C ,  3-C ) :   1.4069
B(  2-C ,  7-H ) :   0.9068 B(  3-C ,  4-C ) :   1.4369 B(  3-C ,  9-H ) :   0.9245
B(  4-C ,  5-C ) :   1.4217 B(  4-C , 10-H ) :   0.9271 B(  5-C ,  8-H ) :   0.9218
B( 11-C , 12-C ) :   0.9083 B( 11-C , 13-H ) :   0.9344 B( 11-C , 14-H ) :   0.8934
B( 12-C , 15-C ) :   0.9761 B( 12-C , 16-H ) :   0.8940 B( 12-C , 17-H ) :   0.9317
B( 15-C , 18-C ) :   1.3331 B( 15-C , 21-C ) :   1.4027 B( 18-C , 19-C ) :   1.4239
B( 18-C , 27-Pd) :   0.7001 B( 18-C , 28-Br) :   0.1151 B( 19-C , 20-C ) :   1.3919
B( 19-C , 23-H ) :   0.8794 B( 20-C , 22-C ) :   1.4389 B( 20-C , 24-H ) :   0.9274
B( 21-C , 22-C ) :   1.4186 B( 21-C , 25-H ) :   0.9265 B( 22-C , 26-H ) :   0.9279
B( 27-Pd, 28-Br) :   0.5721 B( 27-Pd, 29-P ) :   0.8491 B( 27-Pd, 33-O ) :   0.4789
B( 28-Br, 29-P ) :   0.1298 B( 29-P , 30-H ) :   0.9170 B( 29-P , 35-H ) :   0.9001
B( 29-P , 36-H ) :   0.9246 B( 31-C , 32-O ) :   1.8469 B( 31-C , 33-O ) :   1.3708
B( 31-C , 34-O ) :   1.0314 B( 34-O , 37-H ) :   0.7914

Dispersion correction           -0.030473607
FINAL SINGLE POINT ENERGY     -3847.682867340916
Dispersion correction            ... done

DIPOLE MOMENT
-------------
                                X             Y             Z
Electronic contribution:     13.70638     -83.55231     -45.16481
Nuclear contribution   :    -12.95922      84.54557      47.94517
                        -----------------------------------------
Total Dipole Moment    :      0.74715       0.99326       2.78036
                        -----------------------------------------
Magnitude (a.u.)       :      3.04553
Magnitude (Debye)      :      7.74111

Rotational constants in cm-1:     0.006785     0.005839     0.004184
Rotational constants in MHz :   203.405517   175.063495   125.441524

                             ****ORCA TERMINATED NORMALLY****
TOTAL RUN TIME: 0 days 0 hours 22 minutes 39 seconds 755 msec
