                         Program Version 5.0.3 -  RELEASE  -
|  1> ! EnGrad PBEh-3c
|  2> %output
|  3> xyzfile=True
|  4> end
|  5> %scf
|  6> maxiter 250
|  7> end
|  8> %output
|  9> Print[P_Hirshfeld] = 1
| 10> end
| 11> % maxcore
| 12> 4000
| 13> *xyz -1 1
| 14> C   -2.56048402  -0.17610014   0.44724968
| 15> C   -1.96046838   0.96212890   1.26147486
| 16> C   -3.85082222  -0.52177218   0.79632038
| 17> C   -4.74198876   0.38271652   1.43890536
| 18> C   -4.25326056   1.55412386   1.95416571
| 19> C   -2.86791778   1.76231441   1.95888654
| 20> H   -2.28089650  -0.70223121  -0.45784111
| 21> H   -4.15156596  -1.55115334   0.62999743
| 22> H   -2.49413417   2.63767966   2.41576397
| 23> H   -5.76073354   0.23322039   1.22924872
| 24> H   -4.92813281   2.32603356   2.29245745
| 25> C   -0.51445250   1.44445577   1.29777899
| 26> C    0.63407462   0.45313313   1.71973771
| 27> H   -0.46171473   2.29656602   1.99114058
| 28> H   -0.33952265   1.78406135   0.27854009
| 29> C    1.77575931   0.55058043   0.72967627
| 30> H    0.22512127  -0.55770232   1.75052436
| 31> H    0.97818896   0.71947140   2.73823703
| 32> C    1.71925109  -0.13231701  -0.52240936
| 33> C    2.78510648   0.14705472  -1.38751155
| 34> C    3.78583710   1.09078417  -1.10977534
| 35> C    2.82827390   1.44083383   1.05221580
| 36> C    3.80576703   1.76137079   0.11129950
| 37> H    2.85846804  -0.42312578  -2.31103331
| 38> H    4.53772292   1.31869781  -1.85813128
| 39> H    2.94347358   1.81821493   2.06909982
| 40> H    4.57010522   2.50481832   0.34538590
| 41> Pd   0.26331207  -1.66640459  -1.02506606
| 42> Br  -1.39530947  -3.68337412  -0.85612354
| 43> P    1.39649072  -2.99690705   0.24448772
| 44> H    0.80052262  -3.55255119   1.37682378
| 45> C    0.43042331  -1.23405038  -3.89220302
| 46> O    1.55507353  -1.63094408  -4.21043208
| 47> O   -0.40206881  -1.66428503  -3.10713280
| 48> O   -0.01209396  -0.08043055  -4.54029897
| 49> H    2.69384810  -2.75092045   0.73186173
| 50> H    1.66369161  -4.14033503  -0.52596709
| 51> H    0.72065988   0.27516172  -5.05439064
| 52> *
| 53>
| 54>                          ****END OF INPUT****

CARTESIAN COORDINATES (ANGSTROEM)
---------------------------------
  C     -2.560484   -0.176100    0.447250
  C     -1.960468    0.962129    1.261475
  C     -3.850822   -0.521772    0.796320
  C     -4.741989    0.382717    1.438905
  C     -4.253261    1.554124    1.954166
  C     -2.867918    1.762314    1.958887
  H     -2.280896   -0.702231   -0.457841
  H     -4.151566   -1.551153    0.629997
  H     -2.494134    2.637680    2.415764
  H     -5.760734    0.233220    1.229249
  H     -4.928133    2.326034    2.292457
  C     -0.514452    1.444456    1.297779
  C      0.634075    0.453133    1.719738
  H     -0.461715    2.296566    1.991141
  H     -0.339523    1.784061    0.278540
  C      1.775759    0.550580    0.729676
  H      0.225121   -0.557702    1.750524
  H      0.978189    0.719471    2.738237
  C      1.719251   -0.132317   -0.522409
  C      2.785106    0.147055   -1.387512
  C      3.785837    1.090784   -1.109775
  C      2.828274    1.440834    1.052216
  C      3.805767    1.761371    0.111299
  H      2.858468   -0.423126   -2.311033
  H      4.537723    1.318698   -1.858131
  H      2.943474    1.818215    2.069100
  H      4.570105    2.504818    0.345386
  Pd     0.263312   -1.666405   -1.025066
  Br    -1.395309   -3.683374   -0.856124
  P      1.396491   -2.996907    0.244488
  H      0.800523   -3.552551    1.376824
  C      0.430423   -1.234050   -3.892203
  O      1.555074   -1.630944   -4.210432
  O     -0.402069   -1.664285   -3.107133
  O     -0.012094   -0.080431   -4.540299
  H      2.693848   -2.750920    0.731862
  H      1.663692   -4.140335   -0.525967
  H      0.720660    0.275162   -5.054391

 Total Charge           Charge          ....   -1
 Multiplicity           Mult            ....    1
 Number of Electrons    NEL             ....  200
 Basis Dimension        Dim             ....  385

ORBITAL ENERGIES
----------------

  NO   OCC          E(Eh)            E(eV)
   0   2.0000    -484.330310    -13179.2978
   1   2.0000     -77.686563     -2113.9588
   2   2.0000     -62.992109     -1714.1024
   3   2.0000     -56.695835     -1542.7721
   4   2.0000     -56.694750     -1542.7426
   5   2.0000     -56.694639     -1542.7396
   6   2.0000     -19.352856      -526.6180
   7   2.0000     -19.312228      -525.5124
   8   2.0000     -19.288088      -524.8556
   9   2.0000     -10.427650      -283.7508
  10   2.0000     -10.379679      -282.4454
  11   2.0000     -10.360860      -281.9333
  12   2.0000     -10.354359      -281.7564
  13   2.0000     -10.354074      -281.7487
  14   2.0000     -10.352120      -281.6955
  15   2.0000     -10.351365      -281.6750
  16   2.0000     -10.349937      -281.6361
  17   2.0000     -10.349609      -281.6272
  18   2.0000     -10.348834      -281.6061
  19   2.0000     -10.348060      -281.5850
  20   2.0000     -10.347202      -281.5617
  21   2.0000     -10.346638      -281.5463
  22   2.0000     -10.342037      -281.4211
  23   2.0000     -10.331447      -281.1330
  24   2.0000      -8.819468      -239.9899
  25   2.0000      -6.760895      -183.9733
  26   2.0000      -6.589390      -179.3064
  27   2.0000      -6.584174      -179.1645
  28   2.0000      -6.583445      -179.1446
  29   2.0000      -4.851983      -132.0292
  30   2.0000      -4.851828      -132.0250
  31   2.0000      -4.850502      -131.9889
  32   2.0000      -3.532069       -96.1125
  33   2.0000      -2.603349       -70.8407
  34   2.0000      -2.602125       -70.8074
  35   2.0000      -2.601489       -70.7901
  36   2.0000      -2.596991       -70.6677
  37   2.0000      -2.596961       -70.6669
  38   2.0000      -2.179872       -59.3173
  39   2.0000      -2.173455       -59.1427
  40   2.0000      -2.146751       -58.4161
  41   2.0000      -1.055652       -28.7258
  42   2.0000      -0.948642       -25.8139
  43   2.0000      -0.918637       -24.9974
  44   2.0000      -0.855631       -23.2829
  45   2.0000      -0.843042       -22.9403
  46   2.0000      -0.786707       -21.4074
  47   2.0000      -0.746699       -20.3187
  48   2.0000      -0.738876       -20.1058
  49   2.0000      -0.719926       -19.5902
  50   2.0000      -0.687910       -18.7190
  51   2.0000      -0.663078       -18.0433
  52   2.0000      -0.636047       -17.3077
  53   2.0000      -0.624971       -17.0063
  54   2.0000      -0.576749       -15.6941
  55   2.0000      -0.563483       -15.3332
  56   2.0000      -0.558885       -15.2080
  57   2.0000      -0.538660       -14.6577
  58   2.0000      -0.507089       -13.7986
  59   2.0000      -0.482700       -13.1349
  60   2.0000      -0.461666       -12.5626
  61   2.0000      -0.442165       -12.0319
  62   2.0000      -0.429026       -11.6744
  63   2.0000      -0.413130       -11.2418
  64   2.0000      -0.403503       -10.9799
  65   2.0000      -0.394464       -10.7339
  66   2.0000      -0.386726       -10.5234
  67   2.0000      -0.383012       -10.4223
  68   2.0000      -0.381490       -10.3809
  69   2.0000      -0.377302       -10.2669
  70   2.0000      -0.372899       -10.1471
  71   2.0000      -0.369508       -10.0548
  72   2.0000      -0.361074        -9.8253
  73   2.0000      -0.355184        -9.6651
  74   2.0000      -0.348459        -9.4821
  75   2.0000      -0.333144        -9.0653
  76   2.0000      -0.328735        -8.9453
  77   2.0000      -0.324243        -8.8231
  78   2.0000      -0.320677        -8.7261
  79   2.0000      -0.306593        -8.3428
  80   2.0000      -0.295767        -8.0482
  81   2.0000      -0.291932        -7.9439
  82   2.0000      -0.283910        -7.7256
  83   2.0000      -0.270900        -7.3716
  84   2.0000      -0.259865        -7.0713
  85   2.0000      -0.254751        -6.9321
  86   2.0000      -0.241478        -6.5709
  87   2.0000      -0.230858        -6.2820
  88   2.0000      -0.207417        -5.6441
  89   2.0000      -0.204058        -5.5527
  90   2.0000      -0.186309        -5.0697
  91   2.0000      -0.181006        -4.9254
  92   2.0000      -0.179206        -4.8764
  93   2.0000      -0.173342        -4.7169
  94   2.0000      -0.170098        -4.6286
  95   2.0000      -0.165865        -4.5134
  96   2.0000      -0.156185        -4.2500
  97   2.0000      -0.155741        -4.2379
  98   2.0000      -0.149958        -4.0806
  99   2.0000      -0.143408        -3.9023
 100   0.0000       0.059731         1.6254
 101   0.0000       0.095698         2.6041
 102   0.0000       0.108393         2.9495
 103   0.0000       0.121130         3.2961
 104   0.0000       0.125856         3.4247

MULLIKEN ATOMIC CHARGES
-----------------------
   0 C :   -0.259487
   1 C :    0.080306
   2 C :   -0.240555
   3 C :   -0.232752
   4 C :   -0.212250
   5 C :   -0.256143
   6 H :    0.294602
   7 H :    0.244011
   8 H :    0.195529
   9 H :    0.204774
  10 H :    0.192558
  11 C :   -0.485327
  12 C :   -0.509016
  13 H :    0.206864
  14 H :    0.277609
  15 C :    0.037608
  16 H :    0.263261
  17 H :    0.202531
  18 C :   -0.119561
  19 C :   -0.287213
  20 C :   -0.225631
  21 C :   -0.256974
  22 C :   -0.230340
  23 H :    0.270257
  24 H :    0.191547
  25 H :    0.179898
  26 H :    0.184641
  27 Pd:    0.155238
  28 Br:   -0.468809
  29 P :   -0.117958
  30 H :    0.125543
  31 C :    0.669743
  32 O :   -0.556197
  33 O :   -0.514380
  34 O :   -0.643135
  35 H :    0.092084
  36 H :    0.148557
  37 H :    0.398568
Sum of atomic charges:   -1.0000000

LOEWDIN ATOMIC CHARGES
----------------------
   0 C :   -0.104623
   1 C :   -0.023468
   2 C :   -0.130332
   3 C :   -0.164870
   4 C :   -0.152946
   5 C :   -0.160895
   6 H :    0.190919
   7 H :    0.145091
   8 H :    0.124241
   9 H :    0.130133
  10 H :    0.124006
  11 C :   -0.215998
  12 C :   -0.215738
  13 H :    0.125222
  14 H :    0.160538
  15 C :   -0.047539
  16 H :    0.148990
  17 H :    0.118790
  18 C :   -0.046761
  19 C :   -0.125238
  20 C :   -0.155321
  21 C :   -0.157829
  22 C :   -0.159271
  23 H :    0.162887
  24 H :    0.124521
  25 H :    0.120992
  26 H :    0.120215
  27 Pd:   -0.761447
  28 Br:   -0.259394
  29 P :    0.443516
  30 H :    0.058599
  31 C :    0.105961
  32 O :   -0.364329
  33 O :   -0.200595
  34 O :   -0.374135
  35 H :    0.036310
  36 H :    0.077096
  37 H :    0.302698

  Mayer bond orders larger than 0.100000
B(  0-C ,  1-C ) :   1.2818 B(  0-C ,  2-C ) :   1.5235 B(  0-C ,  6-H ) :   0.8739
B(  1-C ,  5-C ) :   1.4941 B(  1-C , 11-C ) :   0.9547 B(  2-C ,  3-C ) :   1.3321
B(  2-C ,  7-H ) :   0.9060 B(  3-C ,  4-C ) :   1.5060 B(  3-C ,  9-H ) :   0.9234
B(  4-C ,  5-C ) :   1.3579 B(  4-C , 10-H ) :   0.9268 B(  5-C ,  8-H ) :   0.9202
B( 11-C , 12-C ) :   0.9065 B( 11-C , 13-H ) :   0.9297 B( 11-C , 14-H ) :   0.8922
B( 12-C , 15-C ) :   0.9687 B( 12-C , 16-H ) :   0.8945 B( 12-C , 17-H ) :   0.9333
B( 15-C , 18-C ) :   1.3433 B( 15-C , 21-C ) :   1.4006 B( 18-C , 19-C ) :   1.4185
B( 18-C , 27-Pd) :   0.7079 B( 18-C , 28-Br) :   0.1136 B( 19-C , 20-C ) :   1.3957
B( 19-C , 23-H ) :   0.8737 B( 20-C , 22-C ) :   1.4330 B( 20-C , 24-H ) :   0.9267
B( 21-C , 22-C ) :   1.4245 B( 21-C , 25-H ) :   0.9265 B( 22-C , 26-H ) :   0.9276
B( 27-Pd, 28-Br) :   0.5616 B( 27-Pd, 29-P ) :   0.8385 B( 27-Pd, 33-O ) :   0.4214
B( 28-Br, 29-P ) :   0.1310 B( 29-P , 30-H ) :   0.9190 B( 29-P , 35-H ) :   0.9017
B( 29-P , 36-H ) :   0.9264 B( 31-C , 32-O ) :   1.7876 B( 31-C , 33-O ) :   1.4938
B( 31-C , 34-O ) :   1.0003 B( 34-O , 37-H ) :   0.7937

Dispersion correction           -0.030495829
FINAL SINGLE POINT ENERGY     -3847.674363294975
Dispersion correction            ... done

DIPOLE MOMENT
-------------
                                X             Y             Z
Electronic contribution:     12.45248     -82.80323     -42.72583
Nuclear contribution   :    -11.65571      83.80700      45.92070
                        -----------------------------------------
Total Dipole Moment    :      0.79677       1.00377       3.19487
                        -----------------------------------------
Magnitude (a.u.)       :      3.44232
Magnitude (Debye)      :      8.74968

Rotational constants in cm-1:     0.006747     0.005861     0.004209
Rotational constants in MHz :   202.284250   175.698352   126.178306

                             ****ORCA TERMINATED NORMALLY****
TOTAL RUN TIME: 0 days 0 hours 28 minutes 36 seconds 402 msec
