                         Program Version 5.0.3 -  RELEASE  -
|  1> ! EnGrad PBEh-3c
|  2> %output
|  3> xyzfile=True
|  4> end
|  5> %scf
|  6> maxiter 250
|  7> end
|  8> %output
|  9> Print[P_Hirshfeld] = 1
| 10> end
| 11> % maxcore
| 12> 4000
| 13> *xyz -1 1
| 14> C   -2.54681414  -0.18071843   0.45350041
| 15> C   -1.95126139   1.01836920   1.26064752
| 16> C   -3.79666869  -0.51073547   0.79159100
| 17> C   -4.73078899   0.39392017   1.36708923
| 18> C   -4.26142802   1.56388693   1.88721744
| 19> C   -2.89922554   1.77170148   1.92873951
| 20> H   -2.17670929  -0.75560102  -0.47509794
| 21> H   -4.13040315  -1.51842525   0.50523445
| 22> H   -2.49950406   2.70269424   2.37593783
| 23> H   -5.78900253   0.20000852   1.20903948
| 24> H   -4.92762052   2.30662524   2.24650864
| 25> C   -0.50973139   1.45666697   1.35803818
| 26> C    0.62577991   0.45002147   1.74621644
| 27> H   -0.47390919   2.22891761   2.09004970
| 28> H   -0.25882225   1.85912423   0.39596091
| 29> C    1.74849285   0.55768295   0.74120263
| 30> H    0.24137792  -0.57688306   1.78583917
| 31> H    1.01585320   0.67392695   2.75627727
| 32> C    1.71418070  -0.14532259  -0.49113355
| 33> C    2.74950012   0.15007178  -1.38955896
| 34> C    3.74046312   1.10220687  -1.11877881
| 35> C    2.83670100   1.39628682   1.05302612
| 36> C    3.77956147   1.75859534   0.10224948
| 37> H    2.81085756  -0.39955391  -2.32141551
| 38> H    4.50310483   1.31395112  -1.86274575
| 39> H    2.93748900   1.82558658   2.05164835
| 40> H    4.56710102   2.48512515   0.33296337
| 41> Pd   0.27144040  -1.62097707  -0.98579606
| 42> Br  -1.42034034  -3.65092560  -0.79471150
| 43> P    1.41977604  -3.01502760   0.23061763
| 44> H    0.86190834  -3.57360029   1.36449733
| 45> C    0.47579144  -1.22543494  -3.92490547
| 46> O    1.50184779  -1.64080723  -4.20501009
| 47> O   -0.42371730  -1.70385344  -3.08810542
| 48> O   -0.04860494  -0.09123927  -4.49507093
| 49> H    2.71269772  -2.74417917   0.65892532
| 50> H    1.65085324  -4.12843763  -0.56115352
| 51> H    0.67687538   0.26136690  -4.97815188
| 52> *
| 53>
| 54>                          ****END OF INPUT****

CARTESIAN COORDINATES (ANGSTROEM)
---------------------------------
  C     -2.546814   -0.180718    0.453500
  C     -1.951261    1.018369    1.260648
  C     -3.796669   -0.510735    0.791591
  C     -4.730789    0.393920    1.367089
  C     -4.261428    1.563887    1.887217
  C     -2.899226    1.771701    1.928740
  H     -2.176709   -0.755601   -0.475098
  H     -4.130403   -1.518425    0.505234
  H     -2.499504    2.702694    2.375938
  H     -5.789003    0.200009    1.209039
  H     -4.927621    2.306625    2.246509
  C     -0.509731    1.456667    1.358038
  C      0.625780    0.450021    1.746216
  H     -0.473909    2.228918    2.090050
  H     -0.258822    1.859124    0.395961
  C      1.748493    0.557683    0.741203
  H      0.241378   -0.576883    1.785839
  H      1.015853    0.673927    2.756277
  C      1.714181   -0.145323   -0.491134
  C      2.749500    0.150072   -1.389559
  C      3.740463    1.102207   -1.118779
  C      2.836701    1.396287    1.053026
  C      3.779561    1.758595    0.102249
  H      2.810858   -0.399554   -2.321416
  H      4.503105    1.313951   -1.862746
  H      2.937489    1.825587    2.051648
  H      4.567101    2.485125    0.332963
  Pd     0.271440   -1.620977   -0.985796
  Br    -1.420340   -3.650926   -0.794712
  P      1.419776   -3.015028    0.230618
  H      0.861908   -3.573600    1.364497
  C      0.475791   -1.225435   -3.924905
  O      1.501848   -1.640807   -4.205010
  O     -0.423717   -1.703853   -3.088105
  O     -0.048605   -0.091239   -4.495071
  H      2.712698   -2.744179    0.658925
  H      1.650853   -4.128438   -0.561154
  H      0.676875    0.261367   -4.978152

 Total Charge           Charge          ....   -1
 Multiplicity           Mult            ....    1
 Number of Electrons    NEL             ....  200
 Basis Dimension        Dim             ....  385

ORBITAL ENERGIES
----------------

  NO   OCC          E(Eh)            E(eV)
   0   2.0000    -484.321196    -13179.0498
   1   2.0000     -77.679048     -2113.7544
   2   2.0000     -62.982949     -1713.8532
   3   2.0000     -56.686638     -1542.5218
   4   2.0000     -56.685617     -1542.4941
   5   2.0000     -56.685504     -1542.4910
   6   2.0000     -19.363185      -526.8990
   7   2.0000     -19.313344      -525.5428
   8   2.0000     -19.289816      -524.9026
   9   2.0000     -10.427537      -283.7477
  10   2.0000     -10.376015      -282.3457
  11   2.0000     -10.359668      -281.9009
  12   2.0000     -10.351853      -281.6882
  13   2.0000     -10.351290      -281.6729
  14   2.0000     -10.348367      -281.5934
  15   2.0000     -10.347448      -281.5684
  16   2.0000     -10.346634      -281.5462
  17   2.0000     -10.346355      -281.5386
  18   2.0000     -10.345686      -281.5204
  19   2.0000     -10.345075      -281.5038
  20   2.0000     -10.345065      -281.5035
  21   2.0000     -10.343163      -281.4518
  22   2.0000     -10.341242      -281.3995
  23   2.0000     -10.331453      -281.1331
  24   2.0000      -8.810246      -239.7390
  25   2.0000      -6.754684      -183.8043
  26   2.0000      -6.579976      -179.0502
  27   2.0000      -6.575116      -178.9180
  28   2.0000      -6.574256      -178.8946
  29   2.0000      -4.845748      -131.8595
  30   2.0000      -4.845560      -131.8544
  31   2.0000      -4.844169      -131.8166
  32   2.0000      -3.525490       -95.9335
  33   2.0000      -2.593971       -70.5855
  34   2.0000      -2.592868       -70.5555
  35   2.0000      -2.592129       -70.5354
  36   2.0000      -2.587939       -70.4214
  37   2.0000      -2.587894       -70.4202
  38   2.0000      -2.171876       -59.0998
  39   2.0000      -2.167767       -58.9879
  40   2.0000      -2.140128       -58.2358
  41   2.0000      -1.081887       -29.4397
  42   2.0000      -0.979734       -26.6599
  43   2.0000      -0.897197       -24.4140
  44   2.0000      -0.857050       -23.3215
  45   2.0000      -0.845789       -23.0151
  46   2.0000      -0.789166       -21.4743
  47   2.0000      -0.747154       -20.3311
  48   2.0000      -0.738624       -20.0990
  49   2.0000      -0.720471       -19.6050
  50   2.0000      -0.688433       -18.7332
  51   2.0000      -0.660748       -17.9799
  52   2.0000      -0.628736       -17.1088
  53   2.0000      -0.625618       -17.0239
  54   2.0000      -0.570792       -15.5320
  55   2.0000      -0.564477       -15.3602
  56   2.0000      -0.552707       -15.0399
  57   2.0000      -0.539155       -14.6711
  58   2.0000      -0.511366       -13.9150
  59   2.0000      -0.479277       -13.0418
  60   2.0000      -0.463353       -12.6085
  61   2.0000      -0.438998       -11.9457
  62   2.0000      -0.422307       -11.4916
  63   2.0000      -0.411213       -11.1897
  64   2.0000      -0.402991       -10.9659
  65   2.0000      -0.398410       -10.8413
  66   2.0000      -0.386028       -10.5044
  67   2.0000      -0.383053       -10.4234
  68   2.0000      -0.381201       -10.3730
  69   2.0000      -0.380481       -10.3534
  70   2.0000      -0.376768       -10.2524
  71   2.0000      -0.370446       -10.0803
  72   2.0000      -0.370071       -10.0702
  73   2.0000      -0.356634        -9.7045
  74   2.0000      -0.347599        -9.4587
  75   2.0000      -0.332814        -9.0563
  76   2.0000      -0.328098        -8.9280
  77   2.0000      -0.322067        -8.7639
  78   2.0000      -0.315849        -8.5947
  79   2.0000      -0.311614        -8.4794
  80   2.0000      -0.297954        -8.1077
  81   2.0000      -0.295276        -8.0349
  82   2.0000      -0.279155        -7.5962
  83   2.0000      -0.271852        -7.3975
  84   2.0000      -0.255984        -6.9657
  85   2.0000      -0.251939        -6.8556
  86   2.0000      -0.236396        -6.4327
  87   2.0000      -0.226301        -6.1580
  88   2.0000      -0.221664        -6.0318
  89   2.0000      -0.201574        -5.4851
  90   2.0000      -0.190035        -5.1711
  91   2.0000      -0.185214        -5.0399
  92   2.0000      -0.178435        -4.8555
  93   2.0000      -0.173297        -4.7157
  94   2.0000      -0.168799        -4.5932
  95   2.0000      -0.156591        -4.2610
  96   2.0000      -0.154070        -4.1925
  97   2.0000      -0.149156        -4.0587
  98   2.0000      -0.143463        -3.9038
  99   2.0000      -0.128963        -3.5092
 100   0.0000       0.066817         1.8182
 101   0.0000       0.099290         2.7018
 102   0.0000       0.120887         3.2895
 103   0.0000       0.122171         3.3244
 104   0.0000       0.128012         3.4834

MULLIKEN ATOMIC CHARGES
-----------------------
   0 C :   -0.267140
   1 C :    0.074342
   2 C :   -0.215034
   3 C :   -0.241786
   4 C :   -0.198807
   5 C :   -0.259947
   6 H :    0.296984
   7 H :    0.239944
   8 H :    0.183376
   9 H :    0.199742
  10 H :    0.193678
  11 C :   -0.484381
  12 C :   -0.511904
  13 H :    0.214560
  14 H :    0.279342
  15 C :    0.054924
  16 H :    0.265366
  17 H :    0.204662
  18 C :   -0.139000
  19 C :   -0.274034
  20 C :   -0.234062
  21 C :   -0.271280
  22 C :   -0.219628
  23 H :    0.258900
  24 H :    0.188764
  25 H :    0.177304
  26 H :    0.183918
  27 Pd:    0.156754
  28 Br:   -0.487232
  29 P :   -0.125753
  30 H :    0.125738
  31 C :    0.640414
  32 O :   -0.441805
  33 O :   -0.586532
  34 O :   -0.614458
  35 H :    0.090658
  36 H :    0.149722
  37 H :    0.393691
Sum of atomic charges:   -1.0000000

LOEWDIN ATOMIC CHARGES
----------------------
   0 C :   -0.099519
   1 C :   -0.022620
   2 C :   -0.137030
   3 C :   -0.153503
   4 C :   -0.157825
   5 C :   -0.160732
   6 H :    0.201264
   7 H :    0.143169
   8 H :    0.120827
   9 H :    0.128551
  10 H :    0.124661
  11 C :   -0.221939
  12 C :   -0.213115
  13 H :    0.128676
  14 H :    0.159645
  15 C :   -0.049465
  16 H :    0.151535
  17 H :    0.118861
  18 C :   -0.039445
  19 C :   -0.128049
  20 C :   -0.153311
  21 C :   -0.152458
  22 C :   -0.162901
  23 H :    0.158257
  24 H :    0.122498
  25 H :    0.119082
  26 H :    0.120492
  27 Pd:   -0.765428
  28 Br:   -0.284727
  29 P :    0.434493
  30 H :    0.058289
  31 C :    0.080018
  32 O :   -0.233542
  33 O :   -0.297937
  34 O :   -0.346423
  35 H :    0.035337
  36 H :    0.076539
  37 H :    0.297773

  Mayer bond orders larger than 0.100000
B(  0-C ,  1-C ) :   1.2424 B(  0-C ,  2-C ) :   1.5550 B(  0-C ,  6-H ) :   0.8627
B(  1-C ,  5-C ) :   1.5213 B(  1-C , 11-C ) :   0.9724 B(  2-C ,  3-C ) :   1.3071
B(  2-C ,  7-H ) :   0.9058 B(  3-C ,  4-C ) :   1.5217 B(  3-C ,  9-H ) :   0.9259
B(  4-C ,  5-C ) :   1.3370 B(  4-C , 10-H ) :   0.9265 B(  5-C ,  8-H ) :   0.9223
B( 11-C , 12-C ) :   0.9090 B( 11-C , 13-H ) :   0.9246 B( 11-C , 14-H ) :   0.8913
B( 12-C , 15-C ) :   0.9619 B( 12-C , 16-H ) :   0.8932 B( 12-C , 17-H ) :   0.9338
B( 15-C , 18-C ) :   1.3530 B( 15-C , 21-C ) :   1.4026 B( 18-C , 19-C ) :   1.4138
B( 18-C , 27-Pd) :   0.7387 B( 18-C , 28-Br) :   0.1078 B( 19-C , 20-C ) :   1.4047
B( 19-C , 23-H ) :   0.8838 B( 20-C , 22-C ) :   1.4294 B( 20-C , 24-H ) :   0.9267
B( 21-C , 22-C ) :   1.4248 B( 21-C , 25-H ) :   0.9275 B( 22-C , 26-H ) :   0.9279
B( 27-Pd, 28-Br) :   0.5324 B( 27-Pd, 29-P ) :   0.8084 B( 27-Pd, 33-O ) :   0.4920
B( 28-Br, 29-P ) :   0.1341 B( 29-P , 30-H ) :   0.9202 B( 29-P , 35-H ) :   0.9024
B( 29-P , 36-H ) :   0.9276 B( 31-C , 32-O ) :   1.9458 B( 31-C , 33-O ) :   1.3364
B( 31-C , 34-O ) :   1.0307 B( 34-O , 37-H ) :   0.7969

Dispersion correction           -0.030634418
FINAL SINGLE POINT ENERGY     -3847.658682278855
Dispersion correction            ... done

DIPOLE MOMENT
-------------
                                X             Y             Z
Electronic contribution:     13.37398     -80.19059     -40.99446
Nuclear contribution   :    -12.17986      81.30933      43.82073
                        -----------------------------------------
Total Dipole Moment    :      1.19412       1.11874       2.82627
                        -----------------------------------------
Magnitude (a.u.)       :      3.26578
Magnitude (Debye)      :      8.30095

Rotational constants in cm-1:     0.006799     0.005894     0.004256
Rotational constants in MHz :   203.823356   176.693414   127.596601

                             ****ORCA TERMINATED NORMALLY****
TOTAL RUN TIME: 0 days 0 hours 22 minutes 36 seconds 825 msec
