                         Program Version 5.0.3 -  RELEASE  -
|  1> ! EnGrad PBEh-3c
|  2> %output
|  3> xyzfile=True
|  4> end
|  5> %scf
|  6> maxiter 250
|  7> end
|  8> %output
|  9> Print[P_Hirshfeld] = 1
| 10> end
| 11> % maxcore
| 12> 4000
| 13> *xyz -1 1
| 14> C   -2.52061799  -0.18860811   0.46705408
| 15> C   -1.95816829   1.01281583   1.25043878
| 16> C   -3.80685349  -0.52298568   0.81553807
| 17> C   -4.72927126   0.38943585   1.36722933
| 18> C   -4.25583465   1.56301122   1.88547355
| 19> C   -2.88454006   1.79104304   1.93075040
| 20> H   -2.14878266  -0.79015804  -0.44151132
| 21> H   -4.14003635  -1.49690868   0.48492561
| 22> H   -2.49461906   2.71432810   2.36960756
| 23> H   -5.79226341   0.18658071   1.26154998
| 24> H   -4.91893860   2.30594967   2.26932480
| 25> C   -0.52356989   1.43822647   1.34009014
| 26> C    0.60963074   0.45109966   1.73294136
| 27> H   -0.48358639   2.22369874   2.06374620
| 28> H   -0.25183456   1.85908049   0.39497626
| 29> C    1.73949837   0.55625063   0.73789675
| 30> H    0.24180586  -0.57646109   1.78326783
| 31> H    1.00331811   0.67225595   2.73646065
| 32> C    1.71835894  -0.14928938  -0.49008093
| 33> C    2.75231958   0.14276251  -1.38587017
| 34> C    3.73361606   1.09975280  -1.12069114
| 35> C    2.82705153   1.38765315   1.04785371
| 36> C    3.77445935   1.74937724   0.10152375
| 37> H    2.81270175  -0.40028474  -2.32247009
| 38> H    4.50484257   1.30302763  -1.85399696
| 39> H    2.91278049   1.83657192   2.03381713
| 40> H    4.55718601   2.47492141   0.32965870
| 41> Pd   0.29352782  -1.59933029  -0.98606837
| 42> Br  -1.41382274  -3.62952150  -0.81760486
| 43> P    1.40890613  -3.01138286   0.23034341
| 44> H    0.85197220  -3.57172155   1.36385670
| 45> C    0.38385111  -1.18720408  -3.88395500
| 46> O    1.57877405  -1.67345959  -4.22522982
| 47> O   -0.38538717  -1.65596334  -3.09077508
| 48> O   -0.03533776  -0.09074438  -4.50426704
| 49> H    2.69983425  -2.73551604   0.66400390
| 50> H    1.64610680  -4.13398743  -0.54600063
| 51> H    0.69065421   0.24911758  -4.99387681
| 52> *
| 53>
| 54>                          ****END OF INPUT****

CARTESIAN COORDINATES (ANGSTROEM)
---------------------------------
  C     -2.520618   -0.188608    0.467054
  C     -1.958168    1.012816    1.250439
  C     -3.806853   -0.522986    0.815538
  C     -4.729271    0.389436    1.367229
  C     -4.255835    1.563011    1.885474
  C     -2.884540    1.791043    1.930750
  H     -2.148783   -0.790158   -0.441511
  H     -4.140036   -1.496909    0.484926
  H     -2.494619    2.714328    2.369608
  H     -5.792263    0.186581    1.261550
  H     -4.918939    2.305950    2.269325
  C     -0.523570    1.438226    1.340090
  C      0.609631    0.451100    1.732941
  H     -0.483586    2.223699    2.063746
  H     -0.251835    1.859080    0.394976
  C      1.739498    0.556251    0.737897
  H      0.241806   -0.576461    1.783268
  H      1.003318    0.672256    2.736461
  C      1.718359   -0.149289   -0.490081
  C      2.752320    0.142763   -1.385870
  C      3.733616    1.099753   -1.120691
  C      2.827052    1.387653    1.047854
  C      3.774459    1.749377    0.101524
  H      2.812702   -0.400285   -2.322470
  H      4.504843    1.303028   -1.853997
  H      2.912780    1.836572    2.033817
  H      4.557186    2.474921    0.329659
  Pd     0.293528   -1.599330   -0.986068
  Br    -1.413823   -3.629522   -0.817605
  P      1.408906   -3.011383    0.230343
  H      0.851972   -3.571722    1.363857
  C      0.383851   -1.187204   -3.883955
  O      1.578774   -1.673460   -4.225230
  O     -0.385387   -1.655963   -3.090775
  O     -0.035338   -0.090744   -4.504267
  H      2.699834   -2.735516    0.664004
  H      1.646107   -4.133987   -0.546001
  H      0.690654    0.249118   -4.993877

 Total Charge           Charge          ....   -1
 Multiplicity           Mult            ....    1
 Number of Electrons    NEL             ....  200
 Basis Dimension        Dim             ....  385

ORBITAL ENERGIES
----------------

  NO   OCC          E(Eh)            E(eV)
   0   2.0000    -484.326170    -13179.1851
   1   2.0000     -77.683427     -2113.8735
   2   2.0000     -62.987937     -1713.9889
   3   2.0000     -56.691601     -1542.6569
   4   2.0000     -56.690622     -1542.6303
   5   2.0000     -56.690499     -1542.6269
   6   2.0000     -19.372799      -527.1607
   7   2.0000     -19.311648      -525.4967
   8   2.0000     -19.268226      -524.3151
   9   2.0000     -10.427290      -283.7410
  10   2.0000     -10.377835      -282.3952
  11   2.0000     -10.365953      -282.0719
  12   2.0000     -10.355361      -281.7837
  13   2.0000     -10.353194      -281.7247
  14   2.0000     -10.352487      -281.7055
  15   2.0000     -10.351947      -281.6908
  16   2.0000     -10.348506      -281.5972
  17   2.0000     -10.347480      -281.5692
  18   2.0000     -10.346848      -281.5521
  19   2.0000     -10.345333      -281.5108
  20   2.0000     -10.344727      -281.4943
  21   2.0000     -10.344720      -281.4941
  22   2.0000     -10.339818      -281.3607
  23   2.0000     -10.329048      -281.0677
  24   2.0000      -8.815243      -239.8749
  25   2.0000      -6.758978      -183.9211
  26   2.0000      -6.584908      -179.1845
  27   2.0000      -6.580157      -179.0552
  28   2.0000      -6.579282      -179.0314
  29   2.0000      -4.850030      -131.9760
  30   2.0000      -4.849853      -131.9712
  31   2.0000      -4.848530      -131.9352
  32   2.0000      -3.531337       -96.0926
  33   2.0000      -2.598910       -70.7199
  34   2.0000      -2.597841       -70.6909
  35   2.0000      -2.597093       -70.6705
  36   2.0000      -2.592997       -70.5590
  37   2.0000      -2.592953       -70.5578
  38   2.0000      -2.178372       -59.2765
  39   2.0000      -2.174091       -59.1600
  40   2.0000      -2.146352       -58.4052
  41   2.0000      -1.076392       -29.2901
  42   2.0000      -0.971566       -26.4377
  43   2.0000      -0.863530       -23.4978
  44   2.0000      -0.858949       -23.3732
  45   2.0000      -0.848240       -23.0818
  46   2.0000      -0.793525       -21.5929
  47   2.0000      -0.750005       -20.4087
  48   2.0000      -0.738464       -20.0946
  49   2.0000      -0.721614       -19.6361
  50   2.0000      -0.691905       -18.8277
  51   2.0000      -0.664725       -18.0881
  52   2.0000      -0.633513       -17.2388
  53   2.0000      -0.628286       -17.0965
  54   2.0000      -0.575038       -15.6476
  55   2.0000      -0.566084       -15.4039
  56   2.0000      -0.558510       -15.1978
  57   2.0000      -0.541116       -14.7245
  58   2.0000      -0.537232       -14.6188
  59   2.0000      -0.482631       -13.1331
  60   2.0000      -0.465125       -12.6567
  61   2.0000      -0.441841       -12.0231
  62   2.0000      -0.427286       -11.6270
  63   2.0000      -0.414357       -11.2752
  64   2.0000      -0.404514       -11.0074
  65   2.0000      -0.394988       -10.7482
  66   2.0000      -0.386102       -10.5064
  67   2.0000      -0.385086       -10.4787
  68   2.0000      -0.383615       -10.4387
  69   2.0000      -0.381463       -10.3801
  70   2.0000      -0.380522       -10.3545
  71   2.0000      -0.372490       -10.1360
  72   2.0000      -0.365796        -9.9538
  73   2.0000      -0.358899        -9.7661
  74   2.0000      -0.350355        -9.5336
  75   2.0000      -0.333336        -9.0705
  76   2.0000      -0.331340        -9.0162
  77   2.0000      -0.323089        -8.7917
  78   2.0000      -0.318119        -8.6565
  79   2.0000      -0.300657        -8.1813
  80   2.0000      -0.298478        -8.1220
  81   2.0000      -0.297614        -8.0985
  82   2.0000      -0.285747        -7.7756
  83   2.0000      -0.273034        -7.4296
  84   2.0000      -0.262390        -7.1400
  85   2.0000      -0.256582        -6.9820
  86   2.0000      -0.243903        -6.6369
  87   2.0000      -0.228555        -6.2193
  88   2.0000      -0.208456        -5.6724
  89   2.0000      -0.204297        -5.5592
  90   2.0000      -0.192342        -5.2339
  91   2.0000      -0.180001        -4.8981
  92   2.0000      -0.177471        -4.8292
  93   2.0000      -0.174321        -4.7435
  94   2.0000      -0.165724        -4.5096
  95   2.0000      -0.155162        -4.2222
  96   2.0000      -0.154021        -4.1911
  97   2.0000      -0.146503        -3.9865
  98   2.0000      -0.142540        -3.8787
  99   2.0000      -0.127348        -3.4653
 100   0.0000       0.061281         1.6675
 101   0.0000       0.096492         2.6257
 102   0.0000       0.114789         3.1236
 103   0.0000       0.122469         3.3326
 104   0.0000       0.126733         3.4486

MULLIKEN ATOMIC CHARGES
-----------------------
   0 C :   -0.264231
   1 C :    0.076685
   2 C :   -0.221423
   3 C :   -0.233276
   4 C :   -0.208915
   5 C :   -0.255829
   6 H :    0.293277
   7 H :    0.239859
   8 H :    0.191181
   9 H :    0.200783
  10 H :    0.192860
  11 C :   -0.490432
  12 C :   -0.512140
  13 H :    0.214665
  14 H :    0.279944
  15 C :    0.062114
  16 H :    0.264499
  17 H :    0.208178
  18 C :   -0.151660
  19 C :   -0.273560
  20 C :   -0.234120
  21 C :   -0.274819
  22 C :   -0.219054
  23 H :    0.277190
  24 H :    0.192155
  25 H :    0.176520
  26 H :    0.185408
  27 Pd:    0.172097
  28 Br:   -0.488786
  29 P :   -0.116955
  30 H :    0.127117
  31 C :    0.650643
  32 O :   -0.644868
  33 O :   -0.486415
  34 O :   -0.592396
  35 H :    0.093876
  36 H :    0.154604
  37 H :    0.415226
Sum of atomic charges:   -1.0000000

LOEWDIN ATOMIC CHARGES
----------------------
   0 C :   -0.101919
   1 C :   -0.024189
   2 C :   -0.132954
   3 C :   -0.154994
   4 C :   -0.153153
   5 C :   -0.160503
   6 H :    0.199915
   7 H :    0.141968
   8 H :    0.124362
   9 H :    0.128844
  10 H :    0.123989
  11 C :   -0.223434
  12 C :   -0.213542
  13 H :    0.128395
  14 H :    0.158555
  15 C :   -0.048853
  16 H :    0.150735
  17 H :    0.120062
  18 C :   -0.037345
  19 C :   -0.124593
  20 C :   -0.151438
  21 C :   -0.152988
  22 C :   -0.161390
  23 H :    0.167821
  24 H :    0.123900
  25 H :    0.118915
  26 H :    0.120894
  27 Pd:   -0.748524
  28 Br:   -0.288939
  29 P :    0.443851
  30 H :    0.058920
  31 C :    0.107205
  32 O :   -0.481716
  33 O :   -0.178638
  34 O :   -0.308315
  35 H :    0.037433
  36 H :    0.078963
  37 H :    0.312701

  Mayer bond orders larger than 0.100000
B(  0-C ,  1-C ) :   1.2681 B(  0-C ,  2-C ) :   1.5222 B(  0-C ,  6-H ) :   0.8641
B(  1-C ,  5-C ) :   1.4995 B(  1-C , 11-C ) :   0.9723 B(  2-C ,  3-C ) :   1.3364
B(  2-C ,  7-H ) :   0.9072 B(  3-C ,  4-C ) :   1.4986 B(  3-C ,  9-H ) :   0.9259
B(  4-C ,  5-C ) :   1.3567 B(  4-C , 10-H ) :   0.9266 B(  5-C ,  8-H ) :   0.9206
B( 11-C , 12-C ) :   0.9093 B( 11-C , 13-H ) :   0.9255 B( 11-C , 14-H ) :   0.8903
B( 12-C , 15-C ) :   0.9627 B( 12-C , 16-H ) :   0.8940 B( 12-C , 17-H ) :   0.9336
B( 15-C , 18-C ) :   1.3526 B( 15-C , 21-C ) :   1.4071 B( 18-C , 19-C ) :   1.4149
B( 18-C , 27-Pd) :   0.7479 B( 18-C , 28-Br) :   0.1112 B( 19-C , 20-C ) :   1.4020
B( 19-C , 23-H ) :   0.8616 B( 20-C , 22-C ) :   1.4307 B( 20-C , 24-H ) :   0.9262
B( 21-C , 22-C ) :   1.4234 B( 21-C , 25-H ) :   0.9276 B( 22-C , 26-H ) :   0.9277
B( 27-Pd, 28-Br) :   0.5217 B( 27-Pd, 29-P ) :   0.8265 B( 27-Pd, 33-O ) :   0.3912
B( 28-Br, 29-P ) :   0.1373 B( 29-P , 30-H ) :   0.9212 B( 29-P , 35-H ) :   0.9027
B( 29-P , 36-H ) :   0.9276 B( 31-C , 32-O ) :   1.6486 B( 31-C , 33-O ) :   1.5523
B( 31-C , 34-O ) :   1.0831 B( 34-O , 37-H ) :   0.7791

Dispersion correction           -0.030743102
FINAL SINGLE POINT ENERGY     -3847.669157538771
Dispersion correction            ... done

DIPOLE MOMENT
-------------
                                X             Y             Z
Electronic contribution:     13.95203     -78.85962     -40.51943
Nuclear contribution   :    -13.30804      80.16279      43.81281
                        -----------------------------------------
Total Dipole Moment    :      0.64399       1.30318       3.29338
                        -----------------------------------------
Magnitude (a.u.)       :      3.59991
Magnitude (Debye)      :      9.15025

Rotational constants in cm-1:     0.006857     0.005896     0.004268
Rotational constants in MHz :   205.565190   176.772085   127.964305

                             ****ORCA TERMINATED NORMALLY****
TOTAL RUN TIME: 0 days 0 hours 22 minutes 49 seconds 542 msec
