                         Program Version 5.0.3 -  RELEASE  -
|  1> ! EnGrad PBEh-3c
|  2> %output
|  3> xyzfile=True
|  4> end
|  5> %scf
|  6> maxiter 250
|  7> end
|  8> %output
|  9> Print[P_Hirshfeld] = 1
| 10> end
| 11> % maxcore
| 12> 4000
| 13> *xyz -1 1
| 14> C   -2.51156807  -0.16511566   0.48559299
| 15> C   -1.96784594   0.98616023   1.23601407
| 16> C   -3.81736722  -0.52332633   0.80900756
| 17> C   -4.72133569   0.37937564   1.36807332
| 18> C   -4.25038680   1.56213703   1.88884939
| 19> C   -2.87608817   1.78940742   1.92517624
| 20> H   -2.15162051  -0.78356124  -0.43008068
| 21> H   -4.14319512  -1.49758316   0.49013131
| 22> H   -2.49731479   2.70891488   2.37478693
| 23> H   -5.78953920   0.18778604   1.26491666
| 24> H   -4.92535052   2.31333152   2.27397693
| 25> C   -0.52409536   1.42570745   1.33607069
| 26> C    0.61032054   0.44890754   1.73109350
| 27> H   -0.48241382   2.23748126   2.06251475
| 28> H   -0.25478671   1.85993568   0.38435260
| 29> C    1.74498782   0.55015377   0.73915491
| 30> H    0.23966279  -0.57388954   1.78069301
| 31> H    0.99848621   0.67561809   2.73352652
| 32> C    1.71625318  -0.14619012  -0.49462299
| 33> C    2.75486866   0.14069755  -1.38603517
| 34> C    3.73566052   1.09886972  -1.12022874
| 35> C    2.82205669   1.39515830   1.04571163
| 36> C    3.77730635   1.74493517   0.10250901
| 37> H    2.81369444  -0.40139715  -2.32216558
| 38> H    4.50557124   1.30336877  -1.85518723
| 39> H    2.91068909   1.83606154   2.03569956
| 40> H    4.55500485   2.47362155   0.33000976
| 41> Pd   0.29643051  -1.60387251  -0.98460467
| 42> Br  -1.41254224  -3.62901669  -0.82078026
| 43> P    1.40259057  -3.00423663   0.22586105
| 44> H    0.84817473  -3.57220210   1.36771829
| 45> C    0.41108886  -1.19286287  -3.89720460
| 46> O    1.56967024  -1.66515277  -4.22236024
| 47> O   -0.40030906  -1.66100180  -3.07194258
| 48> O   -0.04014036  -0.08517638  -4.50666140
| 49> H    2.70266427  -2.73531533   0.66959667
| 50> H    1.64806170  -4.13811003  -0.54532903
| 51> H    0.70000390   0.25375972  -5.00402188
| 52> *
| 53>
| 54>                          ****END OF INPUT****

CARTESIAN COORDINATES (ANGSTROEM)
---------------------------------
  C     -2.511568   -0.165116    0.485593
  C     -1.967846    0.986160    1.236014
  C     -3.817367   -0.523326    0.809008
  C     -4.721336    0.379376    1.368073
  C     -4.250387    1.562137    1.888849
  C     -2.876088    1.789407    1.925176
  H     -2.151621   -0.783561   -0.430081
  H     -4.143195   -1.497583    0.490131
  H     -2.497315    2.708915    2.374787
  H     -5.789539    0.187786    1.264917
  H     -4.925351    2.313332    2.273977
  C     -0.524095    1.425707    1.336071
  C      0.610321    0.448908    1.731093
  H     -0.482414    2.237481    2.062515
  H     -0.254787    1.859936    0.384353
  C      1.744988    0.550154    0.739155
  H      0.239663   -0.573890    1.780693
  H      0.998486    0.675618    2.733527
  C      1.716253   -0.146190   -0.494623
  C      2.754869    0.140698   -1.386035
  C      3.735661    1.098870   -1.120229
  C      2.822057    1.395158    1.045712
  C      3.777306    1.744935    0.102509
  H      2.813694   -0.401397   -2.322166
  H      4.505571    1.303369   -1.855187
  H      2.910689    1.836062    2.035700
  H      4.555005    2.473622    0.330010
  Pd     0.296431   -1.603873   -0.984605
  Br    -1.412542   -3.629017   -0.820780
  P      1.402591   -3.004237    0.225861
  H      0.848175   -3.572202    1.367718
  C      0.411089   -1.192863   -3.897205
  O      1.569670   -1.665153   -4.222360
  O     -0.400309   -1.661002   -3.071943
  O     -0.040140   -0.085176   -4.506661
  H      2.702664   -2.735315    0.669597
  H      1.648062   -4.138110   -0.545329
  H      0.700004    0.253760   -5.004022

 Total Charge           Charge          ....   -1
 Multiplicity           Mult            ....    1
 Number of Electrons    NEL             ....  200
 Basis Dimension        Dim             ....  385

ORBITAL ENERGIES
----------------

  NO   OCC          E(Eh)            E(eV)
   0   2.0000    -484.324797    -13179.1477
   1   2.0000     -77.682603     -2113.8511
   2   2.0000     -62.986567     -1713.9516
   3   2.0000     -56.690240     -1542.6199
   4   2.0000     -56.689246     -1542.5928
   5   2.0000     -56.689126     -1542.5895
   6   2.0000     -19.376073      -527.2498
   7   2.0000     -19.308289      -525.4053
   8   2.0000     -19.284365      -524.7543
   9   2.0000     -10.433510      -283.9102
  10   2.0000     -10.373649      -282.2813
  11   2.0000     -10.362764      -281.9852
  12   2.0000     -10.354402      -281.7576
  13   2.0000     -10.353376      -281.7297
  14   2.0000     -10.352748      -281.7126
  15   2.0000     -10.350868      -281.6614
  16   2.0000     -10.348197      -281.5888
  17   2.0000     -10.346551      -281.5440
  18   2.0000     -10.346319      -281.5377
  19   2.0000     -10.344687      -281.4933
  20   2.0000     -10.344551      -281.4895
  21   2.0000     -10.343924      -281.4725
  22   2.0000     -10.339558      -281.3537
  23   2.0000     -10.328998      -281.0663
  24   2.0000      -8.813878      -239.8378
  25   2.0000      -6.757468      -183.8800
  26   2.0000      -6.583583      -179.1484
  27   2.0000      -6.578772      -179.0175
  28   2.0000      -6.577894      -178.9936
  29   2.0000      -4.848532      -131.9353
  30   2.0000      -4.848360      -131.9306
  31   2.0000      -4.847075      -131.8956
  32   2.0000      -3.530666       -96.0743
  33   2.0000      -2.597578       -70.6837
  34   2.0000      -2.596495       -70.6542
  35   2.0000      -2.595743       -70.6338
  36   2.0000      -2.591596       -70.5209
  37   2.0000      -2.591552       -70.5197
  38   2.0000      -2.177989       -59.2661
  39   2.0000      -2.173043       -59.1315
  40   2.0000      -2.145440       -58.3804
  41   2.0000      -1.067876       -29.0584
  42   2.0000      -0.951742       -25.8982
  43   2.0000      -0.890611       -24.2347
  44   2.0000      -0.859999       -23.4018
  45   2.0000      -0.847625       -23.0650
  46   2.0000      -0.791271       -21.5316
  47   2.0000      -0.748872       -20.3778
  48   2.0000      -0.737081       -20.0570
  49   2.0000      -0.721173       -19.6241
  50   2.0000      -0.691494       -18.8165
  51   2.0000      -0.661329       -17.9957
  52   2.0000      -0.631524       -17.1846
  53   2.0000      -0.625327       -17.0160
  54   2.0000      -0.576284       -15.6815
  55   2.0000      -0.565529       -15.3888
  56   2.0000      -0.559972       -15.2376
  57   2.0000      -0.540231       -14.7004
  58   2.0000      -0.528825       -14.3900
  59   2.0000      -0.480493       -13.0749
  60   2.0000      -0.464604       -12.6425
  61   2.0000      -0.439909       -11.9705
  62   2.0000      -0.424665       -11.5557
  63   2.0000      -0.415018       -11.2932
  64   2.0000      -0.404198       -10.9988
  65   2.0000      -0.390646       -10.6300
  66   2.0000      -0.384906       -10.4738
  67   2.0000      -0.382817       -10.4170
  68   2.0000      -0.381525       -10.3818
  69   2.0000      -0.380139       -10.3441
  70   2.0000      -0.378579       -10.3017
  71   2.0000      -0.370406       -10.0793
  72   2.0000      -0.362900        -9.8750
  73   2.0000      -0.357123        -9.7178
  74   2.0000      -0.349429        -9.5084
  75   2.0000      -0.332361        -9.0440
  76   2.0000      -0.329960        -8.9787
  77   2.0000      -0.321670        -8.7531
  78   2.0000      -0.319118        -8.6837
  79   2.0000      -0.302934        -8.2432
  80   2.0000      -0.299337        -8.1454
  81   2.0000      -0.293053        -7.9744
  82   2.0000      -0.289034        -7.8650
  83   2.0000      -0.271613        -7.3910
  84   2.0000      -0.261470        -7.1149
  85   2.0000      -0.254623        -6.9287
  86   2.0000      -0.243312        -6.6209
  87   2.0000      -0.228605        -6.2207
  88   2.0000      -0.208118        -5.6632
  89   2.0000      -0.204271        -5.5585
  90   2.0000      -0.190542        -5.1849
  91   2.0000      -0.180988        -4.9249
  92   2.0000      -0.179047        -4.8721
  93   2.0000      -0.174564        -4.7501
  94   2.0000      -0.166388        -4.5277
  95   2.0000      -0.157818        -4.2945
  96   2.0000      -0.152799        -4.1579
  97   2.0000      -0.150704        -4.1009
  98   2.0000      -0.145666        -3.9638
  99   2.0000      -0.136025        -3.7014
 100   0.0000       0.064275         1.7490
 101   0.0000       0.100112         2.7242
 102   0.0000       0.113674         3.0932
 103   0.0000       0.123272         3.3544
 104   0.0000       0.127904         3.4804

MULLIKEN ATOMIC CHARGES
-----------------------
   0 C :   -0.270492
   1 C :    0.096640
   2 C :   -0.222571
   3 C :   -0.231886
   4 C :   -0.213734
   5 C :   -0.258027
   6 H :    0.292638
   7 H :    0.243374
   8 H :    0.193477
   9 H :    0.198427
  10 H :    0.191383
  11 C :   -0.493366
  12 C :   -0.511072
  13 H :    0.209770
  14 H :    0.277127
  15 C :    0.061430
  16 H :    0.265762
  17 H :    0.207907
  18 C :   -0.145754
  19 C :   -0.274858
  20 C :   -0.233360
  21 C :   -0.273101
  22 C :   -0.219786
  23 H :    0.272666
  24 H :    0.190574
  25 H :    0.176483
  26 H :    0.185003
  27 Pd:    0.169296
  28 Br:   -0.485817
  29 P :   -0.119583
  30 H :    0.124180
  31 C :    0.671569
  32 O :   -0.601555
  33 O :   -0.528404
  34 O :   -0.595679
  35 H :    0.089987
  36 H :    0.150778
  37 H :    0.410577
Sum of atomic charges:   -1.0000000

LOEWDIN ATOMIC CHARGES
----------------------
   0 C :   -0.102954
   1 C :   -0.030683
   2 C :   -0.129294
   3 C :   -0.156856
   4 C :   -0.152991
   5 C :   -0.155788
   6 H :    0.201741
   7 H :    0.143110
   8 H :    0.124782
   9 H :    0.127702
  10 H :    0.123384
  11 C :   -0.219132
  12 C :   -0.215365
  13 H :    0.125842
  14 H :    0.157414
  15 C :   -0.048121
  16 H :    0.150900
  17 H :    0.119988
  18 C :   -0.037303
  19 C :   -0.125233
  20 C :   -0.151795
  21 C :   -0.152931
  22 C :   -0.161828
  23 H :    0.165227
  24 H :    0.123438
  25 H :    0.119064
  26 H :    0.120717
  27 Pd:   -0.757579
  28 Br:   -0.286193
  29 P :    0.443133
  30 H :    0.057158
  31 C :    0.126613
  32 O :   -0.427143
  33 O :   -0.225269
  34 O :   -0.317842
  35 H :    0.035036
  36 H :    0.076796
  37 H :    0.312256

  Mayer bond orders larger than 0.100000
B(  0-C ,  1-C ) :   1.3159 B(  0-C ,  2-C ) :   1.4722 B(  0-C ,  6-H ) :   0.8653
B(  1-C ,  5-C ) :   1.4562 B(  1-C , 11-C ) :   0.9611 B(  2-C ,  3-C ) :   1.3793
B(  2-C ,  7-H ) :   0.9065 B(  3-C ,  4-C ) :   1.4613 B(  3-C ,  9-H ) :   0.9263
B(  4-C ,  5-C ) :   1.3925 B(  4-C , 10-H ) :   0.9271 B(  5-C ,  8-H ) :   0.9205
B( 11-C , 12-C ) :   0.9089 B( 11-C , 13-H ) :   0.9290 B( 11-C , 14-H ) :   0.8919
B( 12-C , 15-C ) :   0.9647 B( 12-C , 16-H ) :   0.8936 B( 12-C , 17-H ) :   0.9334
B( 15-C , 18-C ) :   1.3497 B( 15-C , 21-C ) :   1.4088 B( 18-C , 19-C ) :   1.4165
B( 18-C , 27-Pd) :   0.7466 B( 18-C , 28-Br) :   0.1116 B( 19-C , 20-C ) :   1.4008
B( 19-C , 23-H ) :   0.8678 B( 20-C , 22-C ) :   1.4329 B( 20-C , 24-H ) :   0.9266
B( 21-C , 22-C ) :   1.4225 B( 21-C , 25-H ) :   0.9276 B( 22-C , 26-H ) :   0.9277
B( 27-Pd, 28-Br) :   0.5220 B( 27-Pd, 29-P ) :   0.8369 B( 27-Pd, 33-O ) :   0.4235
B( 28-Br, 29-P ) :   0.1385 B( 29-P , 30-H ) :   0.9195 B( 29-P , 35-H ) :   0.9014
B( 29-P , 36-H ) :   0.9264 B( 31-C , 32-O ) :   1.7164 B( 31-C , 33-O ) :   1.4697
B( 31-C , 34-O ) :   1.0742 B( 34-O , 37-H ) :   0.7827

Dispersion correction           -0.030757876
FINAL SINGLE POINT ENERGY     -3847.689772162157
Dispersion correction            ... done

DIPOLE MOMENT
-------------
                                X             Y             Z
Electronic contribution:     14.23476     -79.13512     -40.61957
Nuclear contribution   :    -13.48487      80.41041      43.73103
                        -----------------------------------------
Total Dipole Moment    :      0.74988       1.27530       3.11146
                        -----------------------------------------
Magnitude (a.u.)       :      3.44528
Magnitude (Debye)      :      8.75719

Rotational constants in cm-1:     0.006866     0.005904     0.004272
Rotational constants in MHz :   205.824633   176.990644   128.086297

                             ****ORCA TERMINATED NORMALLY****
TOTAL RUN TIME: 0 days 0 hours 24 minutes 42 seconds 274 msec
