                         Program Version 5.0.3 -  RELEASE  -
|  1> ! EnGrad PBEh-3c
|  2> %output
|  3> xyzfile=True
|  4> end
|  5> %scf
|  6> maxiter 250
|  7> end
|  8> %output
|  9> Print[P_Hirshfeld] = 1
| 10> end
| 11> % maxcore
| 12> 4000
| 13> *xyz -1 1
| 14> C   -2.48465987  -0.14557021   0.51889911
| 15> C   -1.98232289   0.94160310   1.20947228
| 16> C   -3.81866737  -0.52153856   0.80829524
| 17> C   -4.71298953   0.36754291   1.36612488
| 18> C   -4.23831347   1.56634900   1.88882206
| 19> C   -2.86567014   1.79761966   1.91113622
| 20> H   -2.12895884  -0.79404186  -0.37793345
| 21> H   -4.15241740  -1.48621651   0.47171669
| 22> H   -2.49878126   2.71165894   2.37459900
| 23> H   -5.78352846   0.17725485   1.30478054
| 24> H   -4.92538096   2.31715551   2.28839112
| 25> C   -0.53118351   1.40801081   1.32536050
| 26> C    0.60326929   0.44286320   1.72092936
| 27> H   -0.49001051   2.24295235   2.04703211
| 28> H   -0.24880227   1.86829473   0.37960032
| 29> C    1.74397456   0.53884165   0.73977118
| 30> H    0.23651881  -0.57345729   1.77824096
| 31> H    0.98480279   0.67701470   2.71910945
| 32> C    1.71512692  -0.14517966  -0.49792460
| 33> C    2.75623462   0.13289618  -1.38519000
| 34> C    3.73163103   1.09475188  -1.12199282
| 35> C    2.80790024   1.39957867   1.04003831
| 36> C    3.77454504   1.73031847   0.10294251
| 37> H    2.81065777  -0.40225282  -2.32386392
| 38> H    4.50354742   1.29636365  -1.85285942
| 39> H    2.88886396   1.84360397   2.02613834
| 40> H    4.54453943   2.46279398   0.32745154
| 41> Pd   0.31259590  -1.58997788  -0.97942755
| 42> Br  -1.41009769  -3.60894304  -0.83591501
| 43> P    1.39137155  -2.99490250   0.22001292
| 44> H    0.84175845  -3.57198493   1.37016567
| 45> C    0.45625590  -1.21441007  -3.90252272
| 46> O    1.53723508  -1.64483135  -4.21410755
| 47> O   -0.39494980  -1.63419209  -3.04711884
| 48> O   -0.03830703  -0.07149317  -4.51496958
| 49> H    2.69853650  -2.72892965   0.67356192
| 50> H    1.64628939  -4.14660354  -0.53785449
| 51> H    0.71688652   0.24858073  -5.02245486
| 52> *
| 53>
| 54>                          ****END OF INPUT****

CARTESIAN COORDINATES (ANGSTROEM)
---------------------------------
  C     -2.484660   -0.145570    0.518899
  C     -1.982323    0.941603    1.209472
  C     -3.818667   -0.521539    0.808295
  C     -4.712990    0.367543    1.366125
  C     -4.238313    1.566349    1.888822
  C     -2.865670    1.797620    1.911136
  H     -2.128959   -0.794042   -0.377933
  H     -4.152417   -1.486217    0.471717
  H     -2.498781    2.711659    2.374599
  H     -5.783528    0.177255    1.304781
  H     -4.925381    2.317156    2.288391
  C     -0.531184    1.408011    1.325360
  C      0.603269    0.442863    1.720929
  H     -0.490011    2.242952    2.047032
  H     -0.248802    1.868295    0.379600
  C      1.743975    0.538842    0.739771
  H      0.236519   -0.573457    1.778241
  H      0.984803    0.677015    2.719109
  C      1.715127   -0.145180   -0.497925
  C      2.756235    0.132896   -1.385190
  C      3.731631    1.094752   -1.121993
  C      2.807900    1.399579    1.040038
  C      3.774545    1.730318    0.102943
  H      2.810658   -0.402253   -2.323864
  H      4.503547    1.296364   -1.852859
  H      2.888864    1.843604    2.026138
  H      4.544539    2.462794    0.327452
  Pd     0.312596   -1.589978   -0.979428
  Br    -1.410098   -3.608943   -0.835915
  P      1.391372   -2.994902    0.220013
  H      0.841758   -3.571985    1.370166
  C      0.456256   -1.214410   -3.902523
  O      1.537235   -1.644831   -4.214108
  O     -0.394950   -1.634192   -3.047119
  O     -0.038307   -0.071493   -4.514970
  H      2.698536   -2.728930    0.673562
  H      1.646289   -4.146604   -0.537854
  H      0.716887    0.248581   -5.022455

 Total Charge           Charge          ....   -1
 Multiplicity           Mult            ....    1
 Number of Electrons    NEL             ....  200
 Basis Dimension        Dim             ....  385

ORBITAL ENERGIES
----------------

  NO   OCC          E(Eh)            E(eV)
   0   2.0000    -484.323100    -13179.1016
   1   2.0000     -77.681742     -2113.8277
   2   2.0000     -62.984865     -1713.9053
   3   2.0000     -56.688533     -1542.5734
   4   2.0000     -56.687543     -1542.5465
   5   2.0000     -56.687427     -1542.5433
   6   2.0000     -19.363666      -526.9121
   7   2.0000     -19.303734      -525.2813
   8   2.0000     -19.302170      -525.2388
   9   2.0000     -10.432067      -283.8710
  10   2.0000     -10.366551      -282.0882
  11   2.0000     -10.356031      -281.8019
  12   2.0000     -10.354446      -281.7588
  13   2.0000     -10.354130      -281.7502
  14   2.0000     -10.351885      -281.6891
  15   2.0000     -10.349222      -281.6167
  16   2.0000     -10.348221      -281.5894
  17   2.0000     -10.346402      -281.5399
  18   2.0000     -10.344676      -281.4930
  19   2.0000     -10.343360      -281.4571
  20   2.0000     -10.342674      -281.4385
  21   2.0000     -10.341257      -281.3999
  22   2.0000     -10.338975      -281.3378
  23   2.0000     -10.329175      -281.0711
  24   2.0000      -8.812181      -239.7916
  25   2.0000      -6.755923      -183.8380
  26   2.0000      -6.581874      -179.1019
  27   2.0000      -6.577092      -178.9718
  28   2.0000      -6.576194      -178.9473
  29   2.0000      -4.847005      -131.8937
  30   2.0000      -4.846824      -131.8888
  31   2.0000      -4.845581      -131.8550
  32   2.0000      -3.530994       -96.0832
  33   2.0000      -2.595870       -70.6372
  34   2.0000      -2.594800       -70.6081
  35   2.0000      -2.594031       -70.5872
  36   2.0000      -2.589912       -70.4751
  37   2.0000      -2.589868       -70.4739
  38   2.0000      -2.178387       -59.2769
  39   2.0000      -2.173272       -59.1377
  40   2.0000      -2.145700       -58.3875
  41   2.0000      -1.060047       -28.8454
  42   2.0000      -0.950949       -25.8767
  43   2.0000      -0.918362       -24.9899
  44   2.0000      -0.862310       -23.4647
  45   2.0000      -0.848438       -23.0872
  46   2.0000      -0.789739       -21.4899
  47   2.0000      -0.748498       -20.3677
  48   2.0000      -0.737271       -20.0622
  49   2.0000      -0.721811       -19.6415
  50   2.0000      -0.692464       -18.8429
  51   2.0000      -0.658194       -17.9104
  52   2.0000      -0.629258       -17.1230
  53   2.0000      -0.623115       -16.9558
  54   2.0000      -0.582051       -15.8384
  55   2.0000      -0.566173       -15.4064
  56   2.0000      -0.558919       -15.2090
  57   2.0000      -0.539896       -14.6913
  58   2.0000      -0.504722       -13.7342
  59   2.0000      -0.479741       -13.0544
  60   2.0000      -0.465449       -12.6655
  61   2.0000      -0.438373       -11.9287
  62   2.0000      -0.423452       -11.5227
  63   2.0000      -0.417537       -11.3618
  64   2.0000      -0.404771       -11.0144
  65   2.0000      -0.391761       -10.6604
  66   2.0000      -0.384643       -10.4667
  67   2.0000      -0.382016       -10.3952
  68   2.0000      -0.380373       -10.3505
  69   2.0000      -0.376851       -10.2546
  70   2.0000      -0.375114       -10.2074
  71   2.0000      -0.369090       -10.0434
  72   2.0000      -0.362486        -9.8638
  73   2.0000      -0.356200        -9.6927
  74   2.0000      -0.349276        -9.5043
  75   2.0000      -0.333688        -9.0801
  76   2.0000      -0.329944        -8.9782
  77   2.0000      -0.321836        -8.7576
  78   2.0000      -0.318099        -8.6559
  79   2.0000      -0.313240        -8.5237
  80   2.0000      -0.299811        -8.1583
  81   2.0000      -0.293631        -7.9901
  82   2.0000      -0.285705        -7.7744
  83   2.0000      -0.270021        -7.3476
  84   2.0000      -0.261547        -7.1171
  85   2.0000      -0.254235        -6.9181
  86   2.0000      -0.241169        -6.5625
  87   2.0000      -0.229028        -6.2322
  88   2.0000      -0.212459        -5.7813
  89   2.0000      -0.204829        -5.5737
  90   2.0000      -0.189163        -5.1474
  91   2.0000      -0.185800        -5.0559
  92   2.0000      -0.182411        -4.9636
  93   2.0000      -0.176674        -4.8075
  94   2.0000      -0.172436        -4.6922
  95   2.0000      -0.161356        -4.3907
  96   2.0000      -0.156844        -4.2679
  97   2.0000      -0.151513        -4.1229
  98   2.0000      -0.146081        -3.9751
  99   2.0000      -0.136272        -3.7082
 100   0.0000       0.068211         1.8561
 101   0.0000       0.104190         2.8351
 102   0.0000       0.114429         3.1138
 103   0.0000       0.123990         3.3739
 104   0.0000       0.129473         3.5231

MULLIKEN ATOMIC CHARGES
-----------------------
   0 C :   -0.273953
   1 C :    0.124700
   2 C :   -0.229462
   3 C :   -0.228227
   4 C :   -0.221974
   5 C :   -0.259366
   6 H :    0.291197
   7 H :    0.243475
   8 H :    0.197501
   9 H :    0.197019
  10 H :    0.189270
  11 C :   -0.500335
  12 C :   -0.512071
  13 H :    0.206855
  14 H :    0.275147
  15 C :    0.066331
  16 H :    0.267524
  17 H :    0.208442
  18 C :   -0.141767
  19 C :   -0.271547
  20 C :   -0.231921
  21 C :   -0.271995
  22 C :   -0.220915
  23 H :    0.265472
  24 H :    0.189284
  25 H :    0.176515
  26 H :    0.184620
  27 Pd:    0.167943
  28 Br:   -0.485151
  29 P :   -0.124652
  30 H :    0.121002
  31 C :    0.668655
  32 O :   -0.514773
  33 O :   -0.556213
  34 O :   -0.623483
  35 H :    0.085480
  36 H :    0.145528
  37 H :    0.395845
Sum of atomic charges:   -1.0000000

LOEWDIN ATOMIC CHARGES
----------------------
   0 C :   -0.107409
   1 C :   -0.036505
   2 C :   -0.121303
   3 C :   -0.159562
   4 C :   -0.150621
   5 C :   -0.150176
   6 H :    0.202765
   7 H :    0.143164
   8 H :    0.126320
   9 H :    0.126441
  10 H :    0.121993
  11 C :   -0.215632
  12 C :   -0.217435
  13 H :    0.123129
  14 H :    0.155698
  15 C :   -0.046869
  16 H :    0.151119
  17 H :    0.120175
  18 C :   -0.034711
  19 C :   -0.124093
  20 C :   -0.151363
  21 C :   -0.152090
  22 C :   -0.161928
  23 H :    0.161912
  24 H :    0.123158
  25 H :    0.119352
  26 H :    0.120539
  27 Pd:   -0.764058
  28 Br:   -0.287886
  29 P :    0.441041
  30 H :    0.054818
  31 C :    0.113620
  32 O :   -0.317899
  33 O :   -0.254587
  34 O :   -0.359147
  35 H :    0.032018
  36 H :    0.073319
  37 H :    0.302688

  Mayer bond orders larger than 0.100000
B(  0-C ,  1-C ) :   1.3877 B(  0-C ,  2-C ) :   1.3946 B(  0-C ,  6-H ) :   0.8671
B(  1-C ,  5-C ) :   1.3787 B(  1-C , 11-C ) :   0.9494 B(  2-C ,  3-C ) :   1.4500
B(  2-C ,  7-H ) :   0.9068 B(  3-C ,  4-C ) :   1.3993 B(  3-C ,  9-H ) :   0.9263
B(  4-C ,  5-C ) :   1.4607 B(  4-C , 10-H ) :   0.9273 B(  5-C ,  8-H ) :   0.9200
B( 11-C , 12-C ) :   0.9096 B( 11-C , 13-H ) :   0.9315 B( 11-C , 14-H ) :   0.8935
B( 12-C , 15-C ) :   0.9684 B( 12-C , 16-H ) :   0.8927 B( 12-C , 17-H ) :   0.9331
B( 15-C , 18-C ) :   1.3459 B( 15-C , 21-C ) :   1.4106 B( 18-C , 19-C ) :   1.4168
B( 18-C , 27-Pd) :   0.7558 B( 18-C , 28-Br) :   0.1126 B( 19-C , 20-C ) :   1.4015
B( 19-C , 23-H ) :   0.8766 B( 20-C , 22-C ) :   1.4349 B( 20-C , 24-H ) :   0.9268
B( 21-C , 22-C ) :   1.4223 B( 21-C , 25-H ) :   0.9273 B( 22-C , 26-H ) :   0.9278
B( 27-Pd, 28-Br) :   0.5149 B( 27-Pd, 29-P ) :   0.8468 B( 27-Pd, 33-O ) :   0.4539
B( 28-Br, 29-P ) :   0.1411 B( 29-P , 30-H ) :   0.9176 B( 29-P , 35-H ) :   0.8995
B( 29-P , 36-H ) :   0.9250 B( 31-C , 32-O ) :   1.8442 B( 31-C , 33-O ) :   1.4093
B( 31-C , 34-O ) :   1.0219 B( 34-O , 37-H ) :   0.7961

Dispersion correction           -0.030880682
FINAL SINGLE POINT ENERGY     -3847.700985011906
Dispersion correction            ... done

DIPOLE MOMENT
-------------
                                X             Y             Z
Electronic contribution:     15.30768     -78.55857     -40.43855
Nuclear contribution   :    -14.37412      79.69893      43.44146
                        -----------------------------------------
Total Dipole Moment    :      0.93356       1.14035       3.00291
                        -----------------------------------------
Magnitude (a.u.)       :      3.34506
Magnitude (Debye)      :      8.50246

Rotational constants in cm-1:     0.006922     0.005926     0.004296
Rotational constants in MHz :   207.520393   177.662513   128.796928

                             ****ORCA TERMINATED NORMALLY****
TOTAL RUN TIME: 0 days 0 hours 26 minutes 8 seconds 56 msec
