                         Program Version 5.0.3 -  RELEASE  -
|  1> ! EnGrad PBEh-3c
|  2> %output
|  3> xyzfile=True
|  4> end
|  5> %scf
|  6> maxiter 250
|  7> end
|  8> %output
|  9> Print[P_Hirshfeld] = 1
| 10> end
| 11> % maxcore
| 12> 4000
| 13> *xyz -1 1
| 14> C   -2.46703173  -0.13246163   0.51655355
| 15> C   -1.97720171   0.93640076   1.20277572
| 16> C   -3.80690621  -0.50927316   0.77168772
| 17> C   -4.70363827   0.36293811   1.32916008
| 18> C   -4.23995476   1.57152123   1.85801509
| 19> C   -2.87508089   1.79769408   1.88292502
| 20> H   -2.09125034  -0.77225293  -0.35159570
| 21> H   -4.13758334  -1.47883151   0.42021538
| 22> H   -2.51376124   2.71899605   2.36382935
| 23> H   -5.78029257   0.16777347   1.27225771
| 24> H   -4.93984033   2.31758083   2.25394911
| 25> C   -0.52085030   1.40881692   1.35796120
| 26> C    0.61223865   0.43183027   1.73909836
| 27> H   -0.49176546   2.23195789   2.11437890
| 28> H   -0.21314914   1.91526395   0.42670177
| 29> C    1.74609368   0.52824196   0.75169165
| 30> H    0.23895894  -0.58173859   1.79467826
| 31> H    1.00155358   0.66048324   2.73611614
| 32> C    1.70432279  -0.14442193  -0.49175512
| 33> C    2.73827373   0.13629522  -1.38790227
| 34> C    3.71486193   1.09695967  -1.12824436
| 35> C    2.80450832   1.39820678   1.04141808
| 36> C    3.76907324   1.72281684   0.10085149
| 37> H    2.78266617  -0.39115268  -2.32978602
| 38> H    4.48166114   1.30108599  -1.86459043
| 39> H    2.89256571   1.83995590   2.03027921
| 40> H    4.54246181   2.45254194   0.32294155
| 41> Pd   0.30384379  -1.58357532  -0.96293796
| 42> Br  -1.42744589  -3.59890587  -0.79248490
| 43> P    1.40158909  -2.99531543   0.20835863
| 44> H    0.87693053  -3.58589040   1.37088317
| 45> C    0.44442268  -1.23129482  -3.89912868
| 46> O    1.52479811  -1.64278840  -4.21873560
| 47> O   -0.40831549  -1.67395058  -3.03070857
| 48> O   -0.05701518  -0.07438002  -4.48979253
| 49> H    2.72307505  -2.73016293   0.63912522
| 50> H    1.64630063  -4.14549595  -0.56644884
| 51> H    0.69841346   0.26373349  -4.99422699
| 52> *
| 53>
| 54>                          ****END OF INPUT****

CARTESIAN COORDINATES (ANGSTROEM)
---------------------------------
  C     -2.467032   -0.132462    0.516554
  C     -1.977202    0.936401    1.202776
  C     -3.806906   -0.509273    0.771688
  C     -4.703638    0.362938    1.329160
  C     -4.239955    1.571521    1.858015
  C     -2.875081    1.797694    1.882925
  H     -2.091250   -0.772253   -0.351596
  H     -4.137583   -1.478832    0.420215
  H     -2.513761    2.718996    2.363829
  H     -5.780293    0.167773    1.272258
  H     -4.939840    2.317581    2.253949
  C     -0.520850    1.408817    1.357961
  C      0.612239    0.431830    1.739098
  H     -0.491765    2.231958    2.114379
  H     -0.213149    1.915264    0.426702
  C      1.746094    0.528242    0.751692
  H      0.238959   -0.581739    1.794678
  H      1.001554    0.660483    2.736116
  C      1.704323   -0.144422   -0.491755
  C      2.738274    0.136295   -1.387902
  C      3.714862    1.096960   -1.128244
  C      2.804508    1.398207    1.041418
  C      3.769073    1.722817    0.100851
  H      2.782666   -0.391153   -2.329786
  H      4.481661    1.301086   -1.864590
  H      2.892566    1.839956    2.030279
  H      4.542462    2.452542    0.322942
  Pd     0.303844   -1.583575   -0.962938
  Br    -1.427446   -3.598906   -0.792485
  P      1.401589   -2.995315    0.208359
  H      0.876931   -3.585890    1.370883
  C      0.444423   -1.231295   -3.899129
  O      1.524798   -1.642788   -4.218736
  O     -0.408315   -1.673951   -3.030709
  O     -0.057015   -0.074380   -4.489793
  H      2.723075   -2.730163    0.639125
  H      1.646301   -4.145496   -0.566449
  H      0.698413    0.263733   -4.994227

 Total Charge           Charge          ....   -1
 Multiplicity           Mult            ....    1
 Number of Electrons    NEL             ....  200
 Basis Dimension        Dim             ....  385

ORBITAL ENERGIES
----------------

  NO   OCC          E(Eh)            E(eV)
   0   2.0000    -484.322053    -13179.0731
   1   2.0000     -77.682737     -2113.8547
   2   2.0000     -62.983807     -1713.8765
   3   2.0000     -56.687470     -1542.5445
   4   2.0000     -56.686487     -1542.5177
   5   2.0000     -56.686374     -1542.5147
   6   2.0000     -19.364819      -526.9435
   7   2.0000     -19.307166      -525.3747
   8   2.0000     -19.302073      -525.2361
   9   2.0000     -10.434293      -283.9316
  10   2.0000     -10.364910      -282.0435
  11   2.0000     -10.355919      -281.7989
  12   2.0000     -10.354275      -281.7541
  13   2.0000     -10.351451      -281.6773
  14   2.0000     -10.350508      -281.6517
  15   2.0000     -10.349975      -281.6371
  16   2.0000     -10.349345      -281.6200
  17   2.0000     -10.346985      -281.5558
  18   2.0000     -10.345094      -281.5043
  19   2.0000     -10.343707      -281.4666
  20   2.0000     -10.342933      -281.4455
  21   2.0000     -10.341664      -281.4110
  22   2.0000     -10.339369      -281.3485
  23   2.0000     -10.329613      -281.0831
  24   2.0000      -8.811111      -239.7625
  25   2.0000      -6.756429      -183.8518
  26   2.0000      -6.580787      -179.0723
  27   2.0000      -6.576041      -178.9432
  28   2.0000      -6.575121      -178.9181
  29   2.0000      -4.847531      -131.9080
  30   2.0000      -4.847341      -131.9028
  31   2.0000      -4.846123      -131.8697
  32   2.0000      -3.531149       -96.0874
  33   2.0000      -2.594793       -70.6079
  34   2.0000      -2.593729       -70.5790
  35   2.0000      -2.592946       -70.5576
  36   2.0000      -2.588857       -70.4464
  37   2.0000      -2.588806       -70.4450
  38   2.0000      -2.178492       -59.2798
  39   2.0000      -2.173588       -59.1463
  40   2.0000      -2.145871       -58.3921
  41   2.0000      -1.058699       -28.8087
  42   2.0000      -0.952495       -25.9187
  43   2.0000      -0.912509       -24.8306
  44   2.0000      -0.864005       -23.5108
  45   2.0000      -0.848998       -23.1024
  46   2.0000      -0.788585       -21.4585
  47   2.0000      -0.748666       -20.3723
  48   2.0000      -0.738193       -20.0873
  49   2.0000      -0.722196       -19.6520
  50   2.0000      -0.692524       -18.8445
  51   2.0000      -0.656525       -17.8650
  52   2.0000      -0.628099       -17.0915
  53   2.0000      -0.622376       -16.9357
  54   2.0000      -0.581390       -15.8204
  55   2.0000      -0.566727       -15.4214
  56   2.0000      -0.559215       -15.2170
  57   2.0000      -0.539940       -14.6925
  58   2.0000      -0.503817       -13.7096
  59   2.0000      -0.479404       -13.0452
  60   2.0000      -0.465705       -12.6725
  61   2.0000      -0.437350       -11.9009
  62   2.0000      -0.421966       -11.4823
  63   2.0000      -0.417951       -11.3730
  64   2.0000      -0.405002       -11.0207
  65   2.0000      -0.392082       -10.6691
  66   2.0000      -0.385467       -10.4891
  67   2.0000      -0.381388       -10.3781
  68   2.0000      -0.379610       -10.3297
  69   2.0000      -0.375401       -10.2152
  70   2.0000      -0.373792       -10.1714
  71   2.0000      -0.368797       -10.0355
  72   2.0000      -0.362207        -9.8562
  73   2.0000      -0.355794        -9.6817
  74   2.0000      -0.349074        -9.4988
  75   2.0000      -0.334175        -9.0934
  76   2.0000      -0.329946        -8.9783
  77   2.0000      -0.322156        -8.7663
  78   2.0000      -0.316157        -8.6031
  79   2.0000      -0.313229        -8.5234
  80   2.0000      -0.299760        -8.1569
  81   2.0000      -0.294035        -8.0011
  82   2.0000      -0.285069        -7.7571
  83   2.0000      -0.270386        -7.3576
  84   2.0000      -0.261751        -7.1226
  85   2.0000      -0.254397        -6.9225
  86   2.0000      -0.240627        -6.5478
  87   2.0000      -0.229208        -6.2371
  88   2.0000      -0.213927        -5.8212
  89   2.0000      -0.205036        -5.5793
  90   2.0000      -0.190113        -5.1732
  91   2.0000      -0.186679        -5.0798
  92   2.0000      -0.182864        -4.9760
  93   2.0000      -0.177495        -4.8299
  94   2.0000      -0.173271        -4.7149
  95   2.0000      -0.160347        -4.3633
  96   2.0000      -0.155978        -4.2444
  97   2.0000      -0.150836        -4.1044
  98   2.0000      -0.145322        -3.9544
  99   2.0000      -0.135224        -3.6796
 100   0.0000       0.067653         1.8409
 101   0.0000       0.106250         2.8912
 102   0.0000       0.115760         3.1500
 103   0.0000       0.123645         3.3645
 104   0.0000       0.129272         3.5177

MULLIKEN ATOMIC CHARGES
-----------------------
   0 C :   -0.275174
   1 C :    0.140868
   2 C :   -0.228708
   3 C :   -0.230902
   4 C :   -0.219417
   5 C :   -0.262612
   6 H :    0.288433
   7 H :    0.244137
   8 H :    0.194991
   9 H :    0.195233
  10 H :    0.189766
  11 C :   -0.501434
  12 C :   -0.512572
  13 H :    0.203659
  14 H :    0.270150
  15 C :    0.067952
  16 H :    0.269117
  17 H :    0.208712
  18 C :   -0.143044
  19 C :   -0.270433
  20 C :   -0.231884
  21 C :   -0.270472
  22 C :   -0.221130
  23 H :    0.265227
  24 H :    0.189261
  25 H :    0.176499
  26 H :    0.184523
  27 Pd:    0.169729
  28 Br:   -0.486768
  29 P :   -0.124189
  30 H :    0.119625
  31 C :    0.671334
  32 O :   -0.505617
  33 O :   -0.565092
  34 O :   -0.624472
  35 H :    0.084311
  36 H :    0.145080
  37 H :    0.395315
Sum of atomic charges:   -1.0000000

LOEWDIN ATOMIC CHARGES
----------------------
   0 C :   -0.106417
   1 C :   -0.038214
   2 C :   -0.120265
   3 C :   -0.158355
   4 C :   -0.151548
   5 C :   -0.146675
   6 H :    0.199214
   7 H :    0.144612
   8 H :    0.125370
   9 H :    0.125607
  10 H :    0.122418
  11 C :   -0.212932
  12 C :   -0.218404
  13 H :    0.121913
  14 H :    0.154153
  15 C :   -0.047287
  16 H :    0.151859
  17 H :    0.120469
  18 C :   -0.033460
  19 C :   -0.123704
  20 C :   -0.151160
  21 C :   -0.151681
  22 C :   -0.161742
  23 H :    0.161671
  24 H :    0.123225
  25 H :    0.119487
  26 H :    0.120540
  27 Pd:   -0.764196
  28 Br:   -0.290777
  29 P :    0.441029
  30 H :    0.054440
  31 C :    0.122073
  32 O :   -0.309035
  33 O :   -0.268652
  34 O :   -0.361929
  35 H :    0.031616
  36 H :    0.073664
  37 H :    0.303072

  Mayer bond orders larger than 0.100000
B(  0-C ,  1-C ) :   1.4043 B(  0-C ,  2-C ) :   1.3786 B(  0-C ,  6-H ) :   0.8687
B(  1-C ,  5-C ) :   1.3561 B(  1-C , 11-C ) :   0.9423 B(  2-C ,  3-C ) :   1.4702
B(  2-C ,  7-H ) :   0.9061 B(  3-C ,  4-C ) :   1.3790 B(  3-C ,  9-H ) :   0.9265
B(  4-C ,  5-C ) :   1.4810 B(  4-C , 10-H ) :   0.9272 B(  5-C ,  8-H ) :   0.9209
B( 11-C , 12-C ) :   0.9087 B( 11-C , 13-H ) :   0.9328 B( 11-C , 14-H ) :   0.8958
B( 12-C , 15-C ) :   0.9693 B( 12-C , 16-H ) :   0.8919 B( 12-C , 17-H ) :   0.9327
B( 15-C , 18-C ) :   1.3443 B( 15-C , 21-C ) :   1.4085 B( 18-C , 19-C ) :   1.4152
B( 18-C , 27-Pd) :   0.7595 B( 18-C , 28-Br) :   0.1124 B( 19-C , 20-C ) :   1.4026
B( 19-C , 23-H ) :   0.8768 B( 20-C , 22-C ) :   1.4340 B( 20-C , 24-H ) :   0.9268
B( 21-C , 22-C ) :   1.4232 B( 21-C , 25-H ) :   0.9273 B( 22-C , 26-H ) :   0.9278
B( 27-Pd, 28-Br) :   0.5121 B( 27-Pd, 29-P ) :   0.8452 B( 27-Pd, 33-O ) :   0.4586
B( 28-Br, 29-P ) :   0.1410 B( 29-P , 30-H ) :   0.9167 B( 29-P , 35-H ) :   0.8989
B( 29-P , 36-H ) :   0.9245 B( 31-C , 32-O ) :   1.8561 B( 31-C , 33-O ) :   1.3926
B( 31-C , 34-O ) :   1.0179 B( 34-O , 37-H ) :   0.7959

Dispersion correction           -0.030930000
FINAL SINGLE POINT ENERGY     -3847.699888769791
Dispersion correction            ... done

DIPOLE MOMENT
-------------
                                X             Y             Z
Electronic contribution:     14.92855     -78.12605     -39.57218
Nuclear contribution   :    -13.93832      79.30180      42.53656
                        -----------------------------------------
Total Dipole Moment    :      0.99023       1.17575       2.96438
                        -----------------------------------------
Magnitude (a.u.)       :      3.33924
Magnitude (Debye)      :      8.48767

Rotational constants in cm-1:     0.006938     0.005950     0.004321
Rotational constants in MHz :   207.992345   178.387389   129.527749

                             ****ORCA TERMINATED NORMALLY****
TOTAL RUN TIME: 0 days 0 hours 19 minutes 35 seconds 761 msec
