                         Program Version 5.0.3 -  RELEASE  -
|  1> ! EnGrad PBEh-3c
|  2> %output
|  3> xyzfile=True
|  4> end
|  5> %scf
|  6> maxiter 250
|  7> end
|  8> %output
|  9> Print[P_Hirshfeld] = 1
| 10> end
| 11> % maxcore
| 12> 4000
| 13> *xyz -1 1
| 14> C   -2.45129455  -0.15004134   0.49404634
| 15> C   -1.94092982   0.96568194   1.21888095
| 16> C   -3.77756682  -0.49155199   0.69192639
| 17> C   -4.69785680   0.36851253   1.26743966
| 18> C   -4.24873940   1.57899139   1.79785616
| 19> C   -2.89309974   1.80512991   1.83248864
| 20> H   -2.00685933  -0.73306015  -0.28089710
| 21> H   -4.10633559  -1.45751685   0.31906979
| 22> H   -2.54256865   2.72070349   2.33854404
| 23> H   -5.76184501   0.14602721   1.22165290
| 24> H   -4.95846538   2.31170565   2.18705956
| 25> C   -0.49912639   1.42886566   1.41076414
| 26> C    0.62917491   0.41001570   1.77049707
| 27> H   -0.50108346   2.19779767   2.22672301
| 28> H   -0.15095653   1.99883049   0.52333649
| 29> C    1.74750975   0.50726916   0.77053811
| 30> H    0.23929242  -0.60246632   1.82493611
| 31> H    1.02796612   0.63144981   2.76659625
| 32> C    1.68620597  -0.14549774  -0.48021157
| 33> C    2.70129642   0.14304695  -1.39391096
| 34> C    3.68480142   1.09509061  -1.14047320
| 35> C    2.79545775   1.39514070   1.04601258
| 36> C    3.75599310   1.70699801   0.09680408
| 37> H    2.72751223  -0.37212278  -2.34341679
| 38> H    4.43848881   1.30842241  -1.88781858
| 39> H    2.89126415   1.83556440   2.03528518
| 40> H    4.53629202   2.42961185   0.31446300
| 41> Pd   0.28306857  -1.56767936  -0.93528913
| 42> Br  -1.46188981  -3.57125789  -0.71436467
| 43> P    1.42695223  -3.00400295   0.19316894
| 44> H    0.94383084  -3.60883362   1.36825103
| 45> C    0.38177767  -1.24861827  -3.87097858
| 46> O    1.51955935  -1.64701573  -4.23292068
| 47> O   -0.41177499  -1.73333725  -3.01115150
| 48> O   -0.07658955  -0.08369377  -4.44468314
| 49> H    2.76410863  -2.73191697   0.57343604
| 50> H    1.64498989  -4.14090697  -0.61634236
| 51> H    0.65866591   0.28792068  -4.94212590
| 52> *
| 53>
| 54>                          ****END OF INPUT****

CARTESIAN COORDINATES (ANGSTROEM)
---------------------------------
  C     -2.451295   -0.150041    0.494046
  C     -1.940930    0.965682    1.218881
  C     -3.777567   -0.491552    0.691926
  C     -4.697857    0.368513    1.267440
  C     -4.248739    1.578991    1.797856
  C     -2.893100    1.805130    1.832489
  H     -2.006859   -0.733060   -0.280897
  H     -4.106336   -1.457517    0.319070
  H     -2.542569    2.720703    2.338544
  H     -5.761845    0.146027    1.221653
  H     -4.958465    2.311706    2.187060
  C     -0.499126    1.428866    1.410764
  C      0.629175    0.410016    1.770497
  H     -0.501083    2.197798    2.226723
  H     -0.150957    1.998830    0.523336
  C      1.747510    0.507269    0.770538
  H      0.239292   -0.602466    1.824936
  H      1.027966    0.631450    2.766596
  C      1.686206   -0.145498   -0.480212
  C      2.701296    0.143047   -1.393911
  C      3.684801    1.095091   -1.140473
  C      2.795458    1.395141    1.046013
  C      3.755993    1.706998    0.096804
  H      2.727512   -0.372123   -2.343417
  H      4.438489    1.308422   -1.887819
  H      2.891264    1.835564    2.035285
  H      4.536292    2.429612    0.314463
  Pd     0.283069   -1.567679   -0.935289
  Br    -1.461890   -3.571258   -0.714365
  P      1.426952   -3.004003    0.193169
  H      0.943831   -3.608834    1.368251
  C      0.381778   -1.248618   -3.870979
  O      1.519559   -1.647016   -4.232921
  O     -0.411775   -1.733337   -3.011151
  O     -0.076590   -0.083694   -4.444683
  H      2.764109   -2.731917    0.573436
  H      1.644990   -4.140907   -0.616342
  H      0.658666    0.287921   -4.942126

 Total Charge           Charge          ....   -1
 Multiplicity           Mult            ....    1
 Number of Electrons    NEL             ....  200
 Basis Dimension        Dim             ....  385

ORBITAL ENERGIES
----------------

  NO   OCC          E(Eh)            E(eV)
   0   2.0000    -484.322105    -13179.0745
   1   2.0000     -77.685839     -2113.9392
   2   2.0000     -62.983849     -1713.8777
   3   2.0000     -56.687496     -1542.5452
   4   2.0000     -56.686539     -1542.5192
   5   2.0000     -56.686430     -1542.5162
   6   2.0000     -19.366356      -526.9853
   7   2.0000     -19.309063      -525.4263
   8   2.0000     -19.290897      -524.9320
   9   2.0000     -10.434521      -283.9378
  10   2.0000     -10.369924      -282.1800
  11   2.0000     -10.355786      -281.7953
  12   2.0000     -10.355138      -281.7776
  13   2.0000     -10.352813      -281.7144
  14   2.0000     -10.352022      -281.6928
  15   2.0000     -10.350704      -281.6570
  16   2.0000     -10.346816      -281.5512
  17   2.0000     -10.346488      -281.5422
  18   2.0000     -10.345428      -281.5134
  19   2.0000     -10.345127      -281.5052
  20   2.0000     -10.344661      -281.4925
  21   2.0000     -10.344255      -281.4815
  22   2.0000     -10.340383      -281.3761
  23   2.0000     -10.330083      -281.0958
  24   2.0000      -8.811136      -239.7632
  25   2.0000      -6.759291      -183.9297
  26   2.0000      -6.580749      -179.0713
  27   2.0000      -6.576105      -178.9449
  28   2.0000      -6.575178      -178.9197
  29   2.0000      -4.850416      -131.9865
  30   2.0000      -4.850206      -131.9808
  31   2.0000      -4.848995      -131.9479
  32   2.0000      -3.532252       -96.1175
  33   2.0000      -2.594780       -70.6076
  34   2.0000      -2.593726       -70.5789
  35   2.0000      -2.592945       -70.5576
  36   2.0000      -2.588939       -70.4486
  37   2.0000      -2.588883       -70.4471
  38   2.0000      -2.179067       -59.2954
  39   2.0000      -2.175468       -59.1975
  40   2.0000      -2.147352       -58.4324
  41   2.0000      -1.052696       -28.6453
  42   2.0000      -0.942742       -25.6533
  43   2.0000      -0.905695       -24.6452
  44   2.0000      -0.861638       -23.4464
  45   2.0000      -0.850429       -23.1414
  46   2.0000      -0.788785       -21.4639
  47   2.0000      -0.748158       -20.3584
  48   2.0000      -0.741291       -20.1716
  49   2.0000      -0.723612       -19.6905
  50   2.0000      -0.691729       -18.8229
  51   2.0000      -0.657024       -17.8785
  52   2.0000      -0.628918       -17.1137
  53   2.0000      -0.625946       -17.0329
  54   2.0000      -0.576845       -15.6968
  55   2.0000      -0.568820       -15.4784
  56   2.0000      -0.562259       -15.2998
  57   2.0000      -0.541878       -14.7453
  58   2.0000      -0.515768       -14.0348
  59   2.0000      -0.482682       -13.1344
  60   2.0000      -0.466739       -12.7006
  61   2.0000      -0.437636       -11.9087
  62   2.0000      -0.424810       -11.5597
  63   2.0000      -0.417609       -11.3637
  64   2.0000      -0.406730       -11.0677
  65   2.0000      -0.389376       -10.5954
  66   2.0000      -0.387392       -10.5415
  67   2.0000      -0.380053       -10.3418
  68   2.0000      -0.378480       -10.2990
  69   2.0000      -0.377060       -10.2603
  70   2.0000      -0.373774       -10.1709
  71   2.0000      -0.370145       -10.0722
  72   2.0000      -0.361669        -9.8415
  73   2.0000      -0.353862        -9.6291
  74   2.0000      -0.348976        -9.4961
  75   2.0000      -0.333671        -9.0796
  76   2.0000      -0.331724        -9.0267
  77   2.0000      -0.324296        -8.8245
  78   2.0000      -0.314161        -8.5487
  79   2.0000      -0.305847        -8.3225
  80   2.0000      -0.301119        -8.1939
  81   2.0000      -0.294711        -8.0195
  82   2.0000      -0.290507        -7.9051
  83   2.0000      -0.274196        -7.4613
  84   2.0000      -0.264178        -7.1887
  85   2.0000      -0.256354        -6.9757
  86   2.0000      -0.241237        -6.5644
  87   2.0000      -0.230315        -6.2672
  88   2.0000      -0.208988        -5.6869
  89   2.0000      -0.204891        -5.5754
  90   2.0000      -0.193289        -5.2597
  91   2.0000      -0.183136        -4.9834
  92   2.0000      -0.181097        -4.9279
  93   2.0000      -0.175360        -4.7718
  94   2.0000      -0.170885        -4.6500
  95   2.0000      -0.159378        -4.3369
  96   2.0000      -0.151306        -4.1172
  97   2.0000      -0.150333        -4.0908
  98   2.0000      -0.145019        -3.9462
  99   2.0000      -0.138024        -3.7558
 100   0.0000       0.063444         1.7264
 101   0.0000       0.105053         2.8586
 102   0.0000       0.116517         3.1706
 103   0.0000       0.121481         3.3057
 104   0.0000       0.127937         3.4813

MULLIKEN ATOMIC CHARGES
-----------------------
   0 C :   -0.258395
   1 C :    0.128238
   2 C :   -0.221124
   3 C :   -0.240636
   4 C :   -0.207720
   5 C :   -0.266077
   6 H :    0.283044
   7 H :    0.243255
   8 H :    0.187928
   9 H :    0.196306
  10 H :    0.190942
  11 C :   -0.501336
  12 C :   -0.516791
  13 H :    0.203138
  14 H :    0.267667
  15 C :    0.071192
  16 H :    0.270356
  17 H :    0.209624
  18 C :   -0.148825
  19 C :   -0.270534
  20 C :   -0.231527
  21 C :   -0.267579
  22 C :   -0.222797
  23 H :    0.272810
  24 H :    0.191473
  25 H :    0.177667
  26 H :    0.184485
  27 Pd:    0.176623
  28 Br:   -0.490518
  29 P :   -0.119756
  30 H :    0.120357
  31 C :    0.680978
  32 O :   -0.571252
  33 O :   -0.539869
  34 O :   -0.622374
  35 H :    0.086950
  36 H :    0.148606
  37 H :    0.405471
Sum of atomic charges:   -1.0000000

LOEWDIN ATOMIC CHARGES
----------------------
   0 C :   -0.101379
   1 C :   -0.032594
   2 C :   -0.123272
   3 C :   -0.154265
   4 C :   -0.152888
   5 C :   -0.147385
   6 H :    0.184025
   7 H :    0.146374
   8 H :    0.122127
   9 H :    0.125590
  10 H :    0.123749
  11 C :   -0.212828
  12 C :   -0.217224
  13 H :    0.123017
  14 H :    0.153538
  15 C :   -0.048694
  16 H :    0.152882
  17 H :    0.121074
  18 C :   -0.032341
  19 C :   -0.121531
  20 C :   -0.150602
  21 C :   -0.151906
  22 C :   -0.160193
  23 H :    0.165386
  24 H :    0.124224
  25 H :    0.120163
  26 H :    0.120475
  27 Pd:   -0.754395
  28 Br:   -0.294838
  29 P :    0.441689
  30 H :    0.055877
  31 C :    0.136506
  32 O :   -0.389124
  33 O :   -0.239708
  34 O :   -0.351493
  35 H :    0.034106
  36 H :    0.077140
  37 H :    0.308715

  Mayer bond orders larger than 0.100000
B(  0-C ,  1-C ) :   1.3701 B(  0-C ,  2-C ) :   1.4435 B(  0-C ,  6-H ) :   0.8701
B(  1-C ,  5-C ) :   1.3979 B(  1-C , 11-C ) :   0.9448 B(  2-C ,  3-C ) :   1.4225
B(  2-C ,  7-H ) :   0.9052 B(  3-C ,  4-C ) :   1.4141 B(  3-C ,  9-H ) :   0.9261
B(  4-C ,  5-C ) :   1.4414 B(  4-C , 10-H ) :   0.9273 B(  5-C ,  8-H ) :   0.9229
B( 11-C , 12-C ) :   0.9085 B( 11-C , 13-H ) :   0.9320 B( 11-C , 14-H ) :   0.8952
B( 12-C , 15-C ) :   0.9699 B( 12-C , 16-H ) :   0.8911 B( 12-C , 17-H ) :   0.9318
B( 15-C , 18-C ) :   1.3436 B( 15-C , 21-C ) :   1.4020 B( 18-C , 19-C ) :   1.4116
B( 18-C , 27-Pd) :   0.7672 B( 18-C , 28-Br) :   0.1130 B( 18-C , 29-P ) :   0.1021
B( 19-C , 20-C ) :   1.4046 B( 19-C , 23-H ) :   0.8679 B( 20-C , 22-C ) :   1.4304
B( 20-C , 24-H ) :   0.9264 B( 21-C , 22-C ) :   1.4274 B( 21-C , 25-H ) :   0.9269
B( 22-C , 26-H ) :   0.9279 B( 27-Pd, 28-Br) :   0.5132 B( 27-Pd, 29-P ) :   0.8261
B( 27-Pd, 33-O ) :   0.4247 B( 28-Br, 29-P ) :   0.1371 B( 29-P , 30-H ) :   0.9176
B( 29-P , 35-H ) :   0.9000 B( 29-P , 36-H ) :   0.9253 B( 31-C , 32-O ) :   1.7606
B( 31-C , 33-O ) :   1.4582 B( 31-C , 34-O ) :   1.0306 B( 34-O , 37-H ) :   0.7865

Dispersion correction           -0.031035748
FINAL SINGLE POINT ENERGY     -3847.707162733810
Dispersion correction            ... done

DIPOLE MOMENT
-------------
                                X             Y             Z
Electronic contribution:     13.77468     -77.06728     -37.88966
Nuclear contribution   :    -12.84127      78.35054      41.01581
                        -----------------------------------------
Total Dipole Moment    :      0.93341       1.28326       3.12615
                        -----------------------------------------
Magnitude (a.u.)       :      3.50583
Magnitude (Debye)      :      8.91110

Rotational constants in cm-1:     0.006972     0.005988     0.004365
Rotational constants in MHz :   209.011627   179.506294   130.866911

                             ****ORCA TERMINATED NORMALLY****
TOTAL RUN TIME: 0 days 0 hours 23 minutes 47 seconds 902 msec
