                         Program Version 5.0.3 -  RELEASE  -
|  1> ! EnGrad PBEh-3c
|  2> %output
|  3> xyzfile=True
|  4> end
|  5> %scf
|  6> maxiter 250
|  7> end
|  8> %output
|  9> Print[P_Hirshfeld] = 1
| 10> end
| 11> % maxcore
| 12> 4000
| 13> *xyz -1 1
| 14> C   -2.44150026  -0.13072865   0.51345320
| 15> C   -1.92124612   0.97669057   1.22730192
| 16> C   -3.76858406  -0.48071001   0.62152506
| 17> C   -4.68920940   0.37749903   1.22964022
| 18> C   -4.26427365   1.57418452   1.75397711
| 19> C   -2.88885499   1.81528591   1.79940271
| 20> H   -1.92874226  -0.71658393  -0.22759384
| 21> H   -4.08292927  -1.44058902   0.24962482
| 22> H   -2.56572895   2.70529811   2.32178225
| 23> H   -5.73834436   0.12973400   1.19016867
| 24> H   -4.96830103   2.30700887   2.13824283
| 25> C   -0.47461753   1.45445593   1.44533510
| 26> C    0.63958059   0.39487845   1.78942054
| 27> H   -0.50989745   2.17017618   2.29034992
| 28> H   -0.11843165   2.05015196   0.59109200
| 29> C    1.75099393   0.48995522   0.78110543
| 30> H    0.23270146  -0.61851392   1.84334256
| 31> H    1.03938471   0.61613156   2.78709669
| 32> C    1.67379927  -0.14736323  -0.47566532
| 33> C    2.67384212   0.14773028  -1.40194255
| 34> C    3.66820546   1.08712447  -1.14693599
| 35> C    2.78586784   1.39594475   1.04886700
| 36> C    3.74622044   1.69383428   0.09437255
| 37> H    2.68604431  -0.36197638  -2.35572756
| 38> H    4.40652597   1.31374624  -1.90776712
| 39> H    2.88368671   1.83324813   2.04038474
| 40> H    4.53017366   2.41063212   0.30963752
| 41> Pd   0.26366202  -1.56411981  -0.91586537
| 42> Br  -1.48776889  -3.54513561  -0.66177765
| 43> P    1.44825093  -3.01338503   0.18483875
| 44> H    0.99074706  -3.62196284   1.36485114
| 45> C    0.39140544  -1.26990610  -3.86338322
| 46> O    1.46607912  -1.63311456  -4.22602794
| 47> O   -0.41135782  -1.76462458  -3.00006405
| 48> O   -0.09103576  -0.08897684  -4.41136924
| 49> H    2.79093280  -2.73452130   0.53059787
| 50> H    1.64514061  -4.13588538  -0.64737173
| 51> H    0.63336568   0.30251954  -4.91145026
| 52> *
| 53>
| 54>                          ****END OF INPUT****

CARTESIAN COORDINATES (ANGSTROEM)
---------------------------------
  C     -2.441500   -0.130729    0.513453
  C     -1.921246    0.976691    1.227302
  C     -3.768584   -0.480710    0.621525
  C     -4.689209    0.377499    1.229640
  C     -4.264274    1.574185    1.753977
  C     -2.888855    1.815286    1.799403
  H     -1.928742   -0.716584   -0.227594
  H     -4.082929   -1.440589    0.249625
  H     -2.565729    2.705298    2.321782
  H     -5.738344    0.129734    1.190169
  H     -4.968301    2.307009    2.138243
  C     -0.474618    1.454456    1.445335
  C      0.639581    0.394878    1.789421
  H     -0.509897    2.170176    2.290350
  H     -0.118432    2.050152    0.591092
  C      1.750994    0.489955    0.781105
  H      0.232701   -0.618514    1.843343
  H      1.039385    0.616132    2.787097
  C      1.673799   -0.147363   -0.475665
  C      2.673842    0.147730   -1.401943
  C      3.668205    1.087124   -1.146936
  C      2.785868    1.395945    1.048867
  C      3.746220    1.693834    0.094373
  H      2.686044   -0.361976   -2.355728
  H      4.406526    1.313746   -1.907767
  H      2.883687    1.833248    2.040385
  H      4.530174    2.410632    0.309638
  Pd     0.263662   -1.564120   -0.915865
  Br    -1.487769   -3.545136   -0.661778
  P      1.448251   -3.013385    0.184839
  H      0.990747   -3.621963    1.364851
  C      0.391405   -1.269906   -3.863383
  O      1.466079   -1.633115   -4.226028
  O     -0.411358   -1.764625   -3.000064
  O     -0.091036   -0.088977   -4.411369
  H      2.790933   -2.734521    0.530598
  H      1.645141   -4.135885   -0.647372
  H      0.633366    0.302520   -4.911450

 Total Charge           Charge          ....   -1
 Multiplicity           Mult            ....    1
 Number of Electrons    NEL             ....  200
 Basis Dimension        Dim             ....  385

ORBITAL ENERGIES
----------------

  NO   OCC          E(Eh)            E(eV)
   0   2.0000    -484.320210    -13179.0229
   1   2.0000     -77.684853     -2113.9123
   2   2.0000     -62.981938     -1713.8257
   3   2.0000     -56.685582     -1542.4931
   4   2.0000     -56.684627     -1542.4671
   5   2.0000     -56.684529     -1542.4645
   6   2.0000     -19.356584      -526.7194
   7   2.0000     -19.300216      -525.1856
   8   2.0000     -19.297294      -525.1061
   9   2.0000     -10.426993      -283.7329
  10   2.0000     -10.366756      -282.0938
  11   2.0000     -10.356101      -281.8038
  12   2.0000     -10.353181      -281.7244
  13   2.0000     -10.350457      -281.6503
  14   2.0000     -10.350188      -281.6429
  15   2.0000     -10.348801      -281.6052
  16   2.0000     -10.346750      -281.5494
  17   2.0000     -10.345870      -281.5254
  18   2.0000     -10.345405      -281.5128
  19   2.0000     -10.344435      -281.4864
  20   2.0000     -10.343166      -281.4519
  21   2.0000     -10.342149      -281.4242
  22   2.0000     -10.341112      -281.3960
  23   2.0000     -10.330801      -281.1154
  24   2.0000      -8.809225      -239.7112
  25   2.0000      -6.758504      -183.9082
  26   2.0000      -6.578802      -179.0183
  27   2.0000      -6.574219      -178.8936
  28   2.0000      -6.573288      -178.8683
  29   2.0000      -4.849634      -131.9652
  30   2.0000      -4.849403      -131.9590
  31   2.0000      -4.848158      -131.9251
  32   2.0000      -3.529950       -96.0548
  33   2.0000      -2.592854       -70.5551
  34   2.0000      -2.591802       -70.5265
  35   2.0000      -2.591021       -70.5053
  36   2.0000      -2.587062       -70.3975
  37   2.0000      -2.587005       -70.3960
  38   2.0000      -2.175931       -59.2101
  39   2.0000      -2.173614       -59.1470
  40   2.0000      -2.145171       -58.3731
  41   2.0000      -1.058190       -28.7948
  42   2.0000      -0.946572       -25.7575
  43   2.0000      -0.916767       -24.9465
  44   2.0000      -0.860306       -23.4101
  45   2.0000      -0.850300       -23.1378
  46   2.0000      -0.787482       -21.4285
  47   2.0000      -0.748409       -20.3652
  48   2.0000      -0.738193       -20.0872
  49   2.0000      -0.723961       -19.7000
  50   2.0000      -0.691419       -18.8145
  51   2.0000      -0.656146       -17.8546
  52   2.0000      -0.627874       -17.0853
  53   2.0000      -0.624519       -16.9940
  54   2.0000      -0.578373       -15.7383
  55   2.0000      -0.569088       -15.4857
  56   2.0000      -0.562115       -15.2959
  57   2.0000      -0.541863       -14.7448
  58   2.0000      -0.506332       -13.7780
  59   2.0000      -0.482702       -13.1350
  60   2.0000      -0.466654       -12.6983
  61   2.0000      -0.435542       -11.8517
  62   2.0000      -0.424157       -11.5419
  63   2.0000      -0.417763       -11.3679
  64   2.0000      -0.406857       -11.0712
  65   2.0000      -0.388295       -10.5660
  66   2.0000      -0.385652       -10.4941
  67   2.0000      -0.380745       -10.3606
  68   2.0000      -0.378937       -10.3114
  69   2.0000      -0.377808       -10.2807
  70   2.0000      -0.374109       -10.1800
  71   2.0000      -0.370919       -10.0932
  72   2.0000      -0.361998        -9.8505
  73   2.0000      -0.354599        -9.6491
  74   2.0000      -0.349547        -9.5116
  75   2.0000      -0.333714        -9.0808
  76   2.0000      -0.329495        -8.9660
  77   2.0000      -0.322748        -8.7824
  78   2.0000      -0.314632        -8.5616
  79   2.0000      -0.308888        -8.4053
  80   2.0000      -0.301991        -8.2176
  81   2.0000      -0.292375        -7.9559
  82   2.0000      -0.290930        -7.9166
  83   2.0000      -0.275385        -7.4936
  84   2.0000      -0.262628        -7.1465
  85   2.0000      -0.255156        -6.9432
  86   2.0000      -0.236709        -6.4412
  87   2.0000      -0.229079        -6.2335
  88   2.0000      -0.210373        -5.7245
  89   2.0000      -0.204622        -5.5681
  90   2.0000      -0.190678        -5.1886
  91   2.0000      -0.185125        -5.0375
  92   2.0000      -0.181878        -4.9492
  93   2.0000      -0.176096        -4.7918
  94   2.0000      -0.174181        -4.7397
  95   2.0000      -0.158416        -4.3107
  96   2.0000      -0.150987        -4.1086
  97   2.0000      -0.149212        -4.0603
  98   2.0000      -0.143945        -3.9169
  99   2.0000      -0.134758        -3.6669
 100   0.0000       0.064449         1.7537
 101   0.0000       0.110192         2.9985
 102   0.0000       0.115854         3.1525
 103   0.0000       0.121289         3.3005
 104   0.0000       0.128284         3.4908

MULLIKEN ATOMIC CHARGES
-----------------------
   0 C :   -0.276359
   1 C :    0.149887
   2 C :   -0.206262
   3 C :   -0.248984
   4 C :   -0.197837
   5 C :   -0.283293
   6 H :    0.274718
   7 H :    0.247100
   8 H :    0.187227
   9 H :    0.194149
  10 H :    0.190542
  11 C :   -0.497907
  12 C :   -0.521226
  13 H :    0.205110
  14 H :    0.268860
  15 C :    0.070843
  16 H :    0.270854
  17 H :    0.207875
  18 C :   -0.145128
  19 C :   -0.270200
  20 C :   -0.230799
  21 C :   -0.263554
  22 C :   -0.225514
  23 H :    0.269461
  24 H :    0.191324
  25 H :    0.178520
  26 H :    0.183797
  27 Pd:    0.173541
  28 Br:   -0.490992
  29 P :   -0.122052
  30 H :    0.119932
  31 C :    0.662267
  32 O :   -0.508407
  33 O :   -0.556174
  34 O :   -0.634250
  35 H :    0.087743
  36 H :    0.148211
  37 H :    0.396975
Sum of atomic charges:   -1.0000000

LOEWDIN ATOMIC CHARGES
----------------------
   0 C :   -0.098559
   1 C :   -0.035180
   2 C :   -0.124829
   3 C :   -0.150602
   4 C :   -0.154688
   5 C :   -0.145375
   6 H :    0.180920
   7 H :    0.149267
   8 H :    0.120498
   9 H :    0.123978
  10 H :    0.124030
  11 C :   -0.211430
  12 C :   -0.216365
  13 H :    0.124213
  14 H :    0.152909
  15 C :   -0.049156
  16 H :    0.153893
  17 H :    0.120409
  18 C :   -0.031388
  19 C :   -0.121352
  20 C :   -0.150836
  21 C :   -0.151718
  22 C :   -0.159989
  23 H :    0.163629
  24 H :    0.124207
  25 H :    0.120671
  26 H :    0.120177
  27 Pd:   -0.761163
  28 Br:   -0.292590
  29 P :    0.436837
  30 H :    0.056036
  31 C :    0.101679
  32 O :   -0.310617
  33 O :   -0.256717
  34 O :   -0.366276
  35 H :    0.035091
  36 H :    0.077587
  37 H :    0.302801

  Mayer bond orders larger than 0.100000
B(  0-C ,  1-C ) :   1.3493 B(  0-C ,  2-C ) :   1.4706 B(  0-C ,  6-H ) :   0.8692
B(  1-C ,  5-C ) :   1.4176 B(  1-C , 11-C ) :   0.9448 B(  2-C ,  3-C ) :   1.3949
B(  2-C ,  7-H ) :   0.9022 B(  3-C ,  4-C ) :   1.4446 B(  3-C ,  9-H ) :   0.9260
B(  4-C ,  5-C ) :   1.4135 B(  4-C , 10-H ) :   0.9281 B(  5-C ,  8-H ) :   0.9231
B( 11-C , 12-C ) :   0.9124 B( 11-C , 13-H ) :   0.9305 B( 11-C , 14-H ) :   0.8961
B( 12-C , 15-C ) :   0.9707 B( 12-C , 16-H ) :   0.8905 B( 12-C , 17-H ) :   0.9313
B( 15-C , 18-C ) :   1.3409 B( 15-C , 21-C ) :   1.3978 B( 18-C , 19-C ) :   1.4108
B( 18-C , 27-Pd) :   0.7704 B( 18-C , 28-Br) :   0.1128 B( 18-C , 29-P ) :   0.1005
B( 19-C , 20-C ) :   1.4065 B( 19-C , 23-H ) :   0.8724 B( 20-C , 22-C ) :   1.4293
B( 20-C , 24-H ) :   0.9263 B( 21-C , 22-C ) :   1.4296 B( 21-C , 25-H ) :   0.9265
B( 22-C , 26-H ) :   0.9281 B( 27-Pd, 28-Br) :   0.5206 B( 27-Pd, 29-P ) :   0.8028
B( 27-Pd, 33-O ) :   0.4422 B( 28-Br, 29-P ) :   0.1307 B( 29-P , 30-H ) :   0.9184
B( 29-P , 35-H ) :   0.9016 B( 29-P , 36-H ) :   0.9263 B( 31-C , 32-O ) :   1.8535
B( 31-C , 33-O ) :   1.4266 B( 31-C , 34-O ) :   1.0066 B( 34-O , 37-H ) :   0.7933

Dispersion correction           -0.031118242
FINAL SINGLE POINT ENERGY     -3847.708895524261
Dispersion correction            ... done

DIPOLE MOMENT
-------------
                                X             Y             Z
Electronic contribution:     12.95662     -76.89715     -36.89527
Nuclear contribution   :    -11.82807      78.11911      39.96773
                        -----------------------------------------
Total Dipole Moment    :      1.12856       1.22196       3.07246
                        -----------------------------------------
Magnitude (a.u.)       :      3.49383
Magnitude (Debye)      :      8.88060

Rotational constants in cm-1:     0.007001     0.006015     0.004400
Rotational constants in MHz :   209.871461   180.321529   131.912439

                             ****ORCA TERMINATED NORMALLY****
TOTAL RUN TIME: 0 days 0 hours 24 minutes 7 seconds 945 msec
