                         Program Version 5.0.3 -  RELEASE  -
|  1> ! EnGrad PBEh-3c
|  2> %output
|  3> xyzfile=True
|  4> end
|  5> %scf
|  6> maxiter 250
|  7> end
|  8> %output
|  9> Print[P_Hirshfeld] = 1
| 10> end
| 11> % maxcore
| 12> 4000
| 13> *xyz -1 1
| 14> C   -2.44929632  -0.14610117   0.49800573
| 15> C   -1.93691395   0.96792792   1.22059899
| 16> C   -3.77573416  -0.48934001   0.67756311
| 17> C   -4.69609256   0.37034596   1.25972782
| 18> C   -4.25190870   1.57801069   1.78890396
| 19> C   -2.89223373   1.80720194   1.82573845
| 20> H   -1.99092189  -0.72969867  -0.27002217
| 21> H   -4.10156024  -1.45406323   0.30490163
| 22> H   -2.54729381   2.71756048   2.33512430
| 23> H   -5.75705041   0.14270307   1.21522949
| 24> H   -4.96047205   2.31074742   2.17709997
| 25> C   -0.49412609   1.43408658   1.41781730
| 26> C    0.63129787   0.40692740   1.77435784
| 27> H   -0.50288169   2.19216234   2.23970416
| 28> H   -0.14432081   2.00930110   0.53715997
| 29> C    1.74822059   0.50373677   0.77269405
| 30> H    0.23794773  -0.60574035   1.82869140
| 31> H    1.03029574   0.62832459   2.77077874
| 32> C    1.68367476  -0.14587834  -0.47928404
| 33> C    2.69569519   0.14400244  -1.39554957
| 34> C    3.68141551   1.09346536  -1.14179174
| 35> C    2.79350122   1.39530474   1.04659494
| 36> C    3.75399928   1.70431235   0.09630800
| 37> H    2.71905195  -0.37005271  -2.34592843
| 38> H    4.43196775   1.30950858  -1.89188848
| 39> H    2.88971820   1.83509184   2.03632559
| 40> H    4.53504375   2.42573961   0.31347851
| 41> Pd   0.27910925  -1.56695314  -0.93132630
| 42> Br  -1.46716966  -3.56592842  -0.70363587
| 43> P    1.43129759  -3.00591708   0.19146941
| 44> H    0.95340269  -3.61151225   1.36755739
| 45> C    0.38374193  -1.25296141  -3.86942897
| 46> O    1.50864832  -1.64417961  -4.23151443
| 47> O   -0.41168988  -1.73972049  -3.00888944
| 48> O   -0.07953686  -0.08477162  -4.43788644
| 49> H    2.76958129  -2.73244831   0.56469620
| 50> H    1.64502064  -4.13988247  -0.62267297
| 51> H    0.65350416   0.29089914  -4.93586746
| 52> *
| 53>
| 54>                          ****END OF INPUT****

CARTESIAN COORDINATES (ANGSTROEM)
---------------------------------
  C     -2.449296   -0.146101    0.498006
  C     -1.936914    0.967928    1.220599
  C     -3.775734   -0.489340    0.677563
  C     -4.696093    0.370346    1.259728
  C     -4.251909    1.578011    1.788904
  C     -2.892234    1.807202    1.825738
  H     -1.990922   -0.729699   -0.270022
  H     -4.101560   -1.454063    0.304902
  H     -2.547294    2.717560    2.335124
  H     -5.757050    0.142703    1.215229
  H     -4.960472    2.310747    2.177100
  C     -0.494126    1.434087    1.417817
  C      0.631298    0.406927    1.774358
  H     -0.502882    2.192162    2.239704
  H     -0.144321    2.009301    0.537160
  C      1.748221    0.503737    0.772694
  H      0.237948   -0.605740    1.828691
  H      1.030296    0.628325    2.770779
  C      1.683675   -0.145878   -0.479284
  C      2.695695    0.144002   -1.395550
  C      3.681416    1.093465   -1.141792
  C      2.793501    1.395305    1.046595
  C      3.753999    1.704312    0.096308
  H      2.719052   -0.370053   -2.345928
  H      4.431968    1.309509   -1.891888
  H      2.889718    1.835092    2.036326
  H      4.535044    2.425740    0.313479
  Pd     0.279109   -1.566953   -0.931326
  Br    -1.467170   -3.565928   -0.703636
  P      1.431298   -3.005917    0.191469
  H      0.953403   -3.611512    1.367557
  C      0.383742   -1.252961   -3.869429
  O      1.508648   -1.644180   -4.231514
  O     -0.411690   -1.739720   -3.008889
  O     -0.079537   -0.084772   -4.437886
  H      2.769581   -2.732448    0.564696
  H      1.645021   -4.139882   -0.622673
  H      0.653504    0.290899   -4.935867

 Total Charge           Charge          ....   -1
 Multiplicity           Mult            ....    1
 Number of Electrons    NEL             ....  200
 Basis Dimension        Dim             ....  385

ORBITAL ENERGIES
----------------

  NO   OCC          E(Eh)            E(eV)
   0   2.0000    -484.321730    -13179.0643
   1   2.0000     -77.685637     -2113.9337
   2   2.0000     -62.983472     -1713.8674
   3   2.0000     -56.687118     -1542.5349
   4   2.0000     -56.686162     -1542.5089
   5   2.0000     -56.686055     -1542.5060
   6   2.0000     -19.364442      -526.9333
   7   2.0000     -19.307254      -525.3771
   8   2.0000     -19.292169      -524.9666
   9   2.0000     -10.433038      -283.8974
  10   2.0000     -10.369242      -282.1614
  11   2.0000     -10.355781      -281.7951
  12   2.0000     -10.354749      -281.7670
  13   2.0000     -10.352265      -281.6995
  14   2.0000     -10.351351      -281.6746
  15   2.0000     -10.350642      -281.6553
  16   2.0000     -10.346354      -281.5386
  17   2.0000     -10.345937      -281.5273
  18   2.0000     -10.345677      -281.5202
  19   2.0000     -10.345177      -281.5066
  20   2.0000     -10.344287      -281.4824
  21   2.0000     -10.344088      -281.4770
  22   2.0000     -10.340525      -281.3800
  23   2.0000     -10.330221      -281.0996
  24   2.0000      -8.810759      -239.7529
  25   2.0000      -6.759133      -183.9254
  26   2.0000      -6.580365      -179.0608
  27   2.0000      -6.575733      -178.9348
  28   2.0000      -6.574805      -178.9095
  29   2.0000      -4.850259      -131.9822
  30   2.0000      -4.850045      -131.9764
  31   2.0000      -4.848826      -131.9433
  32   2.0000      -3.531789       -96.1049
  33   2.0000      -2.594400       -70.5972
  34   2.0000      -2.593347       -70.5686
  35   2.0000      -2.592565       -70.5473
  36   2.0000      -2.588569       -70.4385
  37   2.0000      -2.588513       -70.4370
  38   2.0000      -2.178433       -59.2782
  39   2.0000      -2.175099       -59.1875
  40   2.0000      -2.146912       -58.4205
  41   2.0000      -1.052949       -28.6522
  42   2.0000      -0.941893       -25.6302
  43   2.0000      -0.910182       -24.7673
  44   2.0000      -0.861376       -23.4392
  45   2.0000      -0.850409       -23.1408
  46   2.0000      -0.788524       -21.4568
  47   2.0000      -0.748183       -20.3591
  48   2.0000      -0.740710       -20.1557
  49   2.0000      -0.723690       -19.6926
  50   2.0000      -0.691675       -18.8214
  51   2.0000      -0.656859       -17.8740
  52   2.0000      -0.628723       -17.1084
  53   2.0000      -0.625655       -17.0249
  54   2.0000      -0.577121       -15.7043
  55   2.0000      -0.568889       -15.4803
  56   2.0000      -0.562316       -15.3014
  57   2.0000      -0.541893       -14.7457
  58   2.0000      -0.513876       -13.9833
  59   2.0000      -0.482707       -13.1351
  60   2.0000      -0.466726       -12.7003
  61   2.0000      -0.437233       -11.8977
  62   2.0000      -0.424646       -11.5552
  63   2.0000      -0.417643       -11.3646
  64   2.0000      -0.406751       -11.0683
  65   2.0000      -0.388918       -10.5830
  66   2.0000      -0.386971       -10.5300
  67   2.0000      -0.380171       -10.3450
  68   2.0000      -0.378523       -10.3001
  69   2.0000      -0.377175       -10.2634
  70   2.0000      -0.373696       -10.1688
  71   2.0000      -0.370338       -10.0774
  72   2.0000      -0.361556        -9.8384
  73   2.0000      -0.353871        -9.6293
  74   2.0000      -0.349070        -9.4987
  75   2.0000      -0.333528        -9.0758
  76   2.0000      -0.331402        -9.0179
  77   2.0000      -0.323981        -8.8160
  78   2.0000      -0.314275        -8.5518
  79   2.0000      -0.306599        -8.3430
  80   2.0000      -0.301344        -8.2000
  81   2.0000      -0.294038        -8.0012
  82   2.0000      -0.290932        -7.9167
  83   2.0000      -0.274493        -7.4693
  84   2.0000      -0.263868        -7.1802
  85   2.0000      -0.256117        -6.9693
  86   2.0000      -0.240364        -6.5406
  87   2.0000      -0.230083        -6.2609
  88   2.0000      -0.208974        -5.6865
  89   2.0000      -0.204926        -5.5763
  90   2.0000      -0.192772        -5.2456
  91   2.0000      -0.183589        -4.9957
  92   2.0000      -0.181254        -4.9322
  93   2.0000      -0.175488        -4.7753
  94   2.0000      -0.171688        -4.6719
  95   2.0000      -0.159373        -4.3368
  96   2.0000      -0.151093        -4.1114
  97   2.0000      -0.150431        -4.0934
  98   2.0000      -0.144909        -3.9432
  99   2.0000      -0.137489        -3.7413
 100   0.0000       0.063652         1.7321
 101   0.0000       0.106140         2.8882
 102   0.0000       0.116459         3.1690
 103   0.0000       0.121428         3.3042
 104   0.0000       0.128016         3.4835

MULLIKEN ATOMIC CHARGES
-----------------------
   0 C :   -0.261808
   1 C :    0.132465
   2 C :   -0.218229
   3 C :   -0.242339
   4 C :   -0.205721
   5 C :   -0.269753
   6 H :    0.281439
   7 H :    0.244178
   8 H :    0.187820
   9 H :    0.195831
  10 H :    0.190841
  11 C :   -0.500683
  12 C :   -0.517767
  13 H :    0.203646
  14 H :    0.267934
  15 C :    0.071168
  16 H :    0.270469
  17 H :    0.209267
  18 C :   -0.148111
  19 C :   -0.270531
  20 C :   -0.231381
  21 C :   -0.266784
  22 C :   -0.223315
  23 H :    0.272183
  24 H :    0.191449
  25 H :    0.177837
  26 H :    0.184332
  27 Pd:    0.175986
  28 Br:   -0.490595
  29 P :   -0.120166
  30 H :    0.120274
  31 C :    0.678065
  32 O :   -0.559502
  33 O :   -0.543261
  34 O :   -0.624704
  35 H :    0.087124
  36 H :    0.148532
  37 H :    0.403811
Sum of atomic charges:   -1.0000000

LOEWDIN ATOMIC CHARGES
----------------------
   0 C :   -0.100917
   1 C :   -0.033052
   2 C :   -0.123607
   3 C :   -0.153508
   4 C :   -0.153227
   5 C :   -0.147011
   6 H :    0.183351
   7 H :    0.146991
   8 H :    0.121804
   9 H :    0.125253
  10 H :    0.123798
  11 C :   -0.212586
  12 C :   -0.217039
  13 H :    0.123293
  14 H :    0.153400
  15 C :   -0.048789
  16 H :    0.153082
  17 H :    0.120941
  18 C :   -0.032172
  19 C :   -0.121494
  20 C :   -0.150646
  21 C :   -0.151875
  22 C :   -0.160145
  23 H :    0.165045
  24 H :    0.124219
  25 H :    0.120266
  26 H :    0.120412
  27 Pd:   -0.755671
  28 Br:   -0.294357
  29 P :    0.440766
  30 H :    0.055908
  31 C :    0.129943
  32 O :   -0.373889
  33 O :   -0.243223
  34 O :   -0.354368
  35 H :    0.034315
  36 H :    0.077232
  37 H :    0.307556

  Mayer bond orders larger than 0.100000
B(  0-C ,  1-C ) :   1.3659 B(  0-C ,  2-C ) :   1.4496 B(  0-C ,  6-H ) :   0.8699
B(  1-C ,  5-C ) :   1.4024 B(  1-C , 11-C ) :   0.9449 B(  2-C ,  3-C ) :   1.4167
B(  2-C ,  7-H ) :   0.9046 B(  3-C ,  4-C ) :   1.4206 B(  3-C ,  9-H ) :   0.9261
B(  4-C ,  5-C ) :   1.4355 B(  4-C , 10-H ) :   0.9275 B(  5-C ,  8-H ) :   0.9230
B( 11-C , 12-C ) :   0.9093 B( 11-C , 13-H ) :   0.9317 B( 11-C , 14-H ) :   0.8954
B( 12-C , 15-C ) :   0.9700 B( 12-C , 16-H ) :   0.8910 B( 12-C , 17-H ) :   0.9317
B( 15-C , 18-C ) :   1.3431 B( 15-C , 21-C ) :   1.4011 B( 18-C , 19-C ) :   1.4114
B( 18-C , 27-Pd) :   0.7678 B( 18-C , 28-Br) :   0.1130 B( 18-C , 29-P ) :   0.1018
B( 19-C , 20-C ) :   1.4050 B( 19-C , 23-H ) :   0.8688 B( 20-C , 22-C ) :   1.4302
B( 20-C , 24-H ) :   0.9264 B( 21-C , 22-C ) :   1.4278 B( 21-C , 25-H ) :   0.9268
B( 22-C , 26-H ) :   0.9279 B( 27-Pd, 28-Br) :   0.5147 B( 27-Pd, 29-P ) :   0.8215
B( 27-Pd, 33-O ) :   0.4283 B( 28-Br, 29-P ) :   0.1358 B( 29-P , 30-H ) :   0.9178
B( 29-P , 35-H ) :   0.9004 B( 29-P , 36-H ) :   0.9255 B( 31-C , 32-O ) :   1.7788
B( 31-C , 33-O ) :   1.4517 B( 31-C , 34-O ) :   1.0260 B( 34-O , 37-H ) :   0.7878

Dispersion correction           -0.031053302
FINAL SINGLE POINT ENERGY     -3847.709126023964
Dispersion correction            ... done

DIPOLE MOMENT
-------------
                                X             Y             Z
Electronic contribution:     13.60772     -77.03237     -37.68620
Nuclear contribution   :    -12.63456      78.30332      40.80198
                        -----------------------------------------
Total Dipole Moment    :      0.97316       1.27095       3.11578
                        -----------------------------------------
Magnitude (a.u.)       :      3.50292
Magnitude (Debye)      :      8.90371

Rotational constants in cm-1:     0.006978     0.005993     0.004372
Rotational constants in MHz :   209.188416   179.678831   131.081738

                             ****ORCA TERMINATED NORMALLY****
TOTAL RUN TIME: 0 days 0 hours 23 minutes 27 seconds 188 msec
