                         Program Version 5.0.3 -  RELEASE  -
|  1> ! EnGrad PBEh-3c
|  2> %output
|  3> xyzfile=True
|  4> end
|  5> %scf
|  6> maxiter 250
|  7> end
|  8> %output
|  9> Print[P_Hirshfeld] = 1
| 10> end
| 11> % maxcore
| 12> 4000
| 13> *xyz -1 1
| 14> C   -2.66334340  -0.38774361   0.75647143
| 15> C   -2.03127061   0.87936690   1.27024832
| 16> C   -3.94850380  -0.58490197   1.29314932
| 17> C   -4.70887493   0.38688599   1.89472309
| 18> C   -4.10549998   1.55630745   2.33093782
| 19> C   -2.76867670   1.73263386   2.13112305
| 20> H   -2.44950663  -1.18038801  -0.31006317
| 21> H   -4.40980656  -1.53235953   1.05466052
| 22> H   -2.27866685   2.61431931   2.54469730
| 23> H   -5.76211059   0.21740594   2.07182819
| 24> H   -4.68587792   2.30322981   2.84597293
| 25> C   -0.71392739   1.33978617   0.75773861
| 26> C    0.45165499   0.54871351   1.38187669
| 27> H   -0.54396488   2.40484173   0.94291746
| 28> H   -0.72988676   1.27064315  -0.31887958
| 29> C    1.70988492   0.60485796   0.57439374
| 30> H    0.14961206  -0.48774500   1.52553453
| 31> H    0.62730871   0.94015514   2.38899408
| 32> C    1.86092797  -0.15000456  -0.60063816
| 33> C    3.01177643   0.02526728  -1.36769710
| 34> C    3.94607610   1.00135428  -1.03365801
| 35> C    2.73116673   1.45408634   0.96463653
| 36> C    3.81460231   1.71393382   0.13790420
| 37> H    3.16871308  -0.57135742  -2.25272646
| 38> H    4.79096775   1.17964692  -1.69203856
| 39> H    2.64950599   1.96347871   1.91821196
| 40> H    4.49448391   2.52180363   0.37551595
| 41> Pd   0.49561321  -1.55162224  -1.19563782
| 42> Br  -1.17216926  -3.56980035  -1.57683174
| 43> P    1.20501259  -2.95680827   0.37626905
| 44> H    0.29840643  -3.35382701   1.35870770
| 45> C    0.65577852  -0.90749842  -3.97761567
| 46> O    1.69367826  -1.63250102  -4.13760145
| 47> O   -0.14285352  -0.91096604  -3.04018423
| 48> O    0.36889608   0.00671604  -4.93662149
| 49> H    2.30586505  -2.66832828   1.17896144
| 50> H    1.62817338  -4.21407380  -0.07783275
| 51> H    1.05794899  -0.00274185  -5.55733918
| 52> *
| 53>
| 54>                          ****END OF INPUT****

CARTESIAN COORDINATES (ANGSTROEM)
---------------------------------
  C     -2.663343   -0.387744    0.756471
  C     -2.031271    0.879367    1.270248
  C     -3.948504   -0.584902    1.293149
  C     -4.708875    0.386886    1.894723
  C     -4.105500    1.556307    2.330938
  C     -2.768677    1.732634    2.131123
  H     -2.449507   -1.180388   -0.310063
  H     -4.409807   -1.532360    1.054661
  H     -2.278667    2.614319    2.544697
  H     -5.762111    0.217406    2.071828
  H     -4.685878    2.303230    2.845973
  C     -0.713927    1.339786    0.757739
  C      0.451655    0.548714    1.381877
  H     -0.543965    2.404842    0.942917
  H     -0.729887    1.270643   -0.318880
  C      1.709885    0.604858    0.574394
  H      0.149612   -0.487745    1.525535
  H      0.627309    0.940155    2.388994
  C      1.860928   -0.150005   -0.600638
  C      3.011776    0.025267   -1.367697
  C      3.946076    1.001354   -1.033658
  C      2.731167    1.454086    0.964637
  C      3.814602    1.713934    0.137904
  H      3.168713   -0.571357   -2.252726
  H      4.790968    1.179647   -1.692039
  H      2.649506    1.963479    1.918212
  H      4.494484    2.521804    0.375516
  Pd     0.495613   -1.551622   -1.195638
  Br    -1.172169   -3.569800   -1.576832
  P      1.205013   -2.956808    0.376269
  H      0.298406   -3.353827    1.358708
  C      0.655779   -0.907498   -3.977616
  O      1.693678   -1.632501   -4.137601
  O     -0.142854   -0.910966   -3.040184
  O      0.368896    0.006716   -4.936621
  H      2.305865   -2.668328    1.178961
  H      1.628173   -4.214074   -0.077833
  H      1.057949   -0.002742   -5.557339

 Total Charge           Charge          ....   -1
 Multiplicity           Mult            ....    1
 Number of Electrons    NEL             ....  200
 Basis Dimension        Dim             ....  385

ORBITAL ENERGIES
----------------

  NO   OCC          E(Eh)            E(eV)
   0   2.0000    -484.321167    -13179.0490
   1   2.0000     -77.675200     -2113.6496
   2   2.0000     -62.982774     -1713.8484
   3   2.0000     -56.686412     -1542.5157
   4   2.0000     -56.685429     -1542.4889
   5   2.0000     -56.685389     -1542.4878
   6   2.0000     -19.373585      -527.1820
   7   2.0000     -19.329514      -525.9828
   8   2.0000     -19.287413      -524.8372
   9   2.0000     -10.440025      -284.0875
  10   2.0000     -10.379731      -282.4468
  11   2.0000     -10.377072      -282.3745
  12   2.0000     -10.357958      -281.8544
  13   2.0000     -10.357213      -281.8341
  14   2.0000     -10.354539      -281.7613
  15   2.0000     -10.352447      -281.7044
  16   2.0000     -10.339263      -281.3457
  17   2.0000     -10.338856      -281.3346
  18   2.0000     -10.338603      -281.3277
  19   2.0000     -10.336568      -281.2723
  20   2.0000     -10.335487      -281.2429
  21   2.0000     -10.334544      -281.2172
  22   2.0000     -10.333546      -281.1901
  23   2.0000     -10.321629      -280.8658
  24   2.0000      -8.810030      -239.7331
  25   2.0000      -6.750455      -183.6892
  26   2.0000      -6.579383      -179.0341
  27   2.0000      -6.574884      -178.9117
  28   2.0000      -6.574457      -178.9001
  29   2.0000      -4.841544      -131.7451
  30   2.0000      -4.841342      -131.7396
  31   2.0000      -4.839691      -131.6947
  32   2.0000      -3.522844       -95.8615
  33   2.0000      -2.593452       -70.5714
  34   2.0000      -2.592329       -70.5409
  35   2.0000      -2.591915       -70.5296
  36   2.0000      -2.588048       -70.4244
  37   2.0000      -2.588031       -70.4239
  38   2.0000      -2.169030       -59.0223
  39   2.0000      -2.165382       -58.9230
  40   2.0000      -2.136745       -58.1438
  41   2.0000      -1.075694       -29.2711
  42   2.0000      -0.973749       -26.4971
  43   2.0000      -0.903950       -24.5977
  44   2.0000      -0.861844       -23.4520
  45   2.0000      -0.845735       -23.0136
  46   2.0000      -0.792233       -21.5578
  47   2.0000      -0.747864       -20.3504
  48   2.0000      -0.739575       -20.1249
  49   2.0000      -0.715421       -19.4676
  50   2.0000      -0.688084       -18.7237
  51   2.0000      -0.655489       -17.8368
  52   2.0000      -0.628749       -17.1091
  53   2.0000      -0.622520       -16.9396
  54   2.0000      -0.576980       -15.7004
  55   2.0000      -0.562340       -15.3020
  56   2.0000      -0.557865       -15.1803
  57   2.0000      -0.544304       -14.8113
  58   2.0000      -0.536795       -14.6069
  59   2.0000      -0.482995       -13.1430
  60   2.0000      -0.461165       -12.5489
  61   2.0000      -0.439517       -11.9599
  62   2.0000      -0.421501       -11.4696
  63   2.0000      -0.411515       -11.1979
  64   2.0000      -0.410018       -11.1572
  65   2.0000      -0.398718       -10.8497
  66   2.0000      -0.385987       -10.5033
  67   2.0000      -0.383444       -10.4340
  68   2.0000      -0.377856       -10.2820
  69   2.0000      -0.376939       -10.2570
  70   2.0000      -0.372311       -10.1311
  71   2.0000      -0.367876       -10.0104
  72   2.0000      -0.365971        -9.9586
  73   2.0000      -0.355064        -9.6618
  74   2.0000      -0.347797        -9.4640
  75   2.0000      -0.330144        -8.9837
  76   2.0000      -0.327174        -8.9029
  77   2.0000      -0.323240        -8.7958
  78   2.0000      -0.311744        -8.4830
  79   2.0000      -0.302340        -8.2271
  80   2.0000      -0.297170        -8.0864
  81   2.0000      -0.292751        -7.9662
  82   2.0000      -0.279183        -7.5970
  83   2.0000      -0.273624        -7.4457
  84   2.0000      -0.259145        -7.0517
  85   2.0000      -0.255970        -6.9653
  86   2.0000      -0.243916        -6.6373
  87   2.0000      -0.225422        -6.1341
  88   2.0000      -0.214039        -5.8243
  89   2.0000      -0.200470        -5.4551
  90   2.0000      -0.187463        -5.1011
  91   2.0000      -0.183940        -5.0053
  92   2.0000      -0.181206        -4.9309
  93   2.0000      -0.173512        -4.7215
  94   2.0000      -0.166163        -4.5215
  95   2.0000      -0.160609        -4.3704
  96   2.0000      -0.151796        -4.1306
  97   2.0000      -0.147308        -4.0085
  98   2.0000      -0.145186        -3.9507
  99   2.0000      -0.139103        -3.7852
 100   0.0000       0.089298         2.4299
 101   0.0000       0.096894         2.6366
 102   0.0000       0.110863         3.0167
 103   0.0000       0.130917         3.5624
 104   0.0000       0.135636         3.6908

MULLIKEN ATOMIC CHARGES
-----------------------
   0 C :   -0.252008
   1 C :    0.033512
   2 C :   -0.218674
   3 C :   -0.212595
   4 C :   -0.216938
   5 C :   -0.243905
   6 H :    0.292321
   7 H :    0.216102
   8 H :    0.195750
   9 H :    0.197914
  10 H :    0.195655
  11 C :   -0.494274
  12 C :   -0.504917
  13 H :    0.214108
  14 H :    0.303414
  15 C :    0.123332
  16 H :    0.250050
  17 H :    0.206875
  18 C :   -0.154663
  19 C :   -0.263165
  20 C :   -0.235206
  21 C :   -0.289816
  22 C :   -0.222032
  23 H :    0.267852
  24 H :    0.185369
  25 H :    0.174074
  26 H :    0.180284
  27 Pd:    0.145681
  28 Br:   -0.495994
  29 P :   -0.122278
  30 H :    0.125342
  31 C :    0.699040
  32 O :   -0.585436
  33 O :   -0.513776
  34 O :   -0.615915
  35 H :    0.088762
  36 H :    0.132409
  37 H :    0.413743
Sum of atomic charges:   -1.0000000

LOEWDIN ATOMIC CHARGES
----------------------
   0 C :   -0.127442
   1 C :   -0.026779
   2 C :   -0.142198
   3 C :   -0.161994
   4 C :   -0.147260
   5 C :   -0.153200
   6 H :    0.218168
   7 H :    0.130104
   8 H :    0.127330
   9 H :    0.126470
  10 H :    0.124322
  11 C :   -0.216440
  12 C :   -0.206175
  13 H :    0.124230
  14 H :    0.168990
  15 C :   -0.052978
  16 H :    0.143447
  17 H :    0.119393
  18 C :   -0.025403
  19 C :   -0.123314
  20 C :   -0.148939
  21 C :   -0.148253
  22 C :   -0.166637
  23 H :    0.164626
  24 H :    0.121778
  25 H :    0.118091
  26 H :    0.119379
  27 Pd:   -0.793543
  28 Br:   -0.292127
  29 P :    0.423139
  30 H :    0.056893
  31 C :    0.140233
  32 O :   -0.396413
  33 O :   -0.172344
  34 O :   -0.328640
  35 H :    0.030932
  36 H :    0.063853
  37 H :    0.308702

  Mayer bond orders larger than 0.100000
B(  0-C ,  1-C ) :   1.3580 B(  0-C ,  2-C ) :   1.4050 B(  0-C ,  4-C ) :   0.1002
B(  0-C ,  6-H ) :   0.8494 B(  1-C ,  5-C ) :   1.4166 B(  1-C , 11-C ) :   0.9622
B(  2-C ,  3-C ) :   1.4225 B(  2-C ,  7-H ) :   0.9192 B(  3-C ,  4-C ) :   1.4244
B(  3-C ,  9-H ) :   0.9250 B(  4-C ,  5-C ) :   1.4344 B(  4-C , 10-H ) :   0.9241
B(  5-C ,  8-H ) :   0.9242 B( 11-C , 12-C ) :   0.9294 B( 11-C , 13-H ) :   0.9255
B( 11-C , 14-H ) :   0.8785 B( 12-C , 15-C ) :   0.9659 B( 12-C , 16-H ) :   0.8936
B( 12-C , 17-H ) :   0.9271 B( 15-C , 18-C ) :   1.3433 B( 15-C , 21-C ) :   1.4228
B( 18-C , 19-C ) :   1.4286 B( 18-C , 27-Pd) :   0.7788 B( 18-C , 28-Br) :   0.1148
B( 19-C , 20-C ) :   1.3925 B( 19-C , 23-H ) :   0.8771 B( 20-C , 22-C ) :   1.4394
B( 20-C , 24-H ) :   0.9279 B( 21-C , 22-C ) :   1.4137 B( 21-C , 25-H ) :   0.9272
B( 22-C , 26-H ) :   0.9299 B( 27-Pd, 28-Br) :   0.5341 B( 27-Pd, 29-P ) :   0.7548
B( 27-Pd, 33-O ) :   0.4711 B( 28-Br, 29-P ) :   0.1115 B( 29-P , 30-H ) :   0.9270
B( 29-P , 35-H ) :   0.9070 B( 29-P , 36-H ) :   0.9327 B( 31-C , 32-O ) :   1.7271
B( 31-C , 33-O ) :   1.4352 B( 31-C , 34-O ) :   1.0707 B( 34-O , 37-H ) :   0.7833

Dispersion correction           -0.030534179
FINAL SINGLE POINT ENERGY     -3847.701735778191
Dispersion correction            ... done

DIPOLE MOMENT
-------------
                                X             Y             Z
Electronic contribution:     23.89932     -77.61173     -52.30815
Nuclear contribution   :    -23.54149      78.49719      55.31057
                        -----------------------------------------
Total Dipole Moment    :      0.35783       0.88546       3.00242
                        -----------------------------------------
Magnitude (a.u.)       :      3.15065
Magnitude (Debye)      :      8.00832

Rotational constants in cm-1:     0.007085     0.005573     0.004068
Rotational constants in MHz :   212.411896   167.088435   121.946650

                             ****ORCA TERMINATED NORMALLY****
TOTAL RUN TIME: 0 days 0 hours 23 minutes 57 seconds 686 msec
