                         Program Version 5.0.3 -  RELEASE  -
|  1> ! EnGrad PBEh-3c
|  2> %output
|  3> xyzfile=True
|  4> end
|  5> %scf
|  6> maxiter 250
|  7> end
|  8> %output
|  9> Print[P_Hirshfeld] = 1
| 10> end
| 11> % maxcore
| 12> 4000
| 13> *xyz -1 1
| 14> C   -2.64534643  -0.44488439   0.57009932
| 15> C   -2.00576682   0.83672366   1.29108088
| 16> C   -3.92467158  -0.57093560   1.18040034
| 17> C   -4.69911471   0.39206456   1.81659242
| 18> C   -4.14458806   1.55227901   2.28265394
| 19> C   -2.80393906   1.74825182   2.08913722
| 20> H   -2.46610570  -0.98385585  -0.26693577
| 21> H   -4.34453798  -1.53480955   1.00933461
| 22> H   -2.32413833   2.61514408   2.55764414
| 23> H   -5.77192843   0.23911945   1.88034794
| 24> H   -4.74230278   2.31803563   2.73262734
| 25> C   -0.67050999   1.36593178   0.85610795
| 26> C    0.49946524   0.53386669   1.44395208
| 27> H   -0.51587301   2.41058080   1.14004455
| 28> H   -0.67282208   1.36473566  -0.22089949
| 29> C    1.74853634   0.57200934   0.64104111
| 30> H    0.16070871  -0.49013387   1.56305013
| 31> H    0.69051571   0.90556868   2.45285188
| 32> C    1.83633970  -0.12027412  -0.59211503
| 33> C    2.98278343   0.04490794  -1.36783736
| 34> C    3.91815655   1.02674197  -1.04897583
| 35> C    2.73590397   1.48977881   0.96124934
| 36> C    3.83298497   1.70850884   0.14445466
| 37> H    3.11403124  -0.54692648  -2.26335312
| 38> H    4.74073929   1.21413425  -1.72882508
| 39> H    2.72020621   1.91871390   1.96073187
| 40> H    4.50663081   2.52133847   0.37129124
| 41> Pd   0.40072017  -1.57651386  -1.23955287
| 42> Br  -1.21101301  -3.60376412  -1.42902849
| 43> P    1.25040616  -2.96174974   0.35737372
| 44> H    0.39311234  -3.39094236   1.36517957
| 45> C    0.59332605  -1.00310033  -3.98347389
| 46> O    1.66865686  -1.60817496  -4.14150148
| 47> O   -0.18307018  -1.11067816  -2.97551608
| 48> O    0.29321112   0.00959820  -4.86019530
| 49> H    2.38780637  -2.69067409   1.10433823
| 50> H    1.64382541  -4.20645143  -0.16896088
| 51> H    1.00898304   0.06380214  -5.48450494
| 52> *
| 53>
| 54>                          ****END OF INPUT****

CARTESIAN COORDINATES (ANGSTROEM)
---------------------------------
  C     -2.645346   -0.444884    0.570099
  C     -2.005767    0.836724    1.291081
  C     -3.924672   -0.570936    1.180400
  C     -4.699115    0.392065    1.816592
  C     -4.144588    1.552279    2.282654
  C     -2.803939    1.748252    2.089137
  H     -2.466106   -0.983856   -0.266936
  H     -4.344538   -1.534810    1.009335
  H     -2.324138    2.615144    2.557644
  H     -5.771928    0.239119    1.880348
  H     -4.742303    2.318036    2.732627
  C     -0.670510    1.365932    0.856108
  C      0.499465    0.533867    1.443952
  H     -0.515873    2.410581    1.140045
  H     -0.672822    1.364736   -0.220899
  C      1.748536    0.572009    0.641041
  H      0.160709   -0.490134    1.563050
  H      0.690516    0.905569    2.452852
  C      1.836340   -0.120274   -0.592115
  C      2.982783    0.044908   -1.367837
  C      3.918157    1.026742   -1.048976
  C      2.735904    1.489779    0.961249
  C      3.832985    1.708509    0.144455
  H      3.114031   -0.546926   -2.263353
  H      4.740739    1.214134   -1.728825
  H      2.720206    1.918714    1.960732
  H      4.506631    2.521338    0.371291
  Pd     0.400720   -1.576514   -1.239553
  Br    -1.211013   -3.603764   -1.429028
  P      1.250406   -2.961750    0.357374
  H      0.393112   -3.390942    1.365180
  C      0.593326   -1.003100   -3.983474
  O      1.668657   -1.608175   -4.141501
  O     -0.183070   -1.110678   -2.975516
  O      0.293211    0.009598   -4.860195
  H      2.387806   -2.690674    1.104338
  H      1.643825   -4.206451   -0.168961
  H      1.008983    0.063802   -5.484505

 Total Charge           Charge          ....   -1
 Multiplicity           Mult            ....    1
 Number of Electrons    NEL             ....  200
 Basis Dimension        Dim             ....  385

ORBITAL ENERGIES
----------------

  NO   OCC          E(Eh)            E(eV)
   0   2.0000    -484.320162    -13179.0216
   1   2.0000     -77.668123     -2113.4571
   2   2.0000     -62.981957     -1713.8262
   3   2.0000     -56.685613     -1542.4939
   4   2.0000     -56.684636     -1542.4674
   5   2.0000     -56.684528     -1542.4644
   6   2.0000     -19.386674      -527.5382
   7   2.0000     -19.335407      -526.1432
   8   2.0000     -19.305521      -525.3299
   9   2.0000     -10.454776      -284.4889
  10   2.0000     -10.386816      -282.6396
  11   2.0000     -10.367088      -282.1028
  12   2.0000     -10.359378      -281.8930
  13   2.0000     -10.354396      -281.7574
  14   2.0000     -10.353381      -281.7298
  15   2.0000     -10.352768      -281.7131
  16   2.0000     -10.336629      -281.2740
  17   2.0000     -10.335699      -281.2487
  18   2.0000     -10.333453      -281.1876
  19   2.0000     -10.333322      -281.1840
  20   2.0000     -10.332109      -281.1510
  21   2.0000     -10.331628      -281.1379
  22   2.0000     -10.331031      -281.1216
  23   2.0000     -10.318943      -280.7927
  24   2.0000      -8.809337      -239.7143
  25   2.0000      -6.743442      -183.4984
  26   2.0000      -6.578805      -179.0184
  27   2.0000      -6.574080      -178.8898
  28   2.0000      -6.573791      -178.8820
  29   2.0000      -4.834555      -131.5549
  30   2.0000      -4.834314      -131.5484
  31   2.0000      -4.832521      -131.4996
  32   2.0000      -3.516134       -95.6789
  33   2.0000      -2.592827       -70.5544
  34   2.0000      -2.591641       -70.5221
  35   2.0000      -2.591349       -70.5142
  36   2.0000      -2.587294       -70.4039
  37   2.0000      -2.587266       -70.4031
  38   2.0000      -2.164736       -58.9054
  39   2.0000      -2.156570       -58.6832
  40   2.0000      -2.129822       -57.9554
  41   2.0000      -1.075590       -29.2683
  42   2.0000      -0.973715       -26.4961
  43   2.0000      -0.926277       -25.2053
  44   2.0000      -0.852930       -23.2094
  45   2.0000      -0.841336       -22.8939
  46   2.0000      -0.786322       -21.3969
  47   2.0000      -0.745154       -20.2767
  48   2.0000      -0.738148       -20.0860
  49   2.0000      -0.711299       -19.3554
  50   2.0000      -0.682308       -18.5665
  51   2.0000      -0.651552       -17.7296
  52   2.0000      -0.627489       -17.0748
  53   2.0000      -0.622252       -16.9323
  54   2.0000      -0.582376       -15.8473
  55   2.0000      -0.556820       -15.1518
  56   2.0000      -0.550981       -14.9929
  57   2.0000      -0.549243       -14.9457
  58   2.0000      -0.533210       -14.5094
  59   2.0000      -0.485099       -13.2002
  60   2.0000      -0.457939       -12.4612
  61   2.0000      -0.446706       -12.1555
  62   2.0000      -0.431616       -11.7449
  63   2.0000      -0.429570       -11.6892
  64   2.0000      -0.404597       -11.0097
  65   2.0000      -0.398941       -10.8557
  66   2.0000      -0.395538       -10.7631
  67   2.0000      -0.390257       -10.6194
  68   2.0000      -0.378344       -10.2953
  69   2.0000      -0.370855       -10.0915
  70   2.0000      -0.368747       -10.0341
  71   2.0000      -0.368171       -10.0184
  72   2.0000      -0.360628        -9.8132
  73   2.0000      -0.356754        -9.7078
  74   2.0000      -0.344140        -9.3645
  75   2.0000      -0.336518        -9.1571
  76   2.0000      -0.333178        -9.0662
  77   2.0000      -0.320257        -8.7146
  78   2.0000      -0.310798        -8.4572
  79   2.0000      -0.302152        -8.2220
  80   2.0000      -0.297834        -8.1045
  81   2.0000      -0.287099        -7.8124
  82   2.0000      -0.269731        -7.3398
  83   2.0000      -0.267776        -7.2866
  84   2.0000      -0.263464        -7.1692
  85   2.0000      -0.259948        -7.0735
  86   2.0000      -0.243300        -6.6205
  87   2.0000      -0.223577        -6.0838
  88   2.0000      -0.210288        -5.7222
  89   2.0000      -0.194615        -5.2958
  90   2.0000      -0.191989        -5.2243
  91   2.0000      -0.184591        -5.0230
  92   2.0000      -0.175855        -4.7852
  93   2.0000      -0.170148        -4.6300
  94   2.0000      -0.162325        -4.4171
  95   2.0000      -0.160528        -4.3682
  96   2.0000      -0.153414        -4.1746
  97   2.0000      -0.145344        -3.9550
  98   2.0000      -0.143004        -3.8913
  99   2.0000      -0.129418        -3.5216
 100   0.0000       0.086322         2.3490
 101   0.0000       0.094672         2.5762
 102   0.0000       0.109915         2.9909
 103   0.0000       0.132190         3.5971
 104   0.0000       0.137191         3.7332

MULLIKEN ATOMIC CHARGES
-----------------------
   0 C :   -0.217949
   1 C :    0.005382
   2 C :   -0.255642
   3 C :   -0.208938
   4 C :   -0.205630
   5 C :   -0.247648
   6 H :    0.310053
   7 H :    0.215867
   8 H :    0.198595
   9 H :    0.198933
  10 H :    0.196713
  11 C :   -0.485011
  12 C :   -0.503444
  13 H :    0.210933
  14 H :    0.295211
  15 C :    0.076160
  16 H :    0.251835
  17 H :    0.200817
  18 C :   -0.132446
  19 C :   -0.272706
  20 C :   -0.229700
  21 C :   -0.263260
  22 C :   -0.231077
  23 H :    0.264666
  24 H :    0.183941
  25 H :    0.170655
  26 H :    0.177880
  27 Pd:    0.176381
  28 Br:   -0.491289
  29 P :   -0.134539
  30 H :    0.122203
  31 C :    0.717003
  32 O :   -0.537148
  33 O :   -0.573817
  34 O :   -0.619979
  35 H :    0.088577
  36 H :    0.131567
  37 H :    0.416854
Sum of atomic charges:   -1.0000000

LOEWDIN ATOMIC CHARGES
----------------------
   0 C :   -0.105333
   1 C :   -0.008378
   2 C :   -0.131356
   3 C :   -0.165142
   4 C :   -0.149829
   5 C :   -0.161016
   6 H :    0.182909
   7 H :    0.128805
   8 H :    0.128095
   9 H :    0.128136
  10 H :    0.124929
  11 C :   -0.219742
  12 C :   -0.211366
  13 H :    0.122336
  14 H :    0.165925
  15 C :   -0.061925
  16 H :    0.142172
  17 H :    0.118199
  18 C :   -0.033803
  19 C :   -0.130948
  20 C :   -0.149100
  21 C :   -0.148937
  22 C :   -0.170469
  23 H :    0.160357
  24 H :    0.120196
  25 H :    0.117125
  26 H :    0.118915
  27 Pd:   -0.805441
  28 Br:   -0.272985
  29 P :    0.401621
  30 H :    0.053629
  31 C :    0.170076
  32 O :   -0.343345
  33 O :   -0.187812
  34 O :   -0.336280
  35 H :    0.030530
  36 H :    0.063836
  37 H :    0.315418

  Mayer bond orders larger than 0.100000
B(  0-C ,  1-C ) :   1.3119 B(  0-C ,  2-C ) :   1.4745 B(  0-C ,  4-C ) :   0.1036
B(  0-C ,  6-H ) :   0.8672 B(  1-C ,  5-C ) :   1.4421 B(  1-C , 11-C ) :   0.9551
B(  2-C ,  3-C ) :   1.3802 B(  2-C ,  7-H ) :   0.9186 B(  3-C ,  4-C ) :   1.4600
B(  3-C ,  9-H ) :   0.9260 B(  4-C ,  5-C ) :   1.4000 B(  4-C , 10-H ) :   0.9222
B(  5-C ,  8-H ) :   0.9225 B( 11-C , 12-C ) :   0.9240 B( 11-C , 13-H ) :   0.9260
B( 11-C , 14-H ) :   0.8825 B( 12-C , 15-C ) :   0.9836 B( 12-C , 16-H ) :   0.8931
B( 12-C , 17-H ) :   0.9266 B( 15-C , 18-C ) :   1.3362 B( 15-C , 21-C ) :   1.4207
B( 18-C , 19-C ) :   1.4312 B( 18-C , 27-Pd) :   0.7388 B( 18-C , 28-Br) :   0.1092
B( 19-C , 20-C ) :   1.3921 B( 19-C , 23-H ) :   0.8808 B( 20-C , 22-C ) :   1.4423
B( 20-C , 24-H ) :   0.9277 B( 21-C , 22-C ) :   1.4102 B( 21-C , 25-H ) :   0.9259
B( 22-C , 26-H ) :   0.9298 B( 27-Pd, 28-Br) :   0.5661 B( 27-Pd, 29-P ) :   0.6816
B( 27-Pd, 33-O ) :   0.5003 B( 28-Br, 29-P ) :   0.1058 B( 29-P , 30-H ) :   0.9275
B( 29-P , 35-H ) :   0.9080 B( 29-P , 36-H ) :   0.9348 B( 31-C , 32-O ) :   1.7949
B( 31-C , 33-O ) :   1.3457 B( 31-C , 34-O ) :   1.0623 B( 34-O , 37-H ) :   0.7798

Dispersion correction           -0.030432187
FINAL SINGLE POINT ENERGY     -3847.669333763512
Dispersion correction            ... done

DIPOLE MOMENT
-------------
                                X             Y             Z
Electronic contribution:     18.88794     -78.74269     -55.17708
Nuclear contribution   :    -18.50938      79.60116      57.66688
                        -----------------------------------------
Total Dipole Moment    :      0.37856       0.85846       2.48981
                        -----------------------------------------
Magnitude (a.u.)       :      2.66071
Magnitude (Debye)      :      6.76300

Rotational constants in cm-1:     0.007008     0.005664     0.004098
Rotational constants in MHz :   210.100784   169.808507   122.852649

                             ****ORCA TERMINATED NORMALLY****
TOTAL RUN TIME: 0 days 0 hours 22 minutes 13 seconds 7 msec
