                         Program Version 5.0.3 -  RELEASE  -
|  1> ! EnGrad PBEh-3c
|  2> %output
|  3> xyzfile=True
|  4> end
|  5> %scf
|  6> maxiter 250
|  7> end
|  8> %output
|  9> Print[P_Hirshfeld] = 1
| 10> end
| 11> % maxcore
| 12> 4000
| 13> *xyz -1 1
| 14> C   -2.65776251  -0.40546304   0.69867718
| 15> C   -2.02336185   0.86614318   1.27670853
| 16> C   -3.94111340  -0.58057098   1.25818571
| 17> C   -4.70584827   0.38849187   1.87049466
| 18> C   -4.11762125   1.55505823   2.31596492
| 19> C   -2.77961160   1.73747701   2.11810319
| 20> H   -2.45465402  -1.11944312  -0.29668931
| 21> H   -4.38956669  -1.53311928   1.04060489
| 22> H   -2.29276762   2.61457507   2.54871213
| 23> H   -5.76515511   0.22413933   2.01244990
| 24> H   -4.70337534   2.30782111   2.81082431
| 25> C   -0.70046359   1.34789396   0.78824307
| 26> C    0.46648101   0.54410949   1.40112635
| 27> H   -0.53525355   2.40662142   1.00404684
| 28> H   -0.71219093   1.29982137  -0.28849582
| 29> C    1.72187077   0.59467156   0.59506118
| 30> H    0.15305315  -0.48848580   1.53716817
| 31> H    0.64690929   0.92942983   2.40879647
| 32> C    1.85330312  -0.14078511  -0.59799512
| 33> C    3.00278566   0.03135788  -1.36774060
| 34> C    3.93741821   1.00922704  -1.03840809
| 35> C    2.73263575   1.46515462   0.96358616
| 36> C    3.82030280   1.71225152   0.13993550
| 37> H    3.15175617  -0.56378135  -2.25602180
| 38> H    4.77539184   1.19034149  -1.70344611
| 39> H    2.67143023   1.94959708   1.93139745
| 40> H    4.49825068   2.52165938   0.37420586
| 41> Pd   0.46618675  -1.55934116  -1.20925593
| 42> Br  -1.18421476  -3.58033256  -1.53099775
| 43> P    1.21908920  -2.95834063   0.37040958
| 44> H    0.32777486  -3.36533653   1.36071463
| 45> C    0.63641192  -0.93714470  -3.97943231
| 46> O    1.68591909  -1.62495748  -4.13881086
| 47> O   -0.15532476  -0.97289704  -3.02013055
| 48> O    0.34542607   0.00760980  -4.91292162
| 49> H    2.33127516  -2.67525775   1.15582068
| 50> H    1.63302709  -4.21171009  -0.10609171
| 51> H    1.04276458   0.01789353  -5.53475318
| 52> *
| 53>
| 54>                          ****END OF INPUT****

CARTESIAN COORDINATES (ANGSTROEM)
---------------------------------
  C     -2.657763   -0.405463    0.698677
  C     -2.023362    0.866143    1.276709
  C     -3.941113   -0.580571    1.258186
  C     -4.705848    0.388492    1.870495
  C     -4.117621    1.555058    2.315965
  C     -2.779612    1.737477    2.118103
  H     -2.454654   -1.119443   -0.296689
  H     -4.389567   -1.533119    1.040605
  H     -2.292768    2.614575    2.548712
  H     -5.765155    0.224139    2.012450
  H     -4.703375    2.307821    2.810824
  C     -0.700464    1.347894    0.788243
  C      0.466481    0.544109    1.401126
  H     -0.535254    2.406621    1.004047
  H     -0.712191    1.299821   -0.288496
  C      1.721871    0.594672    0.595061
  H      0.153053   -0.488486    1.537168
  H      0.646909    0.929430    2.408796
  C      1.853303   -0.140785   -0.597995
  C      3.002786    0.031358   -1.367741
  C      3.937418    1.009227   -1.038408
  C      2.732636    1.465155    0.963586
  C      3.820303    1.712252    0.139935
  H      3.151756   -0.563781   -2.256022
  H      4.775392    1.190341   -1.703446
  H      2.671430    1.949597    1.931397
  H      4.498251    2.521659    0.374206
  Pd     0.466187   -1.559341   -1.209256
  Br    -1.184215   -3.580333   -1.530998
  P      1.219089   -2.958341    0.370410
  H      0.327775   -3.365337    1.360715
  C      0.636412   -0.937145   -3.979432
  O      1.685919   -1.624957   -4.138811
  O     -0.155325   -0.972897   -3.020131
  O      0.345426    0.007610   -4.912922
  H      2.331275   -2.675258    1.155821
  H      1.633027   -4.211710   -0.106092
  H      1.042765    0.017894   -5.534753

 Total Charge           Charge          ....   -1
 Multiplicity           Mult            ....    1
 Number of Electrons    NEL             ....  200
 Basis Dimension        Dim             ....  385

ORBITAL ENERGIES
----------------

  NO   OCC          E(Eh)            E(eV)
   0   2.0000    -484.320805    -13179.0391
   1   2.0000     -77.673135     -2113.5935
   2   2.0000     -62.982473     -1713.8402
   3   2.0000     -56.686121     -1542.5078
   4   2.0000     -56.685130     -1542.4808
   5   2.0000     -56.685076     -1542.4793
   6   2.0000     -19.377615      -527.2917
   7   2.0000     -19.330934      -526.0215
   8   2.0000     -19.292366      -524.9720
   9   2.0000     -10.444005      -284.1958
  10   2.0000     -10.379708      -282.4462
  11   2.0000     -10.376339      -282.3546
  12   2.0000     -10.357975      -281.8548
  13   2.0000     -10.356229      -281.8073
  14   2.0000     -10.353859      -281.7428
  15   2.0000     -10.352047      -281.6935
  16   2.0000     -10.337921      -281.3091
  17   2.0000     -10.337777      -281.3052
  18   2.0000     -10.336948      -281.2826
  19   2.0000     -10.335351      -281.2392
  20   2.0000     -10.334314      -281.2110
  21   2.0000     -10.333477      -281.1882
  22   2.0000     -10.332641      -281.1655
  23   2.0000     -10.320667      -280.8396
  24   2.0000      -8.809769      -239.7260
  25   2.0000      -6.748427      -183.6340
  26   2.0000      -6.579173      -179.0284
  27   2.0000      -6.574576      -178.9033
  28   2.0000      -6.574204      -178.8932
  29   2.0000      -4.839519      -131.6900
  30   2.0000      -4.839315      -131.6845
  31   2.0000      -4.837615      -131.6382
  32   2.0000      -3.520395       -95.7948
  33   2.0000      -2.593222       -70.5652
  34   2.0000      -2.592071       -70.5338
  35   2.0000      -2.591704       -70.5238
  36   2.0000      -2.587759       -70.4165
  37   2.0000      -2.587738       -70.4159
  38   2.0000      -2.167049       -58.9684
  39   2.0000      -2.162340       -58.8403
  40   2.0000      -2.134247       -58.0758
  41   2.0000      -1.075598       -29.2685
  42   2.0000      -0.973419       -26.4881
  43   2.0000      -0.911495       -24.8031
  44   2.0000      -0.858773       -23.3684
  45   2.0000      -0.844389       -22.9770
  46   2.0000      -0.790410       -21.5081
  47   2.0000      -0.746123       -20.3031
  48   2.0000      -0.739449       -20.1214
  49   2.0000      -0.714104       -19.4318
  50   2.0000      -0.686094       -18.6696
  51   2.0000      -0.654371       -17.8063
  52   2.0000      -0.628472       -17.1016
  53   2.0000      -0.622052       -16.9269
  54   2.0000      -0.576967       -15.7001
  55   2.0000      -0.560741       -15.2585
  56   2.0000      -0.556113       -15.1326
  57   2.0000      -0.545794       -14.8518
  58   2.0000      -0.535698       -14.5771
  59   2.0000      -0.482886       -13.1400
  60   2.0000      -0.460050       -12.5186
  61   2.0000      -0.438537       -11.9332
  62   2.0000      -0.424196       -11.5430
  63   2.0000      -0.416062       -11.3216
  64   2.0000      -0.409047       -11.1307
  65   2.0000      -0.397927       -10.8281
  66   2.0000      -0.388685       -10.5767
  67   2.0000      -0.385417       -10.4877
  68   2.0000      -0.377413       -10.2699
  69   2.0000      -0.375451       -10.2165
  70   2.0000      -0.371751       -10.1159
  71   2.0000      -0.369015       -10.0414
  72   2.0000      -0.364505        -9.9187
  73   2.0000      -0.355057        -9.6616
  74   2.0000      -0.346822        -9.4375
  75   2.0000      -0.330874        -9.0035
  76   2.0000      -0.329291        -8.9605
  77   2.0000      -0.322530        -8.7765
  78   2.0000      -0.311498        -8.4763
  79   2.0000      -0.302395        -8.2286
  80   2.0000      -0.300716        -8.1829
  81   2.0000      -0.290890        -7.9155
  82   2.0000      -0.276623        -7.5273
  83   2.0000      -0.271759        -7.3949
  84   2.0000      -0.258338        -7.0297
  85   2.0000      -0.256376        -6.9763
  86   2.0000      -0.245955        -6.6928
  87   2.0000      -0.224861        -6.1188
  88   2.0000      -0.212530        -5.7832
  89   2.0000      -0.198422        -5.3993
  90   2.0000      -0.187936        -5.1140
  91   2.0000      -0.182735        -4.9725
  92   2.0000      -0.179446        -4.8830
  93   2.0000      -0.173001        -4.7076
  94   2.0000      -0.166100        -4.5198
  95   2.0000      -0.160882        -4.3778
  96   2.0000      -0.152551        -4.1511
  97   2.0000      -0.146973        -3.9993
  98   2.0000      -0.144668        -3.9366
  99   2.0000      -0.137221        -3.7340
 100   0.0000       0.090155         2.4532
 101   0.0000       0.095612         2.6017
 102   0.0000       0.111215         3.0263
 103   0.0000       0.131820         3.5870
 104   0.0000       0.136319         3.7094

MULLIKEN ATOMIC CHARGES
-----------------------
   0 C :   -0.254993
   1 C :    0.026914
   2 C :   -0.226790
   3 C :   -0.211081
   4 C :   -0.213707
   5 C :   -0.244913
   6 H :    0.306294
   7 H :    0.215760
   8 H :    0.196821
   9 H :    0.198231
  10 H :    0.195952
  11 C :   -0.492504
  12 C :   -0.504586
  13 H :    0.213450
  14 H :    0.300700
  15 C :    0.112429
  16 H :    0.250350
  17 H :    0.205009
  18 C :   -0.148606
  19 C :   -0.265940
  20 C :   -0.234716
  21 C :   -0.283842
  22 C :   -0.223070
  23 H :    0.266989
  24 H :    0.184672
  25 H :    0.173360
  26 H :    0.179128
  27 Pd:    0.151700
  28 Br:   -0.494809
  29 P :   -0.124639
  30 H :    0.124415
  31 C :    0.705279
  32 O :   -0.571018
  33 O :   -0.531297
  34 O :   -0.616904
  35 H :    0.088830
  36 H :    0.132313
  37 H :    0.414818
Sum of atomic charges:   -1.0000000

LOEWDIN ATOMIC CHARGES
----------------------
   0 C :   -0.125247
   1 C :   -0.021044
   2 C :   -0.139384
   3 C :   -0.162885
   4 C :   -0.148005
   5 C :   -0.155791
   6 H :    0.213743
   7 H :    0.129357
   8 H :    0.127589
   9 H :    0.126859
  10 H :    0.124439
  11 C :   -0.217573
  12 C :   -0.207615
  13 H :    0.123667
  14 H :    0.167909
  15 C :   -0.055913
  16 H :    0.142910
  17 H :    0.119005
  18 C :   -0.027785
  19 C :   -0.125594
  20 C :   -0.149058
  21 C :   -0.148493
  22 C :   -0.167781
  23 H :    0.163361
  24 H :    0.121284
  25 H :    0.117868
  26 H :    0.119224
  27 Pd:   -0.799287
  28 Br:   -0.286213
  29 P :    0.417653
  30 H :    0.055905
  31 C :    0.147919
  32 O :   -0.379933
  33 O :   -0.176588
  34 O :   -0.330177
  35 H :    0.030918
  36 H :    0.063912
  37 H :    0.310842

  Mayer bond orders larger than 0.100000
B(  0-C ,  1-C ) :   1.3420 B(  0-C ,  2-C ) :   1.4220 B(  0-C ,  4-C ) :   0.1016
B(  0-C ,  6-H ) :   0.8541 B(  1-C ,  5-C ) :   1.4258 B(  1-C , 11-C ) :   0.9600
B(  2-C ,  3-C ) :   1.4106 B(  2-C ,  7-H ) :   0.9190 B(  3-C ,  4-C ) :   1.4356
B(  3-C ,  9-H ) :   0.9254 B(  4-C ,  5-C ) :   1.4242 B(  4-C , 10-H ) :   0.9235
B(  5-C ,  8-H ) :   0.9238 B( 11-C , 12-C ) :   0.9276 B( 11-C , 13-H ) :   0.9258
B( 11-C , 14-H ) :   0.8801 B( 12-C , 15-C ) :   0.9701 B( 12-C , 16-H ) :   0.8937
B( 12-C , 17-H ) :   0.9271 B( 15-C , 18-C ) :   1.3422 B( 15-C , 21-C ) :   1.4234
B( 18-C , 19-C ) :   1.4300 B( 18-C , 27-Pd) :   0.7659 B( 18-C , 28-Br) :   0.1134
B( 19-C , 20-C ) :   1.3922 B( 19-C , 23-H ) :   0.8782 B( 20-C , 22-C ) :   1.4401
B( 20-C , 24-H ) :   0.9280 B( 21-C , 22-C ) :   1.4128 B( 21-C , 25-H ) :   0.9269
B( 22-C , 26-H ) :   0.9300 B( 27-Pd, 28-Br) :   0.5448 B( 27-Pd, 29-P ) :   0.7349
B( 27-Pd, 33-O ) :   0.4815 B( 28-Br, 29-P ) :   0.1100 B( 29-P , 30-H ) :   0.9272
B( 29-P , 35-H ) :   0.9073 B( 29-P , 36-H ) :   0.9334 B( 31-C , 32-O ) :   1.7488
B( 31-C , 33-O ) :   1.4068 B( 31-C , 34-O ) :   1.0692 B( 34-O , 37-H ) :   0.7821

Dispersion correction           -0.030462863
FINAL SINGLE POINT ENERGY     -3847.707766538388
Dispersion correction            ... done

DIPOLE MOMENT
-------------
                                X             Y             Z
Electronic contribution:     22.34505     -77.96402     -53.19134
Nuclear contribution   :    -21.98103      78.83953      56.04127
                        -----------------------------------------
Total Dipole Moment    :      0.36403       0.87552       2.84992
                        -----------------------------------------
Magnitude (a.u.)       :      3.00352
Magnitude (Debye)      :      7.63433

Rotational constants in cm-1:     0.007063     0.005603     0.004078
Rotational constants in MHz :   211.747867   167.970531   122.246408

                             ****ORCA TERMINATED NORMALLY****
TOTAL RUN TIME: 0 days 0 hours 22 minutes 25 seconds 670 msec
