                         Program Version 5.0.3 -  RELEASE  -
|  1> ! EnGrad PBEh-3c
|  2> %output
|  3> xyzfile=True
|  4> end
|  5> %scf
|  6> maxiter 250
|  7> end
|  8> %output
|  9> Print[P_Hirshfeld] = 1
| 10> end
| 11> % maxcore
| 12> 4000
| 13> *xyz -1 1
| 14> C   -2.63591387  -0.40816785   0.49888920
| 15> C   -2.01030731   0.80285834   1.28004119
| 16> C   -3.89034305  -0.56920222   1.06737355
| 17> C   -4.69199084   0.39099363   1.74660067
| 18> C   -4.17823555   1.55048086   2.23058374
| 19> C   -2.80729021   1.73990030   2.04678448
| 20> H   -2.46686248  -0.85467622  -0.25905505
| 21> H   -4.30084292  -1.54193988   0.96054928
| 22> H   -2.36362253   2.61797750   2.55544242
| 23> H   -5.77639563   0.25145134   1.72234498
| 24> H   -4.79350376   2.33231117   2.63902063
| 25> C   -0.62780976   1.38085277   0.95322806
| 26> C    0.53549014   0.52080122   1.50180108
| 27> H   -0.49444468   2.41238838   1.31540486
| 28> H   -0.61895940   1.44755066  -0.13584361
| 29> C    1.77264165   0.55333741   0.67502863
| 30> H    0.17084894  -0.49652101   1.59740439
| 31> H    0.74646782   0.87346405   2.51039776
| 32> C    1.80762195  -0.11036055  -0.58795960
| 33> C    2.95051141   0.06741881  -1.36759623
| 34> C    3.89735866   1.04174737  -1.06384211
| 35> C    2.75018580   1.50497077   0.97276847
| 36> C    3.83926587   1.71383774   0.14554529
| 37> H    3.06504196  -0.52467732  -2.27303732
| 38> H    4.69822175   1.24226082  -1.75936097
| 39> H    2.77775646   1.88713961   1.99455304
| 40> H    4.51887919   2.52091739   0.36745351
| 41> Pd   0.35072208  -1.60729062  -1.22467237
| 42> Br  -1.24764430  -3.63066108  -1.30530379
| 43> P    1.27734352  -2.96069558   0.32665022
| 44> H    0.47510827  -3.42465669   1.37220478
| 45> C    0.56961336  -1.08479029  -3.97430732
| 46> O    1.63368228  -1.58790663  -4.15177393
| 47> O   -0.23179250  -1.25492247  -2.97145526
| 48> O    0.21475734   0.00228673  -4.78182412
| 49> H    2.46145203  -2.70755160   1.03885767
| 50> H    1.65515826  -4.19818638  -0.24672968
| 51> H    0.96720226   0.11840048  -5.41625530
| 52> *
| 53>
| 54>                          ****END OF INPUT****

CARTESIAN COORDINATES (ANGSTROEM)
---------------------------------
  C     -2.635914   -0.408168    0.498889
  C     -2.010307    0.802858    1.280041
  C     -3.890343   -0.569202    1.067374
  C     -4.691991    0.390994    1.746601
  C     -4.178236    1.550481    2.230584
  C     -2.807290    1.739900    2.046784
  H     -2.466862   -0.854676   -0.259055
  H     -4.300843   -1.541940    0.960549
  H     -2.363623    2.617977    2.555442
  H     -5.776396    0.251451    1.722345
  H     -4.793504    2.332311    2.639021
  C     -0.627810    1.380853    0.953228
  C      0.535490    0.520801    1.501801
  H     -0.494445    2.412388    1.315405
  H     -0.618959    1.447551   -0.135844
  C      1.772642    0.553337    0.675029
  H      0.170849   -0.496521    1.597404
  H      0.746468    0.873464    2.510398
  C      1.807622   -0.110361   -0.587960
  C      2.950511    0.067419   -1.367596
  C      3.897359    1.041747   -1.063842
  C      2.750186    1.504971    0.972768
  C      3.839266    1.713838    0.145545
  H      3.065042   -0.524677   -2.273037
  H      4.698222    1.242261   -1.759361
  H      2.777756    1.887140    1.994553
  H      4.518879    2.520917    0.367454
  Pd     0.350722   -1.607291   -1.224672
  Br    -1.247644   -3.630661   -1.305304
  P      1.277344   -2.960696    0.326650
  H      0.475108   -3.424657    1.372205
  C      0.569613   -1.084790   -3.974307
  O      1.633682   -1.587907   -4.151774
  O     -0.231793   -1.254922   -2.971455
  O      0.214757    0.002287   -4.781824
  H      2.461452   -2.707552    1.038858
  H      1.655158   -4.198186   -0.246730
  H      0.967202    0.118400   -5.416255

 Total Charge           Charge          ....   -1
 Multiplicity           Mult            ....    1
 Number of Electrons    NEL             ....  200
 Basis Dimension        Dim             ....  385

ORBITAL ENERGIES
----------------

  NO   OCC          E(Eh)            E(eV)
   0   2.0000    -484.322077    -13179.0737
   1   2.0000     -77.668910     -2113.4785
   2   2.0000     -62.983948     -1713.8804
   3   2.0000     -56.687622     -1542.5486
   4   2.0000     -56.686629     -1542.5216
   5   2.0000     -56.686489     -1542.5178
   6   2.0000     -19.382060      -527.4127
   7   2.0000     -19.331001      -526.0233
   8   2.0000     -19.319220      -525.7027
   9   2.0000     -10.454009      -284.4680
  10   2.0000     -10.386202      -282.6229
  11   2.0000     -10.360821      -281.9323
  12   2.0000     -10.354731      -281.7665
  13   2.0000     -10.353918      -281.7444
  14   2.0000     -10.353720      -281.7390
  15   2.0000     -10.352286      -281.7000
  16   2.0000     -10.339519      -281.3526
  17   2.0000     -10.337618      -281.3009
  18   2.0000     -10.334245      -281.2091
  19   2.0000     -10.333398      -281.1861
  20   2.0000     -10.332976      -281.1746
  21   2.0000     -10.331806      -281.1427
  22   2.0000     -10.331619      -281.1376
  23   2.0000     -10.320400      -280.8324
  24   2.0000      -8.811379      -239.7698
  25   2.0000      -6.743288      -183.4942
  26   2.0000      -6.580985      -179.0777
  27   2.0000      -6.576070      -178.9440
  28   2.0000      -6.575739      -178.9350
  29   2.0000      -4.834418      -131.5512
  30   2.0000      -4.834188      -131.5450
  31   2.0000      -4.832454      -131.4978
  32   2.0000      -3.517588       -95.7184
  33   2.0000      -2.594987       -70.6132
  34   2.0000      -2.593761       -70.5798
  35   2.0000      -2.593438       -70.5710
  36   2.0000      -2.589212       -70.4560
  37   2.0000      -2.589192       -70.4555
  38   2.0000      -2.166679       -58.9583
  39   2.0000      -2.157473       -58.7078
  40   2.0000      -2.131498       -58.0010
  41   2.0000      -1.075607       -29.2688
  42   2.0000      -0.965923       -26.2841
  43   2.0000      -0.944233       -25.6939
  44   2.0000      -0.852078       -23.1862
  45   2.0000      -0.839079       -22.8325
  46   2.0000      -0.782219       -21.2853
  47   2.0000      -0.752763       -20.4837
  48   2.0000      -0.735349       -20.0099
  49   2.0000      -0.711404       -19.3583
  50   2.0000      -0.680512       -18.5177
  51   2.0000      -0.650656       -17.7052
  52   2.0000      -0.627113       -17.0646
  53   2.0000      -0.620961       -16.8972
  54   2.0000      -0.586412       -15.9571
  55   2.0000      -0.555077       -15.1044
  56   2.0000      -0.552305       -15.0290
  57   2.0000      -0.532564       -14.4918
  58   2.0000      -0.530778       -14.4432
  59   2.0000      -0.487074       -13.2540
  60   2.0000      -0.457789       -12.4571
  61   2.0000      -0.453143       -12.3307
  62   2.0000      -0.429624       -11.6907
  63   2.0000      -0.427134       -11.6229
  64   2.0000      -0.406608       -11.0644
  65   2.0000      -0.399914       -10.8822
  66   2.0000      -0.398587       -10.8461
  67   2.0000      -0.392419       -10.6783
  68   2.0000      -0.380357       -10.3500
  69   2.0000      -0.366998        -9.9865
  70   2.0000      -0.365153        -9.9363
  71   2.0000      -0.363512        -9.8917
  72   2.0000      -0.358854        -9.7649
  73   2.0000      -0.354607        -9.6493
  74   2.0000      -0.343348        -9.3430
  75   2.0000      -0.340030        -9.2527
  76   2.0000      -0.329956        -8.9786
  77   2.0000      -0.323298        -8.7974
  78   2.0000      -0.312014        -8.4903
  79   2.0000      -0.301319        -8.1993
  80   2.0000      -0.295433        -8.0392
  81   2.0000      -0.283914        -7.7257
  82   2.0000      -0.270610        -7.3637
  83   2.0000      -0.270478        -7.3601
  84   2.0000      -0.261584        -7.1181
  85   2.0000      -0.255830        -6.9615
  86   2.0000      -0.243864        -6.6359
  87   2.0000      -0.226573        -6.1654
  88   2.0000      -0.214423        -5.8348
  89   2.0000      -0.200309        -5.4507
  90   2.0000      -0.192937        -5.2501
  91   2.0000      -0.190585        -5.1861
  92   2.0000      -0.175950        -4.7878
  93   2.0000      -0.170588        -4.6419
  94   2.0000      -0.163315        -4.4440
  95   2.0000      -0.161279        -4.3886
  96   2.0000      -0.155988        -4.2446
  97   2.0000      -0.145748        -3.9660
  98   2.0000      -0.143216        -3.8971
  99   2.0000      -0.127876        -3.4797
 100   0.0000       0.089109         2.4248
 101   0.0000       0.091962         2.5024
 102   0.0000       0.106330         2.8934
 103   0.0000       0.129933         3.5357
 104   0.0000       0.135858         3.6969

MULLIKEN ATOMIC CHARGES
-----------------------
   0 C :   -0.169367
   1 C :   -0.002184
   2 C :   -0.267557
   3 C :   -0.219160
   4 C :   -0.203734
   5 C :   -0.249716
   6 H :    0.295486
   7 H :    0.221346
   8 H :    0.196704
   9 H :    0.196072
  10 H :    0.197507
  11 C :   -0.479058
  12 C :   -0.501135
  13 H :    0.208608
  14 H :    0.285463
  15 C :    0.043673
  16 H :    0.253418
  17 H :    0.199323
  18 C :   -0.113016
  19 C :   -0.280247
  20 C :   -0.223022
  21 C :   -0.246910
  22 C :   -0.239241
  23 H :    0.259221
  24 H :    0.185756
  25 H :    0.170830
  26 H :    0.178813
  27 Pd:    0.174590
  28 Br:   -0.479364
  29 P :   -0.137671
  30 H :    0.119304
  31 C :    0.708147
  32 O :   -0.477726
  33 O :   -0.593916
  34 O :   -0.630901
  35 H :    0.084915
  36 H :    0.130804
  37 H :    0.403946
Sum of atomic charges:   -1.0000000

LOEWDIN ATOMIC CHARGES
----------------------
   0 C :   -0.091820
   1 C :   -0.006834
   2 C :   -0.121869
   3 C :   -0.164241
   4 C :   -0.153997
   5 C :   -0.160786
   6 H :    0.159219
   7 H :    0.131723
   8 H :    0.127159
   9 H :    0.127411
  10 H :    0.125141
  11 C :   -0.216597
  12 C :   -0.216832
  13 H :    0.121717
  14 H :    0.162876
  15 C :   -0.060215
  16 H :    0.142406
  17 H :    0.118066
  18 C :   -0.038926
  19 C :   -0.132554
  20 C :   -0.151332
  21 C :   -0.151931
  22 C :   -0.169376
  23 H :    0.157009
  24 H :    0.120723
  25 H :    0.117796
  26 H :    0.118646
  27 Pd:   -0.810062
  28 Br:   -0.257783
  29 P :    0.403440
  30 H :    0.051346
  31 C :    0.154847
  32 O :   -0.274227
  33 O :   -0.205490
  34 O :   -0.360016
  35 H :    0.028579
  36 H :    0.063578
  37 H :    0.313203

  Mayer bond orders larger than 0.100000
B(  0-C ,  1-C ) :   1.2953 B(  0-C ,  2-C ) :   1.5289 B(  0-C ,  6-H ) :   0.8803
B(  1-C ,  5-C ) :   1.4665 B(  1-C , 11-C ) :   0.9486 B(  2-C ,  3-C ) :   1.3391
B(  2-C ,  7-H ) :   0.9162 B(  3-C ,  4-C ) :   1.5018 B(  3-C ,  9-H ) :   0.9267
B(  4-C ,  5-C ) :   1.3616 B(  4-C , 10-H ) :   0.9220 B(  5-C ,  8-H ) :   0.9232
B( 11-C , 12-C ) :   0.9202 B( 11-C , 13-H ) :   0.9276 B( 11-C , 14-H ) :   0.8870
B( 12-C , 15-C ) :   0.9905 B( 12-C , 16-H ) :   0.8940 B( 12-C , 17-H ) :   0.9268
B( 15-C , 18-C ) :   1.3335 B( 15-C , 21-C ) :   1.4103 B( 18-C , 19-C ) :   1.4248
B( 18-C , 27-Pd) :   0.7200 B( 18-C , 28-Br) :   0.1089 B( 19-C , 20-C ) :   1.3968
B( 19-C , 23-H ) :   0.8853 B( 20-C , 22-C ) :   1.4385 B( 20-C , 24-H ) :   0.9273
B( 21-C , 22-C ) :   1.4154 B( 21-C , 25-H ) :   0.9252 B( 22-C , 26-H ) :   0.9290
B( 27-Pd, 28-Br) :   0.5791 B( 27-Pd, 29-P ) :   0.6917 B( 27-Pd, 33-O ) :   0.5178
B( 28-Br, 29-P ) :   0.1092 B( 29-P , 30-H ) :   0.9244 B( 29-P , 35-H ) :   0.9061
B( 29-P , 36-H ) :   0.9323 B( 31-C , 32-O ) :   1.8814 B( 31-C , 33-O ) :   1.3084
B( 31-C , 34-O ) :   1.0285 B( 34-O , 37-H ) :   0.7900

Dispersion correction           -0.030421312
FINAL SINGLE POINT ENERGY     -3847.621360329966
Dispersion correction            ... done

DIPOLE MOMENT
-------------
                                X             Y             Z
Electronic contribution:     16.42231     -80.32220     -54.47766
Nuclear contribution   :    -15.93665      81.09655      56.81456
                        -----------------------------------------
Total Dipole Moment    :      0.48566       0.77435       2.33690
                        -----------------------------------------
Magnitude (a.u.)       :      2.50930
Magnitude (Debye)      :      6.37813

Rotational constants in cm-1:     0.006946     0.005739     0.004126
Rotational constants in MHz :   208.234680   172.057997   123.704726

                             ****ORCA TERMINATED NORMALLY****
TOTAL RUN TIME: 0 days 0 hours 23 minutes 22 seconds 325 msec
