                         Program Version 5.0.3 -  RELEASE  -
|  1> ! EnGrad PBEh-3c
|  2> %output
|  3> xyzfile=True
|  4> end
|  5> %scf
|  6> maxiter 250
|  7> end
|  8> %output
|  9> Print[P_Hirshfeld] = 1
| 10> end
| 11> % maxcore
| 12> 4000
| 13> *xyz -1 1
| 14> C   -2.65060678  -0.40634891   0.63324387
| 15> C   -2.01908631   0.84541652   1.27780002
| 16> C   -3.92448541  -0.57684755   1.19569210
| 17> C   -4.70130977   0.38931123   1.82991768
| 18> C   -4.13747327   1.55355908   2.28800141
| 19> C   -2.78867673   1.73827067   2.09474533
| 20> H   -2.45865246  -1.03272832  -0.28436357
| 21> H   -4.36050843  -1.53600815   1.01438558
| 22> H   -2.31597358   2.61568941   2.55091639
| 23> H   -5.76883654   0.23308439   1.91743655
| 24> H   -4.73289364   2.31584194   2.75455624
| 25> C   -0.67666846   1.35868842   0.84227793
| 26> C    0.48908245   0.53647571   1.43409871
| 27> H   -0.52188808   2.40851018   1.10602088
| 28> H   -0.68165632   1.34820475  -0.23850012
| 29> C    1.73849893   0.58113405   0.62125162
| 30> H    0.15888151  -0.49111744   1.55689636
| 31> H    0.67951608   0.91110027   2.44207229
| 32> C    1.83834191  -0.13082065  -0.59470835
| 33> C    2.98566513   0.04316833  -1.36769332
| 34> C    3.92429815   1.01987789  -1.04673808
| 35> C    2.73838364   1.47819496   0.96659349
| 36> C    3.82651347   1.71277103   0.14177279
| 37> H    3.12335607  -0.55097424  -2.26159462
| 38> H    4.75011757   1.20734578  -1.72175900
| 39> H    2.70625353   1.92914140   1.95208177
| 40> H    4.50500680   2.52141637   0.37199437
| 41> Pd   0.42837048  -1.57504527  -1.21430503
| 42> Br  -1.20498881  -3.59681584  -1.45707987
| 43> P    1.23816829  -2.95911191   0.35607779
| 44> H    0.37602858  -3.38476470   1.36447782
| 45> C    0.61453448  -0.98550067  -3.97775381
| 46> O    1.66881081  -1.61282281  -4.14305644
| 47> O   -0.18036900  -1.06526425  -3.00418872
| 48> O    0.30263026   0.00586642  -4.86998539
| 49> H    2.37390988  -2.68583443   1.11751368
| 50> H    1.64027535  -4.20728089  -0.15215258
| 51> H    1.01801688   0.05081094  -5.49594349
| 52> *
| 53>
| 54>                          ****END OF INPUT****

CARTESIAN COORDINATES (ANGSTROEM)
---------------------------------
  C     -2.650607   -0.406349    0.633244
  C     -2.019086    0.845417    1.277800
  C     -3.924485   -0.576848    1.195692
  C     -4.701310    0.389311    1.829918
  C     -4.137473    1.553559    2.288001
  C     -2.788677    1.738271    2.094745
  H     -2.458652   -1.032728   -0.284364
  H     -4.360508   -1.536008    1.014386
  H     -2.315974    2.615689    2.550916
  H     -5.768837    0.233084    1.917437
  H     -4.732894    2.315842    2.754556
  C     -0.676668    1.358688    0.842278
  C      0.489082    0.536476    1.434099
  H     -0.521888    2.408510    1.106021
  H     -0.681656    1.348205   -0.238500
  C      1.738499    0.581134    0.621252
  H      0.158882   -0.491117    1.556896
  H      0.679516    0.911100    2.442072
  C      1.838342   -0.130821   -0.594708
  C      2.985665    0.043168   -1.367693
  C      3.924298    1.019878   -1.046738
  C      2.738384    1.478195    0.966593
  C      3.826513    1.712771    0.141773
  H      3.123356   -0.550974   -2.261595
  H      4.750118    1.207346   -1.721759
  H      2.706254    1.929141    1.952082
  H      4.505007    2.521416    0.371994
  Pd     0.428370   -1.575045   -1.214305
  Br    -1.204989   -3.596816   -1.457080
  P      1.238168   -2.959112    0.356078
  H      0.376029   -3.384765    1.364478
  C      0.614534   -0.985501   -3.977754
  O      1.668811   -1.612823   -4.143056
  O     -0.180369   -1.065264   -3.004189
  O      0.302630    0.005866   -4.869985
  H      2.373910   -2.685834    1.117514
  H      1.640275   -4.207281   -0.152153
  H      1.018017    0.050811   -5.495943

 Total Charge           Charge          ....   -1
 Multiplicity           Mult            ....    1
 Number of Electrons    NEL             ....  200
 Basis Dimension        Dim             ....  385

ORBITAL ENERGIES
----------------

  NO   OCC          E(Eh)            E(eV)
   0   2.0000    -484.321184    -13179.0494
   1   2.0000     -77.671498     -2113.5489
   2   2.0000     -62.982927     -1713.8526
   3   2.0000     -56.686588     -1542.5205
   4   2.0000     -56.685590     -1542.4933
   5   2.0000     -56.685508     -1542.4911
   6   2.0000     -19.379272      -527.3368
   7   2.0000     -19.329992      -525.9958
   8   2.0000     -19.300360      -525.1895
   9   2.0000     -10.446442      -284.2621
  10   2.0000     -10.381055      -282.4829
  11   2.0000     -10.368713      -282.1470
  12   2.0000     -10.358489      -281.8688
  13   2.0000     -10.355433      -281.7857
  14   2.0000     -10.353510      -281.7333
  15   2.0000     -10.351608      -281.6816
  16   2.0000     -10.337454      -281.2964
  17   2.0000     -10.337354      -281.2937
  18   2.0000     -10.334941      -281.2280
  19   2.0000     -10.334573      -281.2180
  20   2.0000     -10.333602      -281.1916
  21   2.0000     -10.333008      -281.1754
  22   2.0000     -10.332080      -281.1502
  23   2.0000     -10.320292      -280.8294
  24   2.0000      -8.810273      -239.7397
  25   2.0000      -6.746574      -183.5836
  26   2.0000      -6.579763      -179.0445
  27   2.0000      -6.575025      -178.9155
  28   2.0000      -6.574685      -178.9063
  29   2.0000      -4.837668      -131.6396
  30   2.0000      -4.837466      -131.6341
  31   2.0000      -4.835755      -131.5876
  32   2.0000      -3.519147       -95.7609
  33   2.0000      -2.593786       -70.5805
  34   2.0000      -2.592602       -70.5483
  35   2.0000      -2.592268       -70.5392
  36   2.0000      -2.588202       -70.4285
  37   2.0000      -2.588173       -70.4278
  38   2.0000      -2.166534       -58.9544
  39   2.0000      -2.160325       -58.7854
  40   2.0000      -2.133001       -58.0419
  41   2.0000      -1.074194       -29.2303
  42   2.0000      -0.969445       -26.3799
  43   2.0000      -0.926365       -25.2077
  44   2.0000      -0.856384       -23.3034
  45   2.0000      -0.842600       -22.9283
  46   2.0000      -0.787838       -21.4382
  47   2.0000      -0.744964       -20.2715
  48   2.0000      -0.740057       -20.1380
  49   2.0000      -0.713098       -19.4044
  50   2.0000      -0.684463       -18.6252
  51   2.0000      -0.653073       -17.7710
  52   2.0000      -0.628341       -17.0980
  53   2.0000      -0.621149       -16.9023
  54   2.0000      -0.578303       -15.7364
  55   2.0000      -0.558949       -15.2098
  56   2.0000      -0.555201       -15.1078
  57   2.0000      -0.540976       -14.7207
  58   2.0000      -0.534540       -14.5456
  59   2.0000      -0.482342       -13.1252
  60   2.0000      -0.458875       -12.4866
  61   2.0000      -0.439339       -11.9550
  62   2.0000      -0.428339       -11.6557
  63   2.0000      -0.419607       -11.4181
  64   2.0000      -0.407596       -11.0912
  65   2.0000      -0.398215       -10.8360
  66   2.0000      -0.391491       -10.6530
  67   2.0000      -0.389739       -10.6053
  68   2.0000      -0.377077       -10.2608
  69   2.0000      -0.372672       -10.1409
  70   2.0000      -0.369967       -10.0673
  71   2.0000      -0.368803       -10.0356
  72   2.0000      -0.362390        -9.8611
  73   2.0000      -0.355548        -9.6749
  74   2.0000      -0.345729        -9.4078
  75   2.0000      -0.333151        -9.0655
  76   2.0000      -0.330861        -9.0032
  77   2.0000      -0.322696        -8.7810
  78   2.0000      -0.311856        -8.4860
  79   2.0000      -0.302345        -8.2272
  80   2.0000      -0.300531        -8.1779
  81   2.0000      -0.288260        -7.8440
  82   2.0000      -0.275382        -7.4935
  83   2.0000      -0.268768        -7.3135
  84   2.0000      -0.259893        -7.0721
  85   2.0000      -0.257178        -6.9982
  86   2.0000      -0.245930        -6.6921
  87   2.0000      -0.224416        -6.1067
  88   2.0000      -0.212069        -5.7707
  89   2.0000      -0.195937        -5.3317
  90   2.0000      -0.192020        -5.2251
  91   2.0000      -0.184382        -5.0173
  92   2.0000      -0.178822        -4.8660
  93   2.0000      -0.172641        -4.6978
  94   2.0000      -0.165301        -4.4981
  95   2.0000      -0.161286        -4.3888
  96   2.0000      -0.155242        -4.2244
  97   2.0000      -0.146788        -3.9943
  98   2.0000      -0.144501        -3.9321
  99   2.0000      -0.134887        -3.6705
 100   0.0000       0.090531         2.4635
 101   0.0000       0.095235         2.5915
 102   0.0000       0.110282         3.0009
 103   0.0000       0.131956         3.5907
 104   0.0000       0.136559         3.7160

MULLIKEN ATOMIC CHARGES
-----------------------
   0 C :   -0.242644
   1 C :    0.022804
   2 C :   -0.236687
   3 C :   -0.214148
   4 C :   -0.210329
   5 C :   -0.247919
   6 H :    0.311620
   7 H :    0.217674
   8 H :    0.197297
   9 H :    0.198081
  10 H :    0.196407
  11 C :   -0.489863
  12 C :   -0.503969
  13 H :    0.212406
  14 H :    0.295523
  15 C :    0.089584
  16 H :    0.251151
  17 H :    0.202995
  18 C :   -0.135224
  19 C :   -0.271751
  20 C :   -0.230688
  21 C :   -0.271013
  22 C :   -0.228584
  23 H :    0.264683
  24 H :    0.184815
  25 H :    0.172869
  26 H :    0.178489
  27 Pd:    0.157207
  28 Br:   -0.489537
  29 P :   -0.128189
  30 H :    0.122821
  31 C :    0.707275
  32 O :   -0.541496
  33 O :   -0.552255
  34 O :   -0.621262
  35 H :    0.087624
  36 H :    0.132014
  37 H :    0.412222
Sum of atomic charges:   -1.0000000

LOEWDIN ATOMIC CHARGES
----------------------
   0 C :   -0.117458
   1 C :   -0.016780
   2 C :   -0.134639
   3 C :   -0.163196
   4 C :   -0.149897
   5 C :   -0.157352
   6 H :    0.201760
   7 H :    0.129677
   8 H :    0.127495
   9 H :    0.126932
  10 H :    0.124560
  11 C :   -0.217526
  12 C :   -0.210392
  13 H :    0.123025
  14 H :    0.166130
  15 C :   -0.057565
  16 H :    0.142553
  17 H :    0.118637
  18 C :   -0.031603
  19 C :   -0.127875
  20 C :   -0.149887
  21 C :   -0.149625
  22 C :   -0.168310
  23 H :    0.161288
  24 H :    0.121045
  25 H :    0.117929
  26 H :    0.118969
  27 Pd:   -0.804717
  28 Br:   -0.276291
  29 P :    0.413837
  30 H :    0.054368
  31 C :    0.147465
  32 O :   -0.344943
  33 O :   -0.185666
  34 O :   -0.338226
  35 H :    0.030198
  36 H :    0.063825
  37 H :    0.312255

  Mayer bond orders larger than 0.100000
B(  0-C ,  1-C ) :   1.3242 B(  0-C ,  2-C ) :   1.4530 B(  0-C ,  6-H ) :   0.8620
B(  1-C ,  5-C ) :   1.4397 B(  1-C , 11-C ) :   0.9563 B(  2-C ,  3-C ) :   1.3895
B(  2-C ,  7-H ) :   0.9179 B(  3-C ,  4-C ) :   1.4570 B(  3-C ,  9-H ) :   0.9259
B(  4-C ,  5-C ) :   1.4051 B(  4-C , 10-H ) :   0.9230 B(  5-C ,  8-H ) :   0.9236
B( 11-C , 12-C ) :   0.9253 B( 11-C , 13-H ) :   0.9264 B( 11-C , 14-H ) :   0.8827
B( 12-C , 15-C ) :   0.9768 B( 12-C , 16-H ) :   0.8939 B( 12-C , 17-H ) :   0.9271
B( 15-C , 18-C ) :   1.3404 B( 15-C , 21-C ) :   1.4201 B( 18-C , 19-C ) :   1.4286
B( 18-C , 27-Pd) :   0.7496 B( 18-C , 28-Br) :   0.1124 B( 19-C , 20-C ) :   1.3940
B( 19-C , 23-H ) :   0.8805 B( 20-C , 22-C ) :   1.4395 B( 20-C , 24-H ) :   0.9278
B( 21-C , 22-C ) :   1.4140 B( 21-C , 25-H ) :   0.9265 B( 22-C , 26-H ) :   0.9298
B( 27-Pd, 28-Br) :   0.5573 B( 27-Pd, 29-P ) :   0.7241 B( 27-Pd, 33-O ) :   0.4942
B( 28-Br, 29-P ) :   0.1102 B( 29-P , 30-H ) :   0.9263 B( 29-P , 35-H ) :   0.9068
B( 29-P , 36-H ) :   0.9331 B( 31-C , 32-O ) :   1.7934 B( 31-C , 33-O ) :   1.3729
B( 31-C , 34-O ) :   1.0585 B( 34-O , 37-H ) :   0.7840

Dispersion correction           -0.030450571
FINAL SINGLE POINT ENERGY     -3847.708008971335
Dispersion correction            ... done

DIPOLE MOMENT
-------------
                                X             Y             Z
Electronic contribution:     20.39796     -78.73676     -53.61023
Nuclear contribution   :    -20.00141      79.57874      56.29453
                        -----------------------------------------
Total Dipole Moment    :      0.39655       0.84197       2.68430
                        -----------------------------------------
Magnitude (a.u.)       :      2.84107
Magnitude (Debye)      :      7.22142

Rotational constants in cm-1:     0.007028     0.005650     0.004095
Rotational constants in MHz :   210.680087   169.391387   122.764376

                             ****ORCA TERMINATED NORMALLY****
TOTAL RUN TIME: 0 days 0 hours 24 minutes 16 seconds 574 msec
