                         Program Version 5.0.3 -  RELEASE  -
|  1> ! EnGrad PBEh-3c
|  2> %output
|  3> xyzfile=True
|  4> end
|  5> %scf
|  6> maxiter 250
|  7> end
|  8> %output
|  9> Print[P_Hirshfeld] = 1
| 10> end
| 11> % maxcore
| 12> 4000
| 13> *xyz -1 1
| 14> C   -2.64818351  -0.21347386   0.63106844
| 15> C   -2.01095038   0.83932145   1.23583782
| 16> C   -3.89227278  -0.53922067   0.98089824
| 17> C   -4.68380985   0.34808314   1.65369665
| 18> C   -4.16769508   1.55782644   2.15607073
| 19> C   -2.82165541   1.70317299   2.01043997
| 20> H   -2.40374705  -0.85561143  -0.38416262
| 21> H   -4.27554549  -1.56466640   0.87974647
| 22> H   -2.39749817   2.61560870   2.51941034
| 23> H   -5.76990305   0.24862394   1.58153718
| 24> H   -4.84491143   2.34496221   2.55124812
| 25> C   -0.60037145   1.36960187   1.04335457
| 26> C    0.56324619   0.50213929   1.56460624
| 27> H   -0.48323991   2.40115458   1.50386833
| 28> H   -0.54814845   1.53429062  -0.03588826
| 29> C    1.78033185   0.55595079   0.67190330
| 30> H    0.18239181  -0.51252699   1.63611513
| 31> H    0.80776423   0.83610370   2.57594095
| 32> C    1.77449664  -0.12125915  -0.57458035
| 33> C    2.90688213   0.09001491  -1.38025621
| 34> C    3.87303979   1.05273150  -1.06776531
| 35> C    2.77241080   1.48331480   1.00051974
| 36> C    3.83042942   1.73129819   0.12986570
| 37> H    3.01174767  -0.49567419  -2.27911809
| 38> H    4.66045805   1.26583101  -1.79032034
| 39> H    2.82622611   1.87060639   2.02120994
| 40> H    4.53708344   2.51970904   0.36426669
| 41> Pd   0.34879218  -1.65125322  -1.12854966
| 42> Br  -1.28788963  -3.65241772  -1.18461797
| 43> P    1.29731168  -2.96071084   0.29459675
| 44> H    0.55950884  -3.46113940   1.37974857
| 45> C    0.46253394  -1.06583614  -3.91253072
| 46> O    1.66989779  -1.63973292  -4.18447902
| 47> O   -0.28075769  -1.35892703  -3.06697551
| 48> O    0.18641526  -0.03796429  -4.73848122
| 49> H    2.53056195  -2.72062941   0.96358226
| 50> H    1.65972069  -4.18236949  -0.32228160
| 51> H    0.87164804   0.16976396  -5.29846459
| 52> *
| 53>
| 54>                          ****END OF INPUT****

CARTESIAN COORDINATES (ANGSTROEM)
---------------------------------
  C     -2.648184   -0.213474    0.631068
  C     -2.010950    0.839321    1.235838
  C     -3.892273   -0.539221    0.980898
  C     -4.683810    0.348083    1.653697
  C     -4.167695    1.557826    2.156071
  C     -2.821655    1.703173    2.010440
  H     -2.403747   -0.855611   -0.384163
  H     -4.275545   -1.564666    0.879746
  H     -2.397498    2.615609    2.519410
  H     -5.769903    0.248624    1.581537
  H     -4.844911    2.344962    2.551248
  C     -0.600371    1.369602    1.043355
  C      0.563246    0.502139    1.564606
  H     -0.483240    2.401155    1.503868
  H     -0.548148    1.534291   -0.035888
  C      1.780332    0.555951    0.671903
  H      0.182392   -0.512527    1.636115
  H      0.807764    0.836104    2.575941
  C      1.774497   -0.121259   -0.574580
  C      2.906882    0.090015   -1.380256
  C      3.873040    1.052731   -1.067765
  C      2.772411    1.483315    1.000520
  C      3.830429    1.731298    0.129866
  H      3.011748   -0.495674   -2.279118
  H      4.660458    1.265831   -1.790320
  H      2.826226    1.870606    2.021210
  H      4.537083    2.519709    0.364267
  Pd     0.348792   -1.651253   -1.128550
  Br    -1.287890   -3.652418   -1.184618
  P      1.297312   -2.960711    0.294597
  H      0.559509   -3.461139    1.379749
  C      0.462534   -1.065836   -3.912531
  O      1.669898   -1.639733   -4.184479
  O     -0.280758   -1.358927   -3.066976
  O      0.186415   -0.037964   -4.738481
  H      2.530562   -2.720629    0.963582
  H      1.659721   -4.182369   -0.322282
  H      0.871648    0.169764   -5.298465

 Total Charge           Charge          ....   -1
 Multiplicity           Mult            ....    1
 Number of Electrons    NEL             ....  200
 Basis Dimension        Dim             ....  385

ORBITAL ENERGIES
----------------

  NO   OCC          E(Eh)            E(eV)
   0   2.0000    -484.332217    -13179.3497
   1   2.0000     -77.683061     -2113.8636
   2   2.0000     -62.994052     -1714.1553
   3   2.0000     -56.697780     -1542.8250
   4   2.0000     -56.696679     -1542.7951
   5   2.0000     -56.696573     -1542.7922
   6   2.0000     -19.367858      -527.0262
   7   2.0000     -19.338496      -526.2272
   8   2.0000     -19.261967      -524.1448
   9   2.0000     -10.436979      -284.0046
  10   2.0000     -10.367890      -282.1246
  11   2.0000     -10.359688      -281.9015
  12   2.0000     -10.358759      -281.8762
  13   2.0000     -10.355876      -281.7977
  14   2.0000     -10.353593      -281.7356
  15   2.0000     -10.350158      -281.6421
  16   2.0000     -10.347562      -281.5715
  17   2.0000     -10.345877      -281.5256
  18   2.0000     -10.342091      -281.4226
  19   2.0000     -10.340786      -281.3871
  20   2.0000     -10.340483      -281.3788
  21   2.0000     -10.339492      -281.3519
  22   2.0000     -10.336261      -281.2639
  23   2.0000     -10.324523      -280.9446
  24   2.0000      -8.821489      -240.0449
  25   2.0000      -6.756638      -183.8575
  26   2.0000      -6.591429      -179.3619
  27   2.0000      -6.586089      -179.2166
  28   2.0000      -6.585570      -179.2025
  29   2.0000      -4.847719      -131.9131
  30   2.0000      -4.847577      -131.9093
  31   2.0000      -4.846216      -131.8722
  32   2.0000      -3.531327       -96.0923
  33   2.0000      -2.605371       -70.8957
  34   2.0000      -2.604085       -70.8608
  35   2.0000      -2.603601       -70.8476
  36   2.0000      -2.599014       -70.7228
  37   2.0000      -2.598993       -70.7222
  38   2.0000      -2.180298       -59.3289
  39   2.0000      -2.172051       -59.1045
  40   2.0000      -2.145447       -58.3806
  41   2.0000      -1.086034       -29.5525
  42   2.0000      -1.001410       -27.2498
  43   2.0000      -0.877295       -23.8724
  44   2.0000      -0.848429       -23.0869
  45   2.0000      -0.843448       -22.9514
  46   2.0000      -0.789771       -21.4908
  47   2.0000      -0.753672       -20.5085
  48   2.0000      -0.746860       -20.3231
  49   2.0000      -0.715493       -19.4695
  50   2.0000      -0.690062       -18.7776
  51   2.0000      -0.660238       -17.9660
  52   2.0000      -0.635451       -17.2915
  53   2.0000      -0.622361       -16.9353
  54   2.0000      -0.580389       -15.7932
  55   2.0000      -0.564264       -15.3544
  56   2.0000      -0.560987       -15.2652
  57   2.0000      -0.557717       -15.1763
  58   2.0000      -0.536103       -14.5881
  59   2.0000      -0.479932       -13.0596
  60   2.0000      -0.460009       -12.5175
  61   2.0000      -0.443993       -12.0817
  62   2.0000      -0.433070       -11.7844
  63   2.0000      -0.420030       -11.4296
  64   2.0000      -0.415516       -11.3068
  65   2.0000      -0.398852       -10.8533
  66   2.0000      -0.389681       -10.6037
  67   2.0000      -0.384441       -10.4612
  68   2.0000      -0.378238       -10.2924
  69   2.0000      -0.374329       -10.1860
  70   2.0000      -0.372707       -10.1419
  71   2.0000      -0.368695       -10.0327
  72   2.0000      -0.368487       -10.0270
  73   2.0000      -0.357200        -9.7199
  74   2.0000      -0.348419        -9.4810
  75   2.0000      -0.336445        -9.1551
  76   2.0000      -0.326816        -8.8931
  77   2.0000      -0.321352        -8.7444
  78   2.0000      -0.314475        -8.5573
  79   2.0000      -0.312765        -8.5108
  80   2.0000      -0.292738        -7.9658
  81   2.0000      -0.287420        -7.8211
  82   2.0000      -0.280517        -7.6333
  83   2.0000      -0.266161        -7.2426
  84   2.0000      -0.261162        -7.1066
  85   2.0000      -0.256911        -6.9909
  86   2.0000      -0.242065        -6.5869
  87   2.0000      -0.230814        -6.2808
  88   2.0000      -0.223012        -6.0685
  89   2.0000      -0.201894        -5.4938
  90   2.0000      -0.192265        -5.2318
  91   2.0000      -0.187310        -5.0970
  92   2.0000      -0.178106        -4.8465
  93   2.0000      -0.172581        -4.6962
  94   2.0000      -0.169389        -4.6093
  95   2.0000      -0.157251        -4.2790
  96   2.0000      -0.153339        -4.1726
  97   2.0000      -0.152368        -4.1461
  98   2.0000      -0.138607        -3.7717
  99   2.0000      -0.122769        -3.3407
 100   0.0000       0.070807         1.9268
 101   0.0000       0.103825         2.8252
 102   0.0000       0.107593         2.9277
 103   0.0000       0.126792         3.4502
 104   0.0000       0.131303         3.5729

MULLIKEN ATOMIC CHARGES
-----------------------
   0 C :   -0.286102
   1 C :    0.142419
   2 C :   -0.195033
   3 C :   -0.247471
   4 C :   -0.204778
   5 C :   -0.280757
   6 H :    0.278780
   7 H :    0.233097
   8 H :    0.187257
   9 H :    0.192922
  10 H :    0.196715
  11 C :   -0.495458
  12 C :   -0.504743
  13 H :    0.203905
  14 H :    0.281143
  15 C :    0.050103
  16 H :    0.256236
  17 H :    0.203719
  18 C :   -0.119174
  19 C :   -0.287685
  20 C :   -0.221206
  21 C :   -0.253568
  22 C :   -0.234450
  23 H :    0.280892
  24 H :    0.189495
  25 H :    0.175815
  26 H :    0.182007
  27 Pd:    0.143285
  28 Br:   -0.456428
  29 P :   -0.116965
  30 H :    0.121537
  31 C :    0.667183
  32 O :   -0.663728
  33 O :   -0.450282
  34 O :   -0.617178
  35 H :    0.086883
  36 H :    0.140381
  37 H :    0.421233
Sum of atomic charges:   -1.0000000

LOEWDIN ATOMIC CHARGES
----------------------
   0 C :   -0.110201
   1 C :   -0.042896
   2 C :   -0.139893
   3 C :   -0.154952
   4 C :   -0.160250
   5 C :   -0.136431
   6 H :    0.198086
   7 H :    0.142984
   8 H :    0.121101
   9 H :    0.124262
  10 H :    0.126695
  11 C :   -0.207023
  12 C :   -0.216015
  13 H :    0.122076
  14 H :    0.161557
  15 C :   -0.052476
  16 H :    0.144539
  17 H :    0.119329
  18 C :   -0.041645
  19 C :   -0.124083
  20 C :   -0.152513
  21 C :   -0.156039
  22 C :   -0.162204
  23 H :    0.166939
  24 H :    0.123530
  25 H :    0.120058
  26 H :    0.119576
  27 Pd:   -0.798198
  28 Br:   -0.241577
  29 P :    0.442704
  30 H :    0.054077
  31 C :    0.132257
  32 O :   -0.503677
  33 O :   -0.105595
  34 O :   -0.325013
  35 H :    0.031493
  36 H :    0.069789
  37 H :    0.309630

  Mayer bond orders larger than 0.100000
B(  0-C ,  1-C ) :   1.3927 B(  0-C ,  2-C ) :   1.3939 B(  0-C ,  6-H ) :   0.8741
B(  1-C ,  5-C ) :   1.3724 B(  1-C , 11-C ) :   0.9338 B(  2-C ,  3-C ) :   1.4433
B(  2-C ,  7-H ) :   0.9102 B(  3-C ,  4-C ) :   1.3991 B(  3-C ,  9-H ) :   0.9254
B(  4-C ,  5-C ) :   1.4600 B(  4-C , 10-H ) :   0.9254 B(  5-C ,  8-H ) :   0.9247
B( 11-C , 12-C ) :   0.9169 B( 11-C , 13-H ) :   0.9334 B( 11-C , 14-H ) :   0.8909
B( 12-C , 15-C ) :   0.9802 B( 12-C , 16-H ) :   0.8956 B( 12-C , 17-H ) :   0.9291
B( 15-C , 18-C ) :   1.3327 B( 15-C , 21-C ) :   1.4097 B( 18-C , 19-C ) :   1.4254
B( 18-C , 27-Pd) :   0.7091 B( 18-C , 28-Br) :   0.1205 B( 19-C , 20-C ) :   1.3880
B( 19-C , 23-H ) :   0.8624 B( 20-C , 22-C ) :   1.4435 B( 20-C , 24-H ) :   0.9275
B( 21-C , 22-C ) :   1.4116 B( 21-C , 25-H ) :   0.9262 B( 22-C , 26-H ) :   0.9286
B( 27-Pd, 28-Br) :   0.5747 B( 27-Pd, 29-P ) :   0.8406 B( 27-Pd, 33-O ) :   0.4010
B( 28-Br, 29-P ) :   0.1261 B( 29-P , 30-H ) :   0.9199 B( 29-P , 35-H ) :   0.9020
B( 29-P , 36-H ) :   0.9265 B( 31-C , 32-O ) :   1.6076 B( 31-C , 33-O ) :   1.5842
B( 31-C , 34-O ) :   1.0652 B( 34-O , 37-H ) :   0.7756

Dispersion correction           -0.030427577
FINAL SINGLE POINT ENERGY     -3847.652030192688
Dispersion correction            ... done

DIPOLE MOMENT
-------------
                                X             Y             Z
Electronic contribution:     15.99888     -82.29914     -48.38184
Nuclear contribution   :    -15.91379      83.33979      51.53539
                        -----------------------------------------
Total Dipole Moment    :      0.08509       1.04064       3.15355
                        -----------------------------------------
Magnitude (a.u.)       :      3.32191
Magnitude (Debye)      :      8.44362

Rotational constants in cm-1:     0.006896     0.005769     0.004147
Rotational constants in MHz :   206.751337   172.962380   124.323766

                             ****ORCA TERMINATED NORMALLY****
TOTAL RUN TIME: 0 days 0 hours 15 minutes 42 seconds 995 msec
