                         Program Version 5.0.3 -  RELEASE  -
|  1> ! EnGrad PBEh-3c
|  2> %output
|  3> xyzfile=True
|  4> end
|  5> %scf
|  6> maxiter 250
|  7> end
|  8> %output
|  9> Print[P_Hirshfeld] = 1
| 10> end
| 11> % maxcore
| 12> 4000
| 13> *xyz -1 1
| 14> C   -2.64988338  -0.34877088   0.63259445
| 15> C   -2.01665753   0.84359699   1.26527325
| 16> C   -3.91486913  -0.56561499   1.13157076
| 17> C   -4.69608561   0.37700361   1.77731129
| 18> C   -4.14649524   1.55483299   2.24861680
| 19> C   -2.79852169   1.72779314   2.06957807
| 20> H   -2.44226182  -0.97985450  -0.31415608
| 21> H   -4.33514487  -1.54456335   0.97419244
| 22> H   -2.34031071   2.61566532   2.54151105
| 23> H   -5.76915492   0.23772333   1.81716218
| 24> H   -4.76633375   2.32453507   2.69386368
| 25> C   -0.65389189   1.36194636   0.90230434
| 26> C    0.51122218   0.52622543   1.47305848
| 27> H   -0.51035064   2.40631435   1.22478830
| 28> H   -0.64180088   1.40375604  -0.17801541
| 29> C    1.75098711   0.57361622   0.63637241
| 30> H    0.16589993  -0.49750873   1.58054514
| 31> H    0.71780136   0.88871192   2.48203544
| 32> C    1.81928250  -0.12796630  -0.58869964
| 33> C    2.96214643   0.05715320  -1.37144365
| 34> C    3.90899625   1.02968552  -1.05301523
| 35> C    2.74854160   1.47972336   0.97672133
| 36> C    3.82768248   1.71830185   0.13821822
| 37> H    3.09003817  -0.53446579  -2.26682581
| 38> H    4.72335196   1.22480509  -1.74222627
| 39> H    2.74206835   1.91166723   1.97271826
| 40> H    4.51458248   2.52090669   0.36968746
| 41> Pd   0.40461437  -1.59779525  -1.18870490
| 42> Br  -1.22973678  -3.61341440  -1.37574318
| 43> P    1.25582407  -2.95958923   0.33772416
| 44> H    0.43080203  -3.40756446   1.36903652
| 45> C    0.56915851  -1.00948281  -3.95828309
| 46> O    1.66913530  -1.62085615  -4.15542212
| 47> O   -0.21033754  -1.15292994  -3.02293215
| 48> O    0.26793718  -0.00721814  -4.83072810
| 49> H    2.42067444  -2.69622160   1.07156130
| 50> H    1.64608027  -4.19984422  -0.20294035
| 51> H    0.97432212   0.08632139  -5.43699110
| 52> *
| 53>
| 54>                          ****END OF INPUT****

CARTESIAN COORDINATES (ANGSTROEM)
---------------------------------
  C     -2.649883   -0.348771    0.632594
  C     -2.016658    0.843597    1.265273
  C     -3.914869   -0.565615    1.131571
  C     -4.696086    0.377004    1.777311
  C     -4.146495    1.554833    2.248617
  C     -2.798522    1.727793    2.069578
  H     -2.442262   -0.979854   -0.314156
  H     -4.335145   -1.544563    0.974192
  H     -2.340311    2.615665    2.541511
  H     -5.769155    0.237723    1.817162
  H     -4.766334    2.324535    2.693864
  C     -0.653892    1.361946    0.902304
  C      0.511222    0.526225    1.473058
  H     -0.510351    2.406314    1.224788
  H     -0.641801    1.403756   -0.178015
  C      1.750987    0.573616    0.636372
  H      0.165900   -0.497509    1.580545
  H      0.717801    0.888712    2.482035
  C      1.819282   -0.127966   -0.588700
  C      2.962146    0.057153   -1.371444
  C      3.908996    1.029686   -1.053015
  C      2.748542    1.479723    0.976721
  C      3.827682    1.718302    0.138218
  H      3.090038   -0.534466   -2.266826
  H      4.723352    1.224805   -1.742226
  H      2.742068    1.911667    1.972718
  H      4.514582    2.520907    0.369687
  Pd     0.404614   -1.597795   -1.188705
  Br    -1.229737   -3.613414   -1.375743
  P      1.255824   -2.959589    0.337724
  H      0.430802   -3.407564    1.369037
  C      0.569159   -1.009483   -3.958283
  O      1.669135   -1.620856   -4.155422
  O     -0.210338   -1.152930   -3.022932
  O      0.267937   -0.007218   -4.830728
  H      2.420674   -2.696222    1.071561
  H      1.646080   -4.199844   -0.202940
  H      0.974322    0.086321   -5.436991

 Total Charge           Charge          ....   -1
 Multiplicity           Mult            ....    1
 Number of Electrons    NEL             ....  200
 Basis Dimension        Dim             ....  385

ORBITAL ENERGIES
----------------

  NO   OCC          E(Eh)            E(eV)
   0   2.0000    -484.324775    -13179.1471
   1   2.0000     -77.674742     -2113.6372
   2   2.0000     -62.986553     -1713.9512
   3   2.0000     -56.690237     -1542.6198
   4   2.0000     -56.689202     -1542.5916
   5   2.0000     -56.689115     -1542.5893
   6   2.0000     -19.374721      -527.2129
   7   2.0000     -19.332220      -526.0564
   8   2.0000     -19.288278      -524.8607
   9   2.0000     -10.442996      -284.1684
  10   2.0000     -10.376617      -282.3621
  11   2.0000     -10.364047      -282.0200
  12   2.0000     -10.358131      -281.8591
  13   2.0000     -10.356237      -281.8075
  14   2.0000     -10.352992      -281.7192
  15   2.0000     -10.349469      -281.6234
  16   2.0000     -10.339930      -281.3638
  17   2.0000     -10.339714      -281.3579
  18   2.0000     -10.336300      -281.2650
  19   2.0000     -10.336222      -281.2629
  20   2.0000     -10.335627      -281.2467
  21   2.0000     -10.335255      -281.2366
  22   2.0000     -10.333225      -281.1814
  23   2.0000     -10.321462      -280.8613
  24   2.0000      -8.813930      -239.8392
  25   2.0000      -6.749442      -183.6617
  26   2.0000      -6.583567      -179.1480
  27   2.0000      -6.578629      -179.0136
  28   2.0000      -6.578235      -179.0029
  29   2.0000      -4.840530      -131.7175
  30   2.0000      -4.840349      -131.7126
  31   2.0000      -4.838735      -131.6687
  32   2.0000      -3.522878       -95.8624
  33   2.0000      -2.597560       -70.6832
  34   2.0000      -2.596344       -70.6501
  35   2.0000      -2.595969       -70.6399
  36   2.0000      -2.591728       -70.5245
  37   2.0000      -2.591696       -70.5236
  38   2.0000      -2.170533       -59.0632
  39   2.0000      -2.164008       -58.8856
  40   2.0000      -2.136825       -58.1460
  41   2.0000      -1.075620       -29.2691
  42   2.0000      -0.979065       -26.6417
  43   2.0000      -0.905637       -24.6436
  44   2.0000      -0.861661       -23.4470
  45   2.0000      -0.843042       -22.9403
  46   2.0000      -0.788676       -21.4610
  47   2.0000      -0.748125       -20.3575
  48   2.0000      -0.742058       -20.1924
  49   2.0000      -0.713929       -19.4270
  50   2.0000      -0.686108       -18.6700
  51   2.0000      -0.655459       -17.8359
  52   2.0000      -0.630905       -17.1678
  53   2.0000      -0.621950       -16.9241
  54   2.0000      -0.577606       -15.7174
  55   2.0000      -0.560017       -15.2388
  56   2.0000      -0.558371       -15.1940
  57   2.0000      -0.545852       -14.8534
  58   2.0000      -0.535090       -14.5605
  59   2.0000      -0.481525       -13.1030
  60   2.0000      -0.459302       -12.4982
  61   2.0000      -0.440111       -11.9760
  62   2.0000      -0.425471       -11.5776
  63   2.0000      -0.423803       -11.5323
  64   2.0000      -0.410119       -11.1599
  65   2.0000      -0.398235       -10.8365
  66   2.0000      -0.390374       -10.6226
  67   2.0000      -0.385838       -10.4992
  68   2.0000      -0.377275       -10.2662
  69   2.0000      -0.373813       -10.1720
  70   2.0000      -0.370788       -10.0897
  71   2.0000      -0.368749       -10.0342
  72   2.0000      -0.363956        -9.9037
  73   2.0000      -0.356034        -9.6882
  74   2.0000      -0.346270        -9.4225
  75   2.0000      -0.330548        -8.9947
  76   2.0000      -0.328959        -8.9514
  77   2.0000      -0.325625        -8.8607
  78   2.0000      -0.313647        -8.5348
  79   2.0000      -0.305702        -8.3186
  80   2.0000      -0.298096        -8.1116
  81   2.0000      -0.288055        -7.8384
  82   2.0000      -0.279931        -7.6173
  83   2.0000      -0.268327        -7.3016
  84   2.0000      -0.258656        -7.0384
  85   2.0000      -0.253767        -6.9054
  86   2.0000      -0.249412        -6.7868
  87   2.0000      -0.227425        -6.1886
  88   2.0000      -0.215223        -5.8565
  89   2.0000      -0.197393        -5.3713
  90   2.0000      -0.189180        -5.1479
  91   2.0000      -0.181170        -4.9299
  92   2.0000      -0.178921        -4.8687
  93   2.0000      -0.172394        -4.6911
  94   2.0000      -0.164667        -4.4808
  95   2.0000      -0.163674        -4.4538
  96   2.0000      -0.152514        -4.1501
  97   2.0000      -0.148898        -4.0517
  98   2.0000      -0.146759        -3.9935
  99   2.0000      -0.138452        -3.7675
 100   0.0000       0.085400         2.3239
 101   0.0000       0.097698         2.6585
 102   0.0000       0.110280         3.0009
 103   0.0000       0.130657         3.5554
 104   0.0000       0.134938         3.6718

MULLIKEN ATOMIC CHARGES
-----------------------
   0 C :   -0.250530
   1 C :    0.047119
   2 C :   -0.224020
   3 C :   -0.223281
   4 C :   -0.209943
   5 C :   -0.253559
   6 H :    0.303901
   7 H :    0.222512
   8 H :    0.193857
   9 H :    0.196958
  10 H :    0.196314
  11 C :   -0.492287
  12 C :   -0.504335
  13 H :    0.210619
  14 H :    0.291353
  15 C :    0.077014
  16 H :    0.252563
  17 H :    0.202990
  18 C :   -0.129025
  19 C :   -0.277146
  20 C :   -0.227634
  21 C :   -0.265347
  22 C :   -0.230527
  23 H :    0.270042
  24 H :    0.186277
  25 H :    0.173993
  26 H :    0.179457
  27 Pd:    0.152550
  28 Br:   -0.478080
  29 P :   -0.124721
  30 H :    0.122763
  31 C :    0.698723
  32 O :   -0.582731
  33 O :   -0.522419
  34 O :   -0.621064
  35 H :    0.087442
  36 H :    0.134737
  37 H :    0.415463
Sum of atomic charges:   -1.0000000

LOEWDIN ATOMIC CHARGES
----------------------
   0 C :   -0.116782
   1 C :   -0.024764
   2 C :   -0.135403
   3 C :   -0.160870
   4 C :   -0.152627
   5 C :   -0.151660
   6 H :    0.202508
   7 H :    0.133102
   8 H :    0.125545
   9 H :    0.126121
  10 H :    0.125006
  11 C :   -0.214984
  12 C :   -0.211822
  13 H :    0.122964
  14 H :    0.164522
  15 C :   -0.056117
  16 H :    0.142948
  17 H :    0.118796
  18 C :   -0.034392
  19 C :   -0.126697
  20 C :   -0.150663
  21 C :   -0.151466
  22 C :   -0.166433
  23 H :    0.163126
  24 H :    0.121788
  25 H :    0.118635
  26 H :    0.119115
  27 Pd:   -0.802730
  28 Br:   -0.264270
  29 P :    0.423409
  30 H :    0.054217
  31 C :    0.142674
  32 O :   -0.394919
  33 O :   -0.160317
  34 O :   -0.334704
  35 H :    0.030546
  36 H :    0.065550
  37 H :    0.311045

  Mayer bond orders larger than 0.100000
B(  0-C ,  1-C ) :   1.3455 B(  0-C ,  2-C ) :   1.4374 B(  0-C ,  6-H ) :   0.8667
B(  1-C ,  5-C ) :   1.4246 B(  1-C , 11-C ) :   0.9525 B(  2-C ,  3-C ) :   1.4066
B(  2-C ,  7-H ) :   0.9157 B(  3-C ,  4-C ) :   1.4429 B(  3-C ,  9-H ) :   0.9258
B(  4-C ,  5-C ) :   1.4195 B(  4-C , 10-H ) :   0.9237 B(  5-C ,  8-H ) :   0.9244
B( 11-C , 12-C ) :   0.9230 B( 11-C , 13-H ) :   0.9283 B( 11-C , 14-H ) :   0.8851
B( 12-C , 15-C ) :   0.9781 B( 12-C , 16-H ) :   0.8945 B( 12-C , 17-H ) :   0.9278
B( 15-C , 18-C ) :   1.3389 B( 15-C , 21-C ) :   1.4169 B( 18-C , 19-C ) :   1.4278
B( 18-C , 27-Pd) :   0.7381 B( 18-C , 28-Br) :   0.1158 B( 19-C , 20-C ) :   1.3927
B( 19-C , 23-H ) :   0.8753 B( 20-C , 22-C ) :   1.4407 B( 20-C , 24-H ) :   0.9277
B( 21-C , 22-C ) :   1.4138 B( 21-C , 25-H ) :   0.9264 B( 22-C , 26-H ) :   0.9295
B( 27-Pd, 28-Br) :   0.5628 B( 27-Pd, 29-P ) :   0.7611 B( 27-Pd, 33-O ) :   0.4648
B( 28-Br, 29-P ) :   0.1155 B( 29-P , 30-H ) :   0.9244 B( 29-P , 35-H ) :   0.9054
B( 29-P , 36-H ) :   0.9310 B( 31-C , 32-O ) :   1.7358 B( 31-C , 33-O ) :   1.4383
B( 31-C , 34-O ) :   1.0612 B( 34-O , 37-H ) :   0.7811

Dispersion correction           -0.030449155
FINAL SINGLE POINT ENERGY     -3847.708104947646
Dispersion correction            ... done

DIPOLE MOMENT
-------------
                                X             Y             Z
Electronic contribution:     19.08175     -79.80897     -52.04640
Nuclear contribution   :    -18.78115      80.70150      54.87381
                        -----------------------------------------
Total Dipole Moment    :      0.30059       0.89253       2.82741
                        -----------------------------------------
Magnitude (a.u.)       :      2.98014
Magnitude (Debye)      :      7.57490

Rotational constants in cm-1:     0.006991     0.005690     0.004112
Rotational constants in MHz :   209.584307   170.572537   123.282814

                             ****ORCA TERMINATED NORMALLY****
TOTAL RUN TIME: 0 days 0 hours 27 minutes 31 seconds 248 msec
