                         Program Version 5.0.3 -  RELEASE  -
|  1> ! EnGrad PBEh-3c
|  2> %output
|  3> xyzfile=True
|  4> end
|  5> %scf
|  6> maxiter 250
|  7> end
|  8> %output
|  9> Print[P_Hirshfeld] = 1
| 10> end
| 11> % maxcore
| 12> 4000
| 13> *xyz -1 1
| 14> C   -2.59732062  -0.13915621   0.58065598
| 15> C   -2.00646449   0.86023392   1.22802602
| 16> C   -3.90508264  -0.52923139   0.88584918
| 17> C   -4.68719844   0.34987297   1.55782451
| 18> C   -4.20172558   1.54979227   2.07012810
| 19> C   -2.83219376   1.71138255   1.97788206
| 20> H   -2.36669764  -0.76585857  -0.43338005
| 21> H   -4.21941728  -1.56967126   0.78818636
| 22> H   -2.44611113   2.61325718   2.48576160
| 23> H   -5.76740739   0.25050159   1.39760044
| 24> H   -4.89871031   2.35101392   2.43159697
| 25> C   -0.55728238   1.38714933   1.15995090
| 26> C    0.60327866   0.47942189   1.63874705
| 27> H   -0.46561254   2.38055199   1.73479568
| 28> H   -0.46345372   1.64587660   0.08674758
| 29> C    1.79083031   0.54804055   0.70187931
| 30> H    0.19872062  -0.52869039   1.68478869
| 31> H    0.88423302   0.78936726   2.65447621
| 32> C    1.74570415  -0.12062699  -0.55977360
| 33> C    2.85461296   0.11673130  -1.38493345
| 34> C    3.84032145   1.07000421  -1.08483646
| 35> C    2.79751683   1.47649991   1.02011724
| 36> C    3.82597008   1.74515831   0.12498301
| 37> H    2.94509868  -0.46406818  -2.29202404
| 38> H    4.60696054   1.29607532  -1.82674948
| 39> H    2.89030905   1.84067194   2.05648323
| 40> H    4.55451575   2.51725868   0.35802502
| 41> Pd   0.30677611  -1.67881833  -1.07739261
| 42> Br  -1.33680396  -3.67927793  -1.02974257
| 43> P    1.33562238  -2.96725114   0.26395359
| 44> H    0.66630493  -3.50430081   1.38561741
| 45> C    0.50341805  -1.14922633  -3.94697665
| 46> O    1.60295521  -1.62300767  -4.19211760
| 47> O   -0.38404930  -1.52626974  -3.05083011
| 48> O    0.07612421  -0.05733915  -4.63803370
| 49> H    2.61527108  -2.73883465   0.86661733
| 50> H    1.66751287  -4.16619447  -0.41976675
| 51> H    0.81777634   0.23222342  -5.20154248
| 52> *
| 53>
| 54>                          ****END OF INPUT****

CARTESIAN COORDINATES (ANGSTROEM)
---------------------------------
  C     -2.597321   -0.139156    0.580656
  C     -2.006464    0.860234    1.228026
  C     -3.905083   -0.529231    0.885849
  C     -4.687198    0.349873    1.557825
  C     -4.201726    1.549792    2.070128
  C     -2.832194    1.711383    1.977882
  H     -2.366698   -0.765859   -0.433380
  H     -4.219417   -1.569671    0.788186
  H     -2.446111    2.613257    2.485762
  H     -5.767407    0.250502    1.397600
  H     -4.898710    2.351014    2.431597
  C     -0.557282    1.387149    1.159951
  C      0.603279    0.479422    1.638747
  H     -0.465613    2.380552    1.734796
  H     -0.463454    1.645877    0.086748
  C      1.790830    0.548041    0.701879
  H      0.198721   -0.528690    1.684789
  H      0.884233    0.789367    2.654476
  C      1.745704   -0.120627   -0.559774
  C      2.854613    0.116731   -1.384933
  C      3.840321    1.070004   -1.084836
  C      2.797517    1.476500    1.020117
  C      3.825970    1.745158    0.124983
  H      2.945099   -0.464068   -2.292024
  H      4.606961    1.296075   -1.826749
  H      2.890309    1.840672    2.056483
  H      4.554516    2.517259    0.358025
  Pd     0.306776   -1.678818   -1.077393
  Br    -1.336804   -3.679278   -1.029743
  P      1.335622   -2.967251    0.263954
  H      0.666305   -3.504301    1.385617
  C      0.503418   -1.149226   -3.946977
  O      1.602955   -1.623008   -4.192118
  O     -0.384049   -1.526270   -3.050830
  O      0.076124   -0.057339   -4.638034
  H      2.615271   -2.738835    0.866617
  H      1.667513   -4.166194   -0.419767
  H      0.817776    0.232223   -5.201542

 Total Charge           Charge          ....   -1
 Multiplicity           Mult            ....    1
 Number of Electrons    NEL             ....  200
 Basis Dimension        Dim             ....  385

ORBITAL ENERGIES
----------------

  NO   OCC          E(Eh)            E(eV)
   0   2.0000    -484.326939    -13179.2060
   1   2.0000     -77.679456     -2113.7655
   2   2.0000     -62.988778     -1714.0118
   3   2.0000     -56.692521     -1542.6819
   4   2.0000     -56.691404     -1542.6515
   5   2.0000     -56.691286     -1542.6483
   6   2.0000     -19.380944      -527.3823
   7   2.0000     -19.313834      -525.5561
   8   2.0000     -19.309011      -525.4249
   9   2.0000     -10.445569      -284.2384
  10   2.0000     -10.361243      -281.9438
  11   2.0000     -10.356883      -281.8251
  12   2.0000     -10.354696      -281.7656
  13   2.0000     -10.353087      -281.7218
  14   2.0000     -10.352760      -281.7129
  15   2.0000     -10.348036      -281.5844
  16   2.0000     -10.347576      -281.5719
  17   2.0000     -10.347246      -281.5629
  18   2.0000     -10.342381      -281.4305
  19   2.0000     -10.342248      -281.4269
  20   2.0000     -10.340972      -281.3921
  21   2.0000     -10.340381      -281.3761
  22   2.0000     -10.338503      -281.3250
  23   2.0000     -10.327081      -281.0142
  24   2.0000      -8.816202      -239.9011
  25   2.0000      -6.752648      -183.7489
  26   2.0000      -6.586230      -179.2204
  27   2.0000      -6.580810      -179.0729
  28   2.0000      -6.580178      -179.0557
  29   2.0000      -4.843727      -131.8045
  30   2.0000      -4.843591      -131.8008
  31   2.0000      -4.842290      -131.7654
  32   2.0000      -3.527995       -96.0016
  33   2.0000      -2.600160       -70.7540
  34   2.0000      -2.598882       -70.7192
  35   2.0000      -2.598303       -70.7034
  36   2.0000      -2.593639       -70.5765
  37   2.0000      -2.593628       -70.5762
  38   2.0000      -2.176869       -59.2356
  39   2.0000      -2.168134       -58.9979
  40   2.0000      -2.142001       -58.2868
  41   2.0000      -1.067404       -29.0455
  42   2.0000      -0.954647       -25.9773
  43   2.0000      -0.913544       -24.8588
  44   2.0000      -0.873258       -23.7626
  45   2.0000      -0.840863       -22.8810
  46   2.0000      -0.785558       -21.3761
  47   2.0000      -0.747578       -20.3426
  48   2.0000      -0.741752       -20.1841
  49   2.0000      -0.716052       -19.4848
  50   2.0000      -0.687627       -18.7113
  51   2.0000      -0.654799       -17.8180
  52   2.0000      -0.629645       -17.1335
  53   2.0000      -0.616646       -16.7798
  54   2.0000      -0.584244       -15.8981
  55   2.0000      -0.558745       -15.2042
  56   2.0000      -0.557445       -15.1688
  57   2.0000      -0.534641       -14.5483
  58   2.0000      -0.529877       -14.4187
  59   2.0000      -0.474824       -12.9206
  60   2.0000      -0.458539       -12.4775
  61   2.0000      -0.438830       -11.9412
  62   2.0000      -0.420057       -11.4303
  63   2.0000      -0.414866       -11.2891
  64   2.0000      -0.399673       -10.8757
  65   2.0000      -0.397312       -10.8114
  66   2.0000      -0.390270       -10.6198
  67   2.0000      -0.382970       -10.4212
  68   2.0000      -0.375958       -10.2303
  69   2.0000      -0.371283       -10.1031
  70   2.0000      -0.368833       -10.0365
  71   2.0000      -0.366002        -9.9594
  72   2.0000      -0.364272        -9.9123
  73   2.0000      -0.352457        -9.5908
  74   2.0000      -0.348616        -9.4863
  75   2.0000      -0.336103        -9.1458
  76   2.0000      -0.328440        -8.9373
  77   2.0000      -0.315843        -8.5945
  78   2.0000      -0.313903        -8.5417
  79   2.0000      -0.309841        -8.4312
  80   2.0000      -0.288243        -7.8435
  81   2.0000      -0.286406        -7.7935
  82   2.0000      -0.277170        -7.5422
  83   2.0000      -0.262852        -7.1526
  84   2.0000      -0.256424        -6.9777
  85   2.0000      -0.248948        -6.7742
  86   2.0000      -0.248567        -6.7639
  87   2.0000      -0.228641        -6.2216
  88   2.0000      -0.216508        -5.8915
  89   2.0000      -0.202134        -5.5004
  90   2.0000      -0.190110        -5.1731
  91   2.0000      -0.187459        -5.1010
  92   2.0000      -0.183214        -4.9855
  93   2.0000      -0.173284        -4.7153
  94   2.0000      -0.170032        -4.6268
  95   2.0000      -0.164966        -4.4889
  96   2.0000      -0.159562        -4.3419
  97   2.0000      -0.151253        -4.1158
  98   2.0000      -0.146938        -3.9984
  99   2.0000      -0.138025        -3.7559
 100   0.0000       0.073358         1.9962
 101   0.0000       0.099406         2.7050
 102   0.0000       0.115447         3.1415
 103   0.0000       0.126437         3.4405
 104   0.0000       0.131786         3.5861

MULLIKEN ATOMIC CHARGES
-----------------------
   0 C :   -0.311898
   1 C :    0.184135
   2 C :   -0.215507
   3 C :   -0.237485
   4 C :   -0.210341
   5 C :   -0.285934
   6 H :    0.283785
   7 H :    0.244555
   8 H :    0.192089
   9 H :    0.189497
  10 H :    0.193554
  11 C :   -0.490635
  12 C :   -0.504762
  13 H :    0.194999
  14 H :    0.274478
  15 C :    0.037016
  16 H :    0.261831
  17 H :    0.201787
  18 C :   -0.106774
  19 C :   -0.292227
  20 C :   -0.221168
  21 C :   -0.248078
  22 C :   -0.235864
  23 H :    0.264965
  24 H :    0.187150
  25 H :    0.174876
  26 H :    0.182677
  27 Pd:    0.141121
  28 Br:   -0.456515
  29 P :   -0.126118
  30 H :    0.116850
  31 C :    0.698535
  32 O :   -0.519187
  33 O :   -0.578682
  34 O :   -0.605259
  35 H :    0.080876
  36 H :    0.136430
  37 H :    0.405227
Sum of atomic charges:   -1.0000000

LOEWDIN ATOMIC CHARGES
----------------------
   0 C :   -0.103779
   1 C :   -0.052359
   2 C :   -0.137348
   3 C :   -0.159418
   4 C :   -0.161820
   5 C :   -0.134326
   6 H :    0.201034
   7 H :    0.148378
   8 H :    0.122647
   9 H :    0.124252
  10 H :    0.125685
  11 C :   -0.203535
  12 C :   -0.218573
  13 H :    0.118866
  14 H :    0.159987
  15 C :   -0.048794
  16 H :    0.147703
  17 H :    0.118766
  18 C :   -0.045152
  19 C :   -0.128817
  20 C :   -0.155041
  21 C :   -0.156693
  22 C :   -0.162867
  23 H :    0.158809
  24 H :    0.122560
  25 H :    0.119974
  26 H :    0.119535
  27 Pd:   -0.805502
  28 Br:   -0.242950
  29 P :    0.439500
  30 H :    0.051954
  31 C :    0.148743
  32 O :   -0.326020
  33 O :   -0.263738
  34 O :   -0.330310
  35 H :    0.028331
  36 H :    0.068273
  37 H :    0.312046

  Mayer bond orders larger than 0.100000
B(  0-C ,  1-C ) :   1.4112 B(  0-C ,  2-C ) :   1.3586 B(  0-C ,  6-H ) :   0.8728
B(  1-C ,  5-C ) :   1.3485 B(  1-C , 11-C ) :   0.9246 B(  2-C ,  3-C ) :   1.4701
B(  2-C ,  5-C ) :   0.1041 B(  2-C ,  7-H ) :   0.9070 B(  3-C ,  4-C ) :   1.3829
B(  3-C ,  9-H ) :   0.9258 B(  4-C ,  5-C ) :   1.4757 B(  4-C , 10-H ) :   0.9269
B(  5-C ,  8-H ) :   0.9222 B( 11-C , 12-C ) :   0.9112 B( 11-C , 13-H ) :   0.9362
B( 11-C , 14-H ) :   0.8950 B( 12-C , 15-C ) :   0.9785 B( 12-C , 16-H ) :   0.8939
B( 12-C , 17-H ) :   0.9311 B( 15-C , 18-C ) :   1.3299 B( 15-C , 21-C ) :   1.4050
B( 18-C , 19-C ) :   1.4259 B( 18-C , 27-Pd) :   0.6994 B( 18-C , 28-Br) :   0.1156
B( 19-C , 20-C ) :   1.3897 B( 19-C , 23-H ) :   0.8798 B( 20-C , 22-C ) :   1.4422
B( 20-C , 24-H ) :   0.9277 B( 21-C , 22-C ) :   1.4144 B( 21-C , 25-H ) :   0.9266
B( 22-C , 26-H ) :   0.9281 B( 27-Pd, 28-Br) :   0.5738 B( 27-Pd, 29-P ) :   0.8560
B( 27-Pd, 33-O ) :   0.4957 B( 28-Br, 29-P ) :   0.1291 B( 29-P , 30-H ) :   0.9163
B( 29-P , 35-H ) :   0.8994 B( 29-P , 36-H ) :   0.9239 B( 31-C , 32-O ) :   1.8377
B( 31-C , 33-O ) :   1.3331 B( 31-C , 34-O ) :   1.0620 B( 34-O , 37-H ) :   0.7862

Dispersion correction           -0.030463442
FINAL SINGLE POINT ENERGY     -3847.668474387033
Dispersion correction            ... done

DIPOLE MOMENT
-------------
                                X             Y             Z
Electronic contribution:     14.50741     -83.60782     -46.14584
Nuclear contribution   :    -13.86501      84.65005      48.77680
                        -----------------------------------------
Total Dipole Moment    :      0.64240       1.04223       2.63096
                        -----------------------------------------
Magnitude (a.u.)       :      2.90187
Magnitude (Debye)      :      7.37598

Rotational constants in cm-1:     0.006815     0.005825     0.004174
Rotational constants in MHz :   204.295387   174.624475   125.129560

                             ****ORCA TERMINATED NORMALLY****
TOTAL RUN TIME: 0 days 0 hours 16 minutes 44 seconds 541 msec
