                         Program Version 5.0.3 -  RELEASE  -
|  1> ! EnGrad PBEh-3c
|  2> %output
|  3> xyzfile=True
|  4> end
|  5> %scf
|  6> maxiter 250
|  7> end
|  8> %output
|  9> Print[P_Hirshfeld] = 1
| 10> end
| 11> % maxcore
| 12> 4000
| 13> *xyz -1 1
| 14> C   -2.58333624  -0.20790455   0.41911674
| 15> C   -1.94177520   0.97170149   1.27826170
| 16> C   -3.85023989  -0.52488594   0.78553644
| 17> C   -4.75217242   0.37951737   1.44940067
| 18> C   -4.24394159   1.55574748   1.96616205
| 19> C   -2.86996767   1.76052206   1.96267476
| 20> H   -2.30261796  -0.67659448  -0.44779277
| 21> H   -4.15185766  -1.55662554   0.65331909
| 22> H   -2.49552722   2.62494012   2.42534361
| 23> H   -5.75380084   0.24092250   1.22301171
| 24> H   -4.93368655   2.33260256   2.29608478
| 25> C   -0.51566364   1.43956243   1.28877424
| 26> C    0.63839333   0.45291495   1.71787958
| 27> H   -0.45785956   2.31247385   1.98328885
| 28> H   -0.35244078   1.77503777   0.25998494
| 29> C    1.78373080   0.54592329   0.73251859
| 30> H    0.22237614  -0.55338132   1.74535728
| 31> H    0.97358079   0.72686158   2.73742252
| 32> C    1.71936884  -0.12764969  -0.53015376
| 33> C    2.79007355   0.14764601  -1.38527915
| 34> C    3.79378172   1.08942466  -1.11053872
| 35> C    2.82689490   1.45353354   1.05065891
| 36> C    3.81228660   1.76132841   0.11539715
| 37> H    2.86490321  -0.42699672  -2.31031203
| 38> H    4.54136686   1.32159298  -1.85901187
| 39> H    2.94842137   1.81398362   2.07533442
| 40> H    4.57063295   2.50816549   0.34740419
| 41> Pd   0.25686566  -1.67664255  -1.03468842
| 42> Br  -1.39244360  -3.69154528  -0.86031818
| 43> P    1.39353870  -2.99288723   0.24502746
| 44> H    0.79322839  -3.55058985   1.38020751
| 45> C    0.45151570  -1.25023441  -3.89793222
| 46> O    1.54252660  -1.61728920  -4.20648660
| 47> O   -0.40995792  -1.67187915  -3.09941671
| 48> O   -0.01463344  -0.07538251  -4.54354467
| 49> H    2.69536845  -2.75341458   0.74285309
| 50> H    1.66739211  -4.14286163  -0.52403747
| 51> H    0.73066038   0.28230867  -5.06820024
| 52> *
| 53>
| 54>                          ****END OF INPUT****

CARTESIAN COORDINATES (ANGSTROEM)
---------------------------------
  C     -2.583336   -0.207905    0.419117
  C     -1.941775    0.971701    1.278262
  C     -3.850240   -0.524886    0.785536
  C     -4.752172    0.379517    1.449401
  C     -4.243942    1.555747    1.966162
  C     -2.869968    1.760522    1.962675
  H     -2.302618   -0.676594   -0.447793
  H     -4.151858   -1.556626    0.653319
  H     -2.495527    2.624940    2.425344
  H     -5.753801    0.240922    1.223012
  H     -4.933687    2.332603    2.296085
  C     -0.515664    1.439562    1.288774
  C      0.638393    0.452915    1.717880
  H     -0.457860    2.312474    1.983289
  H     -0.352441    1.775038    0.259985
  C      1.783731    0.545923    0.732519
  H      0.222376   -0.553381    1.745357
  H      0.973581    0.726862    2.737423
  C      1.719369   -0.127650   -0.530154
  C      2.790074    0.147646   -1.385279
  C      3.793782    1.089425   -1.110539
  C      2.826895    1.453534    1.050659
  C      3.812287    1.761328    0.115397
  H      2.864903   -0.426997   -2.310312
  H      4.541367    1.321593   -1.859012
  H      2.948421    1.813984    2.075334
  H      4.570633    2.508165    0.347404
  Pd     0.256866   -1.676643   -1.034688
  Br    -1.392444   -3.691545   -0.860318
  P      1.393539   -2.992887    0.245027
  H      0.793228   -3.550590    1.380208
  C      0.451516   -1.250234   -3.897932
  O      1.542527   -1.617289   -4.206487
  O     -0.409958   -1.671879   -3.099417
  O     -0.014633   -0.075383   -4.543545
  H      2.695368   -2.753415    0.742853
  H      1.667392   -4.142862   -0.524037
  H      0.730660    0.282309   -5.068200

 Total Charge           Charge          ....   -1
 Multiplicity           Mult            ....    1
 Number of Electrons    NEL             ....  200
 Basis Dimension        Dim             ....  385

ORBITAL ENERGIES
----------------

  NO   OCC          E(Eh)            E(eV)
   0   2.0000    -484.330208    -13179.2950
   1   2.0000     -77.686728     -2113.9633
   2   2.0000     -62.992017     -1714.0999
   3   2.0000     -56.695757     -1542.7700
   4   2.0000     -56.694650     -1542.7398
   5   2.0000     -56.694538     -1542.7368
   6   2.0000     -19.349330      -526.5220
   7   2.0000     -19.311419      -525.4904
   8   2.0000     -19.300868      -525.2033
   9   2.0000     -10.430003      -283.8148
  10   2.0000     -10.383077      -282.5379
  11   2.0000     -10.357412      -281.8395
  12   2.0000     -10.355223      -281.7800
  13   2.0000     -10.354795      -281.7683
  14   2.0000     -10.353749      -281.7398
  15   2.0000     -10.349691      -281.6294
  16   2.0000     -10.349005      -281.6107
  17   2.0000     -10.348743      -281.6036
  18   2.0000     -10.348426      -281.5950
  19   2.0000     -10.347949      -281.5820
  20   2.0000     -10.347625      -281.5732
  21   2.0000     -10.347043      -281.5573
  22   2.0000     -10.342825      -281.4426
  23   2.0000     -10.332260      -281.1551
  24   2.0000      -8.819385      -239.9877
  25   2.0000      -6.760621      -183.9659
  26   2.0000      -6.589360      -179.3056
  27   2.0000      -6.584050      -179.1611
  28   2.0000      -6.583347      -179.1420
  29   2.0000      -4.851726      -132.0222
  30   2.0000      -4.851572      -132.0180
  31   2.0000      -4.850234      -131.9816
  32   2.0000      -3.531696       -96.1023
  33   2.0000      -2.603313       -70.8398
  34   2.0000      -2.602055       -70.8055
  35   2.0000      -2.601439       -70.7888
  36   2.0000      -2.596861       -70.6642
  37   2.0000      -2.596832       -70.6634
  38   2.0000      -2.179482       -59.3067
  39   2.0000      -2.172814       -59.1253
  40   2.0000      -2.146345       -58.4050
  41   2.0000      -1.055968       -28.7343
  42   2.0000      -0.938994       -25.5513
  43   2.0000      -0.935634       -25.4599
  44   2.0000      -0.851955       -23.1829
  45   2.0000      -0.842062       -22.9137
  46   2.0000      -0.786791       -21.4097
  47   2.0000      -0.748786       -20.3755
  48   2.0000      -0.738268       -20.0893
  49   2.0000      -0.720345       -19.6016
  50   2.0000      -0.686296       -18.6751
  51   2.0000      -0.661668       -18.0049
  52   2.0000      -0.635412       -17.2904
  53   2.0000      -0.627812       -17.0836
  54   2.0000      -0.575831       -15.6692
  55   2.0000      -0.562226       -15.2989
  56   2.0000      -0.554215       -15.0810
  57   2.0000      -0.538524       -14.6540
  58   2.0000      -0.496190       -13.5020
  59   2.0000      -0.485440       -13.2095
  60   2.0000      -0.461479       -12.5575
  61   2.0000      -0.442871       -12.0511
  62   2.0000      -0.430853       -11.7241
  63   2.0000      -0.410207       -11.1623
  64   2.0000      -0.403357       -10.9759
  65   2.0000      -0.394492       -10.7347
  66   2.0000      -0.388357       -10.5677
  67   2.0000      -0.381262       -10.3747
  68   2.0000      -0.380089       -10.3427
  69   2.0000      -0.376840       -10.2543
  70   2.0000      -0.376265       -10.2387
  71   2.0000      -0.368859       -10.0372
  72   2.0000      -0.363157        -9.8820
  73   2.0000      -0.356060        -9.6889
  74   2.0000      -0.347687        -9.4610
  75   2.0000      -0.332108        -9.0371
  76   2.0000      -0.330576        -8.9954
  77   2.0000      -0.323597        -8.8055
  78   2.0000      -0.319780        -8.7017
  79   2.0000      -0.310041        -8.4367
  80   2.0000      -0.297626        -8.0988
  81   2.0000      -0.293332        -7.9820
  82   2.0000      -0.276968        -7.5367
  83   2.0000      -0.270223        -7.3531
  84   2.0000      -0.259233        -7.0541
  85   2.0000      -0.253884        -6.9085
  86   2.0000      -0.242213        -6.5910
  87   2.0000      -0.230567        -6.2741
  88   2.0000      -0.206087        -5.6079
  89   2.0000      -0.205471        -5.5912
  90   2.0000      -0.187598        -5.1048
  91   2.0000      -0.182119        -4.9557
  92   2.0000      -0.178231        -4.8499
  93   2.0000      -0.175090        -4.7644
  94   2.0000      -0.168638        -4.5889
  95   2.0000      -0.167830        -4.5669
  96   2.0000      -0.160726        -4.3736
  97   2.0000      -0.155128        -4.2212
  98   2.0000      -0.150515        -4.0957
  99   2.0000      -0.143728        -3.9110
 100   0.0000       0.060352         1.6423
 101   0.0000       0.090782         2.4703
 102   0.0000       0.110704         3.0124
 103   0.0000       0.120004         3.2655
 104   0.0000       0.125644         3.4189

MULLIKEN ATOMIC CHARGES
-----------------------
   0 C :   -0.243825
   1 C :    0.069513
   2 C :   -0.245682
   3 C :   -0.235153
   4 C :   -0.213581
   5 C :   -0.249099
   6 H :    0.295541
   7 H :    0.241351
   8 H :    0.193911
   9 H :    0.208748
  10 H :    0.190907
  11 C :   -0.488035
  12 C :   -0.507796
  13 H :    0.202551
  14 H :    0.278591
  15 C :    0.028463
  16 H :    0.264224
  17 H :    0.202545
  18 C :   -0.110859
  19 C :   -0.289044
  20 C :   -0.223135
  21 C :   -0.250130
  22 C :   -0.234825
  23 H :    0.265426
  24 H :    0.191931
  25 H :    0.179597
  26 H :    0.185125
  27 Pd:    0.150189
  28 Br:   -0.464568
  29 P :   -0.120101
  30 H :    0.124505
  31 C :    0.671439
  32 O :   -0.505029
  33 O :   -0.536186
  34 O :   -0.653962
  35 H :    0.090339
  36 H :    0.146126
  37 H :    0.389988
Sum of atomic charges:   -1.0000000

LOEWDIN ATOMIC CHARGES
----------------------
   0 C :   -0.100795
   1 C :   -0.016874
   2 C :   -0.133038
   3 C :   -0.166157
   4 C :   -0.151706
   5 C :   -0.166216
   6 H :    0.181206
   7 H :    0.144837
   8 H :    0.123900
   9 H :    0.130877
  10 H :    0.123778
  11 C :   -0.216447
  12 C :   -0.215722
  13 H :    0.124531
  14 H :    0.162507
  15 C :   -0.047422
  16 H :    0.149028
  17 H :    0.119221
  18 C :   -0.048197
  19 C :   -0.126113
  20 C :   -0.155839
  21 C :   -0.158412
  22 C :   -0.159321
  23 H :    0.160516
  24 H :    0.124678
  25 H :    0.121282
  26 H :    0.120241
  27 Pd:   -0.766245
  28 Br:   -0.253459
  29 P :    0.441283
  30 H :    0.057989
  31 C :    0.107197
  32 O :   -0.304309
  33 O :   -0.222905
  34 O :   -0.393941
  35 H :    0.035191
  36 H :    0.075923
  37 H :    0.298935

  Mayer bond orders larger than 0.100000
B(  0-C ,  1-C ) :   1.2430 B(  0-C ,  2-C ) :   1.5755 B(  0-C ,  6-H ) :   0.8752
B(  1-C ,  3-C ) :   0.1011 B(  1-C ,  5-C ) :   1.5223 B(  1-C , 11-C ) :   0.9540
B(  2-C ,  3-C ) :   1.2977 B(  2-C ,  7-H ) :   0.9060 B(  3-C ,  4-C ) :   1.5315
B(  3-C ,  9-H ) :   0.9215 B(  4-C ,  5-C ) :   1.3349 B(  4-C , 10-H ) :   0.9273
B(  5-C ,  8-H ) :   0.9199 B( 11-C , 12-C ) :   0.9034 B( 11-C , 13-H ) :   0.9306
B( 11-C , 14-H ) :   0.8900 B( 12-C , 15-C ) :   0.9720 B( 12-C , 16-H ) :   0.8938
B( 12-C , 17-H ) :   0.9327 B( 15-C , 18-C ) :   1.3395 B( 15-C , 21-C ) :   1.3981
B( 18-C , 19-C ) :   1.4194 B( 18-C , 27-Pd) :   0.7011 B( 18-C , 28-Br) :   0.1136
B( 19-C , 20-C ) :   1.3957 B( 19-C , 23-H ) :   0.8787 B( 20-C , 22-C ) :   1.4325
B( 20-C , 24-H ) :   0.9265 B( 21-C , 22-C ) :   1.4257 B( 21-C , 25-H ) :   0.9262
B( 22-C , 26-H ) :   0.9274 B( 27-Pd, 28-Br) :   0.5691 B( 27-Pd, 29-P ) :   0.8344
B( 27-Pd, 33-O ) :   0.4445 B( 28-Br, 29-P ) :   0.1301 B( 29-P , 30-H ) :   0.9181
B( 29-P , 35-H ) :   0.9011 B( 29-P , 36-H ) :   0.9259 B( 31-C , 32-O ) :   1.8590
B( 31-C , 33-O ) :   1.4450 B( 31-C , 34-O ) :   0.9751 B( 34-O , 37-H ) :   0.8005

Dispersion correction           -0.030455261
FINAL SINGLE POINT ENERGY     -3847.653355272351
Dispersion correction            ... done

DIPOLE MOMENT
-------------
                                X             Y             Z
Electronic contribution:     12.25877     -83.44023     -43.36292
Nuclear contribution   :    -11.31883      84.35636      46.43909
                        -----------------------------------------
Total Dipole Moment    :      0.93994       0.91613       3.07616
                        -----------------------------------------
Magnitude (a.u.)       :      3.34448
Magnitude (Debye)      :      8.50100

Rotational constants in cm-1:     0.006729     0.005860     0.004201
Rotational constants in MHz :   201.720510   175.676104   125.933639

                             ****ORCA TERMINATED NORMALLY****
TOTAL RUN TIME: 0 days 0 hours 18 minutes 49 seconds 249 msec
