                         Program Version 5.0.3 -  RELEASE  -
|  1> ! EnGrad PBEh-3c
|  2> %output
|  3> xyzfile=True
|  4> end
|  5> %scf
|  6> maxiter 250
|  7> end
|  8> %output
|  9> Print[P_Hirshfeld] = 1
| 10> end
| 11> % maxcore
| 12> 4000
| 13> *xyz 0 1
| 14> Pd   0.38225316   0.25459599  -0.29642301
| 15> O    1.96104563   1.40283840   0.66492375
| 16> C    1.73137974   2.56455378   0.32476629
| 17> O    0.59108174   2.86385146  -0.18872411
| 18> C    2.70678882   3.66025211   0.60293997
| 19> H    2.24185376   4.54951763   1.02653302
| 20> H    3.16245430   3.95888964  -0.34366881
| 21> H    3.50041619   3.32901329   1.26689619
| 22> N   -1.36331515  -0.71285840  -1.00822987
| 23> C   -1.23079296  -1.78905148  -2.01339791
| 24> H   -0.75512880  -1.47978020  -2.93706981
| 25> H   -2.18794353  -2.17921636  -2.39916935
| 26> H   -0.64562849  -2.60549737  -1.60380405
| 27> C   -2.11923155   0.32230980  -1.73130459
| 28> H   -2.26586035   1.19362927  -1.10525968
| 29> H   -3.11174494  -0.01190929  -2.06090548
| 30> H   -1.59527093   0.66652305  -2.61684974
| 31> C   -1.54055013  -1.08880376   1.41626628
| 32> C   -1.13057902  -2.13291273   2.23836888
| 33> C   -1.00379601  -1.98404907   3.61405200
| 34> C   -1.04700107  -0.71797639   4.16313074
| 35> C   -1.47152966   0.33926090   3.37179072
| 36> C   -1.65973200   0.16768900   2.00982777
| 37> H   -0.89403918  -0.59045170   5.22551306
| 38> H   -1.67063517   1.26104224   3.90077723
| 39> H   -1.26504265  -3.15658421   1.90780087
| 40> H   -0.87646793  -2.84956274   4.25214765
| 41> H   -2.03714492   3.46983809   1.39494788
| 42> C   -2.19882561  -1.27191359   0.08118606
| 43> H   -3.20283129  -0.82732061   0.15153246
| 44> H   -2.45775039  -2.33519711  -0.00389922
| 45> O    1.88758450  -0.46815930  -1.26054498
| 46> C    2.28425122  -0.38552433  -2.46711433
| 47> O    1.45002211  -0.36700998  -3.34570509
| 48> C    3.67226851  -0.69844512  -2.96979348
| 49> H    3.79079626  -1.76057472  -3.18239846
| 50> H    4.43276857  -0.45834133  -2.22025202
| 51> H    3.93587208  -0.13266488  -3.85887199
| 52> *
| 53>
| 54>                          ****END OF INPUT****

CARTESIAN COORDINATES (ANGSTROEM)
---------------------------------
  Pd     0.382253    0.254596   -0.296423
  O      1.961046    1.402838    0.664924
  C      1.731380    2.564554    0.324766
  O      0.591082    2.863851   -0.188724
  C      2.706789    3.660252    0.602940
  H      2.241854    4.549518    1.026533
  H      3.162454    3.958890   -0.343669
  H      3.500416    3.329013    1.266896
  N     -1.363315   -0.712858   -1.008230
  C     -1.230793   -1.789051   -2.013398
  H     -0.755129   -1.479780   -2.937070
  H     -2.187944   -2.179216   -2.399169
  H     -0.645628   -2.605497   -1.603804
  C     -2.119232    0.322310   -1.731305
  H     -2.265860    1.193629   -1.105260
  H     -3.111745   -0.011909   -2.060905
  H     -1.595271    0.666523   -2.616850
  C     -1.540550   -1.088804    1.416266
  C     -1.130579   -2.132913    2.238369
  C     -1.003796   -1.984049    3.614052
  C     -1.047001   -0.717976    4.163131
  C     -1.471530    0.339261    3.371791
  C     -1.659732    0.167689    2.009828
  H     -0.894039   -0.590452    5.225513
  H     -1.670635    1.261042    3.900777
  H     -1.265043   -3.156584    1.907801
  H     -0.876468   -2.849563    4.252148
  H     -2.037145    3.469838    1.394948
  C     -2.198826   -1.271914    0.081186
  H     -3.202831   -0.827321    0.151532
  H     -2.457750   -2.335197   -0.003899
  O      1.887584   -0.468159   -1.260545
  C      2.284251   -0.385524   -2.467114
  O      1.450022   -0.367010   -3.345705
  C      3.672269   -0.698445   -2.969793
  H      3.790796   -1.760575   -3.182398
  H      4.432769   -0.458341   -2.220252
  H      3.935872   -0.132665   -3.858872

 Total Charge           Charge          ....    0
 Multiplicity           Mult            ....    1
 Number of Electrons    NEL             ....  154
 Basis Dimension        Dim             ....  339

ORBITAL ENERGIES
----------------

  NO   OCC          E(Eh)            E(eV)
   0   2.0000     -19.477164      -530.0006
   1   2.0000     -19.474470      -529.9273
   2   2.0000     -19.422969      -528.5259
   3   2.0000     -19.411354      -528.2098
   4   2.0000     -14.739215      -401.0744
   5   2.0000     -10.528432      -286.4932
   6   2.0000     -10.524479      -286.3856
   7   2.0000     -10.520006      -286.2639
   8   2.0000     -10.518176      -286.2141
   9   2.0000     -10.503773      -285.8222
  10   2.0000     -10.485087      -285.3137
  11   2.0000     -10.484837      -285.3069
  12   2.0000     -10.482742      -285.2499
  13   2.0000     -10.480161      -285.1797
  14   2.0000     -10.479824      -285.1705
  15   2.0000     -10.477608      -285.1102
  16   2.0000     -10.416671      -283.4520
  17   2.0000     -10.415632      -283.4238
  18   2.0000      -3.673322       -99.9562
  19   2.0000      -2.322975       -63.2114
  20   2.0000      -2.315998       -63.0215
  21   2.0000      -2.282227       -62.1026
  22   2.0000      -1.160616       -31.5820
  23   2.0000      -1.156700       -31.4754
  24   2.0000      -1.092944       -29.7405
  25   2.0000      -1.043778       -28.4027
  26   2.0000      -1.026850       -27.9420
  27   2.0000      -0.996406       -27.1136
  28   2.0000      -0.905090       -24.6287
  29   2.0000      -0.863414       -23.4947
  30   2.0000      -0.822726       -22.3875
  31   2.0000      -0.815143       -22.1812
  32   2.0000      -0.802356       -21.8332
  33   2.0000      -0.795175       -21.6378
  34   2.0000      -0.734889       -19.9973
  35   2.0000      -0.710810       -19.3421
  36   2.0000      -0.686711       -18.6864
  37   2.0000      -0.612909       -16.6781
  38   2.0000      -0.603825       -16.4309
  39   2.0000      -0.587469       -15.9859
  40   2.0000      -0.582548       -15.8519
  41   2.0000      -0.579871       -15.7791
  42   2.0000      -0.567918       -15.4538
  43   2.0000      -0.546013       -14.8578
  44   2.0000      -0.530841       -14.4449
  45   2.0000      -0.521687       -14.1958
  46   2.0000      -0.510172       -13.8825
  47   2.0000      -0.504120       -13.7178
  48   2.0000      -0.498702       -13.5704
  49   2.0000      -0.492946       -13.4137
  50   2.0000      -0.489118       -13.3096
  51   2.0000      -0.486869       -13.2484
  52   2.0000      -0.482013       -13.1162
  53   2.0000      -0.478761       -13.0277
  54   2.0000      -0.461195       -12.5498
  55   2.0000      -0.449674       -12.2363
  56   2.0000      -0.440731       -11.9929
  57   2.0000      -0.437680       -11.9099
  58   2.0000      -0.433209       -11.7882
  59   2.0000      -0.429025       -11.6744
  60   2.0000      -0.425504       -11.5786
  61   2.0000      -0.421598       -11.4723
  62   2.0000      -0.412231       -11.2174
  63   2.0000      -0.406486       -11.0610
  64   2.0000      -0.382188       -10.3999
  65   2.0000      -0.368455       -10.0262
  66   2.0000      -0.354195        -9.6381
  67   2.0000      -0.342371        -9.3164
  68   2.0000      -0.333500        -9.0750
  69   2.0000      -0.323793        -8.8109
  70   2.0000      -0.322347        -8.7715
  71   2.0000      -0.308164        -8.3856
  72   2.0000      -0.292836        -7.9685
  73   2.0000      -0.289499        -7.8777
  74   2.0000      -0.266625        -7.2552
  75   2.0000      -0.264204        -7.1894
  76   2.0000      -0.259095        -7.0503
  77   0.0000      -0.170484        -4.6391
  78   0.0000      -0.094062        -2.5596
  79   0.0000      -0.023424        -0.6374
  80   0.0000      -0.011133        -0.3029
  81   0.0000       0.060223         1.6387

MULLIKEN ATOMIC CHARGES
-----------------------
   0 Pd:    0.525790
   1 O :   -0.446584
   2 C :    0.590668
   3 O :   -0.530726
   4 C :   -0.751990
   5 H :    0.247027
   6 H :    0.246137
   7 H :    0.234979
   8 N :   -0.484124
   9 C :   -0.556433
  10 H :    0.320295
  11 H :    0.222759
  12 H :    0.261753
  13 C :   -0.570280
  14 H :    0.294220
  15 H :    0.236113
  16 H :    0.307736
  17 C :   -0.068213
  18 C :   -0.200190
  19 C :   -0.242074
  20 C :   -0.184536
  21 C :   -0.286323
  22 C :    0.052893
  23 H :    0.243516
  24 H :    0.259524
  25 H :    0.218086
  26 H :    0.244976
  27 H :    0.063186
  28 C :   -0.309412
  29 H :    0.274207
  30 H :    0.260353
  31 O :   -0.526721
  32 C :    0.543497
  33 O :   -0.469839
  34 C :   -0.738591
  35 H :    0.244495
  36 H :    0.223013
  37 H :    0.250815
Sum of atomic charges:    0.0000000

LOEWDIN ATOMIC CHARGES
----------------------
   0 Pd:   -0.220411
   1 O :   -0.136058
   2 C :    0.132273
   3 O :   -0.308527
   4 C :   -0.379855
   5 H :    0.150277
   6 H :    0.155796
   7 H :    0.139948
   8 N :   -0.041790
   9 C :   -0.244874
  10 H :    0.168986
  11 H :    0.121535
  12 H :    0.145798
  13 C :   -0.240224
  14 H :    0.159387
  15 H :    0.126813
  16 H :    0.168175
  17 C :   -0.063292
  18 C :   -0.106220
  19 C :   -0.120951
  20 C :   -0.113408
  21 C :   -0.125289
  22 C :    0.021538
  23 H :    0.147347
  24 H :    0.156779
  25 H :    0.146042
  26 H :    0.146824
  27 H :    0.065674
  28 C :   -0.101478
  29 H :    0.157876
  30 H :    0.148633
  31 O :   -0.138982
  32 C :    0.109399
  33 O :   -0.284494
  34 C :   -0.376658
  35 H :    0.151900
  36 H :    0.130935
  37 H :    0.150575

  Mayer bond orders larger than 0.100000
B(  0-Pd,  1-O ) :   0.5775 B(  0-Pd,  3-O ) :   0.2420 B(  0-Pd,  8-N ) :   0.4324
B(  0-Pd, 22-C ) :   0.1415 B(  0-Pd, 27-H ) :   0.1001 B(  0-Pd, 31-O ) :   0.6660
B(  1-O ,  2-C ) :   1.4338 B(  2-C ,  3-O ) :   1.6426 B(  2-C ,  4-C ) :   0.9385
B(  4-C ,  5-H ) :   0.9155 B(  4-C ,  6-H ) :   0.9117 B(  4-C ,  7-H ) :   0.9139
B(  8-N ,  9-C ) :   0.9138 B(  8-N , 13-C ) :   0.9077 B(  8-N , 28-C ) :   0.8837
B(  9-C , 10-H ) :   0.8660 B(  9-C , 11-H ) :   0.9006 B(  9-C , 12-H ) :   0.9100
B( 13-C , 14-H ) :   0.8854 B( 13-C , 15-H ) :   0.9001 B( 13-C , 16-H ) :   0.8827
B( 17-C , 18-C ) :   1.3857 B( 17-C , 22-C ) :   1.3917 B( 17-C , 28-C ) :   0.9432
B( 18-C , 19-C ) :   1.4411 B( 18-C , 25-H ) :   0.9120 B( 19-C , 20-C ) :   1.4251
B( 19-C , 26-H ) :   0.9069 B( 20-C , 21-C ) :   1.3960 B( 20-C , 23-H ) :   0.9051
B( 21-C , 22-C ) :   1.4562 B( 21-C , 24-H ) :   0.9034 B( 22-C , 27-H ) :   0.6834
B( 28-C , 29-H ) :   0.8952 B( 28-C , 30-H ) :   0.9098 B( 31-O , 32-C ) :   1.2778
B( 32-C , 33-O ) :   1.8555 B( 32-C , 34-C ) :   0.9392 B( 34-C , 35-H ) :   0.9133
B( 34-C , 36-H ) :   0.9130 B( 34-C , 37-H ) :   0.9160

Dispersion correction           -0.025573434
FINAL SINGLE POINT ENERGY      -988.183842183827
Dispersion correction            ... done

DIPOLE MOMENT
-------------
                                X             Y             Z
Electronic contribution:     14.41918      10.35551     -13.59078
Nuclear contribution   :    -16.60215     -11.99039      15.10641
                        -----------------------------------------
Total Dipole Moment    :     -2.18297      -1.63488       1.51563
                        -----------------------------------------
Magnitude (a.u.)       :      3.12015
Magnitude (Debye)      :      7.93079

Rotational constants in cm-1:     0.013488     0.008430     0.006608
Rotational constants in MHz :   404.374408   252.722747   198.089578

                             ****ORCA TERMINATED NORMALLY****
TOTAL RUN TIME: 0 days 0 hours 14 minutes 55 seconds 781 msec
