                         Program Version 5.0.3 -  RELEASE  -
|  1> ! EnGrad PBEh-3c
|  2> %output
|  3> xyzfile=True
|  4> end
|  5> %scf
|  6> maxiter 250
|  7> end
|  8> %output
|  9> Print[P_Hirshfeld] = 1
| 10> end
| 11> % maxcore
| 12> 4000
| 13> *xyz 0 1
| 14> Pd   0.45903334   0.32521701  -0.14165066
| 15> O    1.88302069   1.29395978   0.60610834
| 16> C    1.60233714   2.58363098   0.34528735
| 17> O    0.61171426   2.91990871  -0.22014356
| 18> C    2.73614569   3.62273691   0.61867301
| 19> H    2.27145556   4.52171036   1.03298445
| 20> H    3.19863073   3.94359741  -0.32491527
| 21> H    3.53758139   3.29301608   1.28576910
| 22> N   -1.42081956  -0.77419053  -1.07696391
| 23> C   -1.18997157  -1.91914883  -1.98676951
| 24> H   -0.59275979  -1.55214418  -2.82367084
| 25> H   -2.19932329  -2.27361355  -2.24505739
| 26> H   -0.65595556  -2.70204385  -1.44400115
| 27> C   -2.09953237   0.32651213  -1.79671691
| 28> H   -2.21505103   1.21126521  -1.16345349
| 29> H   -3.07507060  -0.06823653  -2.10800705
| 30> H   -1.48349480   0.54126381  -2.67744291
| 31> C   -1.64587718  -1.02580828   1.47529902
| 32> C   -1.46299970  -2.17334577   2.30577479
| 33> C   -1.07355156  -2.00475885   3.61981756
| 34> C   -1.09223569  -0.74499901   4.18905253
| 35> C   -1.30786723   0.41167021   3.41846866
| 36> C   -1.48067354   0.19224216   2.09922349
| 37> H   -0.87283682  -0.59504956   5.23081041
| 38> H   -1.41703169   1.38554301   3.85018317
| 39> H   -1.54631793  -3.16731425   1.88124446
| 40> H   -1.05128252  -2.85817959   4.28223259
| 41> H   -1.87830284   3.28755175   1.32650947
| 42> C   -2.23254494  -1.21425187   0.10312313
| 43> H   -3.14669941  -0.62107324   0.11064331
| 44> H   -2.50131072  -2.26058159  -0.06143696
| 45> O    2.11804500  -0.30136465  -1.26636659
| 46> C    2.13983137  -0.60252311  -2.59081739
| 47> O    1.35352335  -0.76847609  -3.38965941
| 48> C    3.69640490  -0.53760291  -2.95303587
| 49> H    3.89749537  -1.53660734  -3.35747268
| 50> H    4.45489617  -0.23764068  -2.25776190
| 51> H    3.69680389   0.07384448  -3.88016529
| 52> *
| 53>
| 54>                          ****END OF INPUT****

CARTESIAN COORDINATES (ANGSTROEM)
---------------------------------
  Pd     0.459033    0.325217   -0.141651
  O      1.883021    1.293960    0.606108
  C      1.602337    2.583631    0.345287
  O      0.611714    2.919909   -0.220144
  C      2.736146    3.622737    0.618673
  H      2.271456    4.521710    1.032984
  H      3.198631    3.943597   -0.324915
  H      3.537581    3.293016    1.285769
  N     -1.420820   -0.774191   -1.076964
  C     -1.189972   -1.919149   -1.986770
  H     -0.592760   -1.552144   -2.823671
  H     -2.199323   -2.273614   -2.245057
  H     -0.655956   -2.702044   -1.444001
  C     -2.099532    0.326512   -1.796717
  H     -2.215051    1.211265   -1.163453
  H     -3.075071   -0.068237   -2.108007
  H     -1.483495    0.541264   -2.677443
  C     -1.645877   -1.025808    1.475299
  C     -1.463000   -2.173346    2.305775
  C     -1.073552   -2.004759    3.619818
  C     -1.092236   -0.744999    4.189053
  C     -1.307867    0.411670    3.418469
  C     -1.480674    0.192242    2.099223
  H     -0.872837   -0.595050    5.230810
  H     -1.417032    1.385543    3.850183
  H     -1.546318   -3.167314    1.881244
  H     -1.051283   -2.858180    4.282233
  H     -1.878303    3.287552    1.326509
  C     -2.232545   -1.214252    0.103123
  H     -3.146699   -0.621073    0.110643
  H     -2.501311   -2.260582   -0.061437
  O      2.118045   -0.301365   -1.266367
  C      2.139831   -0.602523   -2.590817
  O      1.353523   -0.768476   -3.389659
  C      3.696405   -0.537603   -2.953036
  H      3.897495   -1.536607   -3.357473
  H      4.454896   -0.237641   -2.257762
  H      3.696804    0.073844   -3.880165

 Total Charge           Charge          ....    0
 Multiplicity           Mult            ....    1
 Number of Electrons    NEL             ....  154
 Basis Dimension        Dim             ....  339

ORBITAL ENERGIES
----------------

  NO   OCC          E(Eh)            E(eV)
   0   2.0000     -19.494340      -530.4680
   1   2.0000     -19.466313      -529.7053
   2   2.0000     -19.462618      -529.6047
   3   2.0000     -19.458650      -529.4968
   4   2.0000     -14.703782      -400.1103
   5   2.0000     -10.552275      -287.1420
   6   2.0000     -10.536561      -286.7144
   7   2.0000     -10.529852      -286.5318
   8   2.0000     -10.510090      -285.9941
   9   2.0000     -10.509823      -285.9868
  10   2.0000     -10.493511      -285.5429
  11   2.0000     -10.489111      -285.4232
  12   2.0000     -10.487425      -285.3773
  13   2.0000     -10.481278      -285.2101
  14   2.0000     -10.480049      -285.1766
  15   2.0000     -10.473398      -284.9957
  16   2.0000     -10.428903      -283.7849
  17   2.0000     -10.406318      -283.1703
  18   2.0000      -3.654283       -99.4381
  19   2.0000      -2.309045       -62.8323
  20   2.0000      -2.290618       -62.3309
  21   2.0000      -2.267606       -61.7047
  22   2.0000      -1.183544       -32.2059
  23   2.0000      -1.177884       -32.0518
  24   2.0000      -1.071708       -29.1627
  25   2.0000      -1.062371       -28.9086
  26   2.0000      -1.046777       -28.4843
  27   2.0000      -1.001951       -27.2645
  28   2.0000      -0.901281       -24.5251
  29   2.0000      -0.875655       -23.8278
  30   2.0000      -0.814187       -22.1552
  31   2.0000      -0.810189       -22.0464
  32   2.0000      -0.798283       -21.7224
  33   2.0000      -0.771009       -20.9802
  34   2.0000      -0.721943       -19.6451
  35   2.0000      -0.712768       -19.3954
  36   2.0000      -0.679872       -18.5002
  37   2.0000      -0.612960       -16.6795
  38   2.0000      -0.604035       -16.4366
  39   2.0000      -0.576528       -15.6881
  40   2.0000      -0.574000       -15.6193
  41   2.0000      -0.564202       -15.3527
  42   2.0000      -0.563758       -15.3406
  43   2.0000      -0.543177       -14.7806
  44   2.0000      -0.532134       -14.4801
  45   2.0000      -0.530871       -14.4457
  46   2.0000      -0.515487       -14.0271
  47   2.0000      -0.512009       -13.9325
  48   2.0000      -0.501775       -13.6540
  49   2.0000      -0.499064       -13.5802
  50   2.0000      -0.497682       -13.5426
  51   2.0000      -0.489499       -13.3199
  52   2.0000      -0.484944       -13.1960
  53   2.0000      -0.478914       -13.0319
  54   2.0000      -0.467184       -12.7127
  55   2.0000      -0.452395       -12.3103
  56   2.0000      -0.446563       -12.1516
  57   2.0000      -0.442509       -12.0413
  58   2.0000      -0.441199       -12.0056
  59   2.0000      -0.436336       -11.8733
  60   2.0000      -0.434300       -11.8179
  61   2.0000      -0.426162       -11.5965
  62   2.0000      -0.398435       -10.8420
  63   2.0000      -0.397697       -10.8219
  64   2.0000      -0.378475       -10.2988
  65   2.0000      -0.361622        -9.8402
  66   2.0000      -0.341795        -9.3007
  67   2.0000      -0.340405        -9.2629
  68   2.0000      -0.337169        -9.1748
  69   2.0000      -0.329374        -8.9627
  70   2.0000      -0.324037        -8.8175
  71   2.0000      -0.319932        -8.7058
  72   2.0000      -0.306891        -8.3509
  73   2.0000      -0.300831        -8.1860
  74   2.0000      -0.289261        -7.8712
  75   2.0000      -0.269406        -7.3309
  76   2.0000      -0.261792        -7.1237
  77   0.0000      -0.158952        -4.3253
  78   0.0000      -0.072568        -1.9747
  79   0.0000      -0.028124        -0.7653
  80   0.0000      -0.012480        -0.3396
  81   0.0000       0.058424         1.5898

MULLIKEN ATOMIC CHARGES
-----------------------
   0 Pd:    0.427252
   1 O :   -0.518894
   2 C :    0.592071
   3 O :   -0.405573
   4 C :   -0.751061
   5 H :    0.237166
   6 H :    0.253024
   7 H :    0.241628
   8 N :   -0.457701
   9 C :   -0.533451
  10 H :    0.310112
  11 H :    0.202217
  12 H :    0.247312
  13 C :   -0.536020
  14 H :    0.279965
  15 H :    0.218435
  16 H :    0.278029
  17 C :    0.014200
  18 C :   -0.254578
  19 C :   -0.186420
  20 C :   -0.238724
  21 C :   -0.257367
  22 C :    0.033146
  23 H :    0.248207
  24 H :    0.275504
  25 H :    0.242067
  26 H :    0.233941
  27 H :    0.024692
  28 C :   -0.312312
  29 H :    0.259630
  30 H :    0.245864
  31 O :   -0.525563
  32 C :    0.533619
  33 O :   -0.366756
  34 C :   -0.744470
  35 H :    0.218587
  36 H :    0.251662
  37 H :    0.220559
Sum of atomic charges:    0.0000000

LOEWDIN ATOMIC CHARGES
----------------------
   0 Pd:   -0.294442
   1 O :   -0.148564
   2 C :    0.171035
   3 O :   -0.176556
   4 C :   -0.385803
   5 H :    0.145347
   6 H :    0.156098
   7 H :    0.141682
   8 N :   -0.110119
   9 C :   -0.244205
  10 H :    0.168557
  11 H :    0.112042
  12 H :    0.140884
  13 C :   -0.237119
  14 H :    0.157854
  15 H :    0.117373
  16 H :    0.158726
  17 C :   -0.052757
  18 C :   -0.102080
  19 C :   -0.123441
  20 C :   -0.108379
  21 C :   -0.123221
  22 C :    0.054899
  23 H :    0.148906
  24 H :    0.166817
  25 H :    0.149678
  26 H :    0.149354
  27 H :    0.029570
  28 C :   -0.104303
  29 H :    0.153347
  30 H :    0.142069
  31 O :   -0.212349
  32 C :    0.116314
  33 O :   -0.171692
  34 C :   -0.401467
  35 H :    0.135904
  36 H :    0.141624
  37 H :    0.138419

  Mayer bond orders larger than 0.100000
B(  0-Pd,  1-O ) :   0.7477 B(  0-Pd,  3-O ) :   0.1617 B(  0-Pd,  8-N ) :   0.3433
B(  0-Pd, 22-C ) :   0.1589 B(  0-Pd, 27-H ) :   0.1410 B(  0-Pd, 31-O ) :   0.6959
B(  1-O ,  2-C ) :   1.1699 B(  2-C ,  3-O ) :   1.8604 B(  2-C ,  4-C ) :   0.9309
B(  4-C ,  5-H ) :   0.9154 B(  4-C ,  6-H ) :   0.9103 B(  4-C ,  7-H ) :   0.9121
B(  8-N ,  9-C ) :   0.9227 B(  8-N , 13-C ) :   0.9221 B(  8-N , 28-C ) :   0.8964
B(  9-C , 10-H ) :   0.8587 B(  9-C , 11-H ) :   0.9082 B(  9-C , 12-H ) :   0.9139
B( 13-C , 14-H ) :   0.8907 B( 13-C , 15-H ) :   0.9062 B( 13-C , 16-H ) :   0.8975
B( 17-C , 18-C ) :   1.3780 B( 17-C , 22-C ) :   1.4000 B( 17-C , 28-C ) :   0.9391
B( 18-C , 19-C ) :   1.4353 B( 18-C , 21-C ) :   0.1001 B( 18-C , 25-H ) :   0.9024
B( 19-C , 20-C ) :   1.4227 B( 19-C , 26-H ) :   0.9141 B( 20-C , 21-C ) :   1.3816
B( 20-C , 23-H ) :   0.9030 B( 21-C , 22-C ) :   1.4620 B( 21-C , 24-H ) :   0.8966
B( 22-C , 27-H ) :   0.6613 B( 28-C , 29-H ) :   0.8991 B( 28-C , 30-H ) :   0.9139
B( 31-O , 32-C ) :   1.2157 B( 31-O , 33-O ) :   0.1036 B( 32-C , 33-O ) :   2.0074
B( 32-C , 34-C ) :   0.8849 B( 34-C , 35-H ) :   0.9192 B( 34-C , 36-H ) :   0.9121
B( 34-C , 37-H ) :   0.9202

Dispersion correction           -0.025500806
FINAL SINGLE POINT ENERGY      -988.200663763976
Dispersion correction            ... done

DIPOLE MOMENT
-------------
                                X             Y             Z
Electronic contribution:     18.73860      15.01037      -5.10579
Nuclear contribution   :    -20.84934     -16.15438       6.80070
                        -----------------------------------------
Total Dipole Moment    :     -2.11074      -1.14401       1.69491
                        -----------------------------------------
Magnitude (a.u.)       :      2.93883
Magnitude (Debye)      :      7.46991

Rotational constants in cm-1:     0.013248     0.008386     0.006458
Rotational constants in MHz :   397.163078   251.408641   193.620762

                             ****ORCA TERMINATED NORMALLY****
TOTAL RUN TIME: 0 days 0 hours 22 minutes 42 seconds 581 msec
