                         Program Version 5.0.3 -  RELEASE  -
|  1> ! EnGrad PBEh-3c
|  2> %output
|  3> xyzfile=True
|  4> end
|  5> %scf
|  6> maxiter 250
|  7> end
|  8> %output
|  9> Print[P_Hirshfeld] = 1
| 10> end
| 11> % maxcore
| 12> 4000
| 13> *xyz 0 1
| 14> Pd   0.48036414   0.30203703  -0.09592125
| 15> O    1.81626753   1.36894584   0.60272891
| 16> C    1.61996294   2.53032510   0.35696514
| 17> O    0.57885528   2.97547420  -0.25170362
| 18> C    2.72516541   3.56999215   0.63629452
| 19> H    2.29589860   4.49507881   1.03943248
| 20> H    3.21067343   3.91272948  -0.30213099
| 21> H    3.55235318   3.25778379   1.29552110
| 22> N   -1.40101098  -0.77682646  -1.04430942
| 23> C   -1.16923648  -1.97395541  -1.93310379
| 24> H   -0.47143593  -1.61868667  -2.74163269
| 25> H   -2.19882295  -2.36597092  -2.15516209
| 26> H   -0.66082037  -2.76984099  -1.34002400
| 27> C   -2.06816662   0.29352301  -1.84137286
| 28> H   -2.17913864   1.21189588  -1.21213248
| 29> H   -3.06354554  -0.08660118  -2.15542648
| 30> H   -1.41394765   0.46511954  -2.71512206
| 31> C   -1.73311892  -1.01098556   1.52363238
| 32> C   -1.68149017  -2.16720697   2.33051463
| 33> C   -1.18343244  -2.01967354   3.63925499
| 34> C   -1.09861933  -0.73615784   4.21310906
| 35> C   -1.18791851   0.45592188   3.47420655
| 36> C   -1.35640580   0.23286036   2.11922744
| 37> H   -0.86739047  -0.60272605   5.25283084
| 38> H   -1.21373715   1.50992838   3.82555470
| 39> H   -1.75082557  -3.16962371   1.84620634
| 40> H   -1.14338774  -2.87128816   4.29719025
| 41> H   -1.75308860   3.05990164   1.28330668
| 42> C   -2.25049626  -1.14547966   0.07159056
| 43> H   -3.11707519  -0.47120347   0.06732444
| 44> H   -2.52312568  -2.20498534  -0.09536476
| 45> O    2.25041783  -0.25758960  -1.30348205
| 46> C    2.14790732  -0.65053050  -2.59298126
| 47> O    1.19890771  -1.05665282  -3.46077165
| 48> C    3.65530662  -0.45682462  -3.00289108
| 49> H    3.99830448  -1.38554881  -3.47480153
| 50> H    4.45708675  -0.08065197  -2.26615083
| 51> H    3.53018671   0.22188537  -3.86089088
| 52> *
| 53>
| 54>                          ****END OF INPUT****

CARTESIAN COORDINATES (ANGSTROEM)
---------------------------------
  Pd     0.480364    0.302037   -0.095921
  O      1.816268    1.368946    0.602729
  C      1.619963    2.530325    0.356965
  O      0.578855    2.975474   -0.251704
  C      2.725165    3.569992    0.636295
  H      2.295899    4.495079    1.039432
  H      3.210673    3.912729   -0.302131
  H      3.552353    3.257784    1.295521
  N     -1.401011   -0.776826   -1.044309
  C     -1.169236   -1.973955   -1.933104
  H     -0.471436   -1.618687   -2.741633
  H     -2.198823   -2.365971   -2.155162
  H     -0.660820   -2.769841   -1.340024
  C     -2.068167    0.293523   -1.841373
  H     -2.179139    1.211896   -1.212132
  H     -3.063546   -0.086601   -2.155426
  H     -1.413948    0.465120   -2.715122
  C     -1.733119   -1.010986    1.523632
  C     -1.681490   -2.167207    2.330515
  C     -1.183432   -2.019674    3.639255
  C     -1.098619   -0.736158    4.213109
  C     -1.187919    0.455922    3.474207
  C     -1.356406    0.232860    2.119227
  H     -0.867390   -0.602726    5.252831
  H     -1.213737    1.509928    3.825555
  H     -1.750826   -3.169624    1.846206
  H     -1.143388   -2.871288    4.297190
  H     -1.753089    3.059902    1.283307
  C     -2.250496   -1.145480    0.071591
  H     -3.117075   -0.471203    0.067324
  H     -2.523126   -2.204985   -0.095365
  O      2.250418   -0.257590   -1.303482
  C      2.147907   -0.650530   -2.592981
  O      1.198908   -1.056653   -3.460772
  C      3.655307   -0.456825   -3.002891
  H      3.998304   -1.385549   -3.474802
  H      4.457087   -0.080652   -2.266151
  H      3.530187    0.221885   -3.860891

 Total Charge           Charge          ....    0
 Multiplicity           Mult            ....    1
 Number of Electrons    NEL             ....  154
 Basis Dimension        Dim             ....  339

ORBITAL ENERGIES
----------------

  NO   OCC          E(Eh)            E(eV)
   0   2.0000     -19.524715      -531.2945
   1   2.0000     -19.496581      -530.5289
   2   2.0000     -19.456719      -529.4442
   3   2.0000     -19.442365      -529.0536
   4   2.0000     -14.706257      -400.1776
   5   2.0000     -10.566690      -287.5343
   6   2.0000     -10.553949      -287.1876
   7   2.0000     -10.538162      -286.7580
   8   2.0000     -10.514836      -286.1232
   9   2.0000     -10.509604      -285.9809
  10   2.0000     -10.500129      -285.7230
  11   2.0000     -10.498460      -285.6776
  12   2.0000     -10.491694      -285.4935
  13   2.0000     -10.490536      -285.4620
  14   2.0000     -10.483833      -285.2796
  15   2.0000     -10.472111      -284.9606
  16   2.0000     -10.430782      -283.8360
  17   2.0000     -10.424918      -283.6765
  18   2.0000      -3.672430       -99.9319
  19   2.0000      -2.329956       -63.4013
  20   2.0000      -2.305644       -62.7398
  21   2.0000      -2.285948       -62.2038
  22   2.0000      -1.218881       -33.1674
  23   2.0000      -1.104777       -30.0625
  24   2.0000      -1.065367       -28.9901
  25   2.0000      -1.057312       -28.7709
  26   2.0000      -1.030581       -28.0435
  27   2.0000      -0.992003       -26.9938
  28   2.0000      -0.893686       -24.3184
  29   2.0000      -0.867310       -23.6007
  30   2.0000      -0.807504       -21.9733
  31   2.0000      -0.801346       -21.8057
  32   2.0000      -0.800827       -21.7916
  33   2.0000      -0.778747       -21.1908
  34   2.0000      -0.713560       -19.4170
  35   2.0000      -0.709377       -19.3031
  36   2.0000      -0.677246       -18.4288
  37   2.0000      -0.642293       -17.4777
  38   2.0000      -0.605667       -16.4810
  39   2.0000      -0.589161       -16.0319
  40   2.0000      -0.570356       -15.5202
  41   2.0000      -0.561090       -15.2680
  42   2.0000      -0.554557       -15.0903
  43   2.0000      -0.543683       -14.7944
  44   2.0000      -0.539106       -14.6698
  45   2.0000      -0.531015       -14.4497
  46   2.0000      -0.527872       -14.3641
  47   2.0000      -0.519997       -14.1498
  48   2.0000      -0.496192       -13.5021
  49   2.0000      -0.491253       -13.3677
  50   2.0000      -0.483975       -13.1696
  51   2.0000      -0.476737       -12.9727
  52   2.0000      -0.471670       -12.8348
  53   2.0000      -0.467292       -12.7157
  54   2.0000      -0.458941       -12.4884
  55   2.0000      -0.448111       -12.1937
  56   2.0000      -0.440361       -11.9828
  57   2.0000      -0.436571       -11.8797
  58   2.0000      -0.436481       -11.8773
  59   2.0000      -0.433859       -11.8059
  60   2.0000      -0.426570       -11.6076
  61   2.0000      -0.418737       -11.3944
  62   2.0000      -0.394741       -10.7414
  63   2.0000      -0.392788       -10.6883
  64   2.0000      -0.371807       -10.1174
  65   2.0000      -0.360172        -9.8008
  66   2.0000      -0.359044        -9.7701
  67   2.0000      -0.352707        -9.5977
  68   2.0000      -0.334456        -9.1010
  69   2.0000      -0.331179        -9.0119
  70   2.0000      -0.323270        -8.7966
  71   2.0000      -0.315160        -8.5759
  72   2.0000      -0.313874        -8.5410
  73   2.0000      -0.302521        -8.2320
  74   2.0000      -0.294226        -8.0063
  75   2.0000      -0.277966        -7.5639
  76   2.0000      -0.270532        -7.3615
  77   0.0000      -0.156279        -4.2526
  78   0.0000      -0.093567        -2.5461
  79   0.0000      -0.026917        -0.7324
  80   0.0000      -0.024559        -0.6683
  81   0.0000       0.046042         1.2529

MULLIKEN ATOMIC CHARGES
-----------------------
   0 Pd:    0.483994
   1 O :   -0.435475
   2 C :    0.580559
   3 O :   -0.508880
   4 C :   -0.755807
   5 H :    0.245668
   6 H :    0.253765
   7 H :    0.230054
   8 N :   -0.451658
   9 C :   -0.558863
  10 H :    0.337869
  11 H :    0.198976
  12 H :    0.235498
  13 C :   -0.534254
  14 H :    0.272024
  15 H :    0.223020
  16 H :    0.281156
  17 C :    0.016627
  18 C :   -0.244054
  19 C :   -0.197677
  20 C :   -0.241063
  21 C :   -0.256881
  22 C :   -0.009235
  23 H :    0.247339
  24 H :    0.275985
  25 H :    0.238521
  26 H :    0.238909
  27 H :    0.071932
  28 C :   -0.291331
  29 H :    0.258486
  30 H :    0.235556
  31 O :   -0.486953
  32 C :    0.589581
  33 O :   -0.534444
  34 C :   -0.715752
  35 H :    0.231557
  36 H :    0.239836
  37 H :    0.235416
Sum of atomic charges:    0.0000000

LOEWDIN ATOMIC CHARGES
----------------------
   0 Pd:   -0.242369
   1 O :   -0.033530
   2 C :    0.144763
   3 O :   -0.299844
   4 C :   -0.383461
   5 H :    0.148909
   6 H :    0.157416
   7 H :    0.135333
   8 N :   -0.107572
   9 C :   -0.259386
  10 H :    0.187107
  11 H :    0.111917
  12 H :    0.134718
  13 C :   -0.235168
  14 H :    0.156887
  15 H :    0.121387
  16 H :    0.161450
  17 C :   -0.048078
  18 C :   -0.114731
  19 C :   -0.116032
  20 C :   -0.117765
  21 C :   -0.120819
  22 C :    0.033842
  23 H :    0.148619
  24 H :    0.172059
  25 H :    0.152038
  26 H :    0.148847
  27 H :    0.083011
  28 C :   -0.113059
  29 H :    0.154033
  30 H :    0.140214
  31 O :   -0.201206
  32 C :    0.235659
  33 O :   -0.383623
  34 C :   -0.385609
  35 H :    0.138663
  36 H :    0.146936
  37 H :    0.148449

  Mayer bond orders larger than 0.100000
B(  0-Pd,  1-O ) :   0.6591 B(  0-Pd,  3-O ) :   0.1925 B(  0-Pd,  8-N ) :   0.3720
B(  0-Pd, 22-C ) :   0.1982 B(  0-Pd, 27-H ) :   0.1412 B(  0-Pd, 31-O ) :   0.6240
B(  1-O ,  2-C ) :   1.3761 B(  2-C ,  3-O ) :   1.6957 B(  2-C ,  4-C ) :   0.9289
B(  4-C ,  5-H ) :   0.9142 B(  4-C ,  6-H ) :   0.9094 B(  4-C ,  7-H ) :   0.9111
B(  8-N ,  9-C ) :   0.9036 B(  8-N , 13-C ) :   0.9169 B(  8-N , 28-C ) :   0.9028
B(  9-C , 10-H ) :   0.8039 B(  9-C , 11-H ) :   0.9064 B(  9-C , 12-H ) :   0.9144
B( 13-C , 14-H ) :   0.8917 B( 13-C , 15-H ) :   0.9028 B( 13-C , 16-H ) :   0.8951
B( 17-C , 18-C ) :   1.3960 B( 17-C , 22-C ) :   1.3534 B( 17-C , 28-C ) :   0.9394
B( 18-C , 19-C ) :   1.3991 B( 18-C , 25-H ) :   0.9062 B( 19-C , 20-C ) :   1.4289
B( 19-C , 26-H ) :   0.9131 B( 20-C , 21-C ) :   1.3787 B( 20-C , 23-H ) :   0.9052
B( 21-C , 22-C ) :   1.4353 B( 21-C , 24-H ) :   0.8980 B( 22-C , 27-H ) :   0.6547
B( 28-C , 29-H ) :   0.8982 B( 28-C , 30-H ) :   0.9130 B( 31-O , 32-C ) :   1.3125
B( 31-O , 33-O ) :   0.1193 B( 32-C , 33-O ) :   1.7356 B( 32-C , 34-C ) :   0.9048
B( 34-C , 35-H ) :   0.9091 B( 34-C , 36-H ) :   0.9157 B( 34-C , 37-H ) :   0.9059

Dispersion correction           -0.025563677
FINAL SINGLE POINT ENERGY      -988.154256855358
Dispersion correction            ... done

DIPOLE MOMENT
-------------
                                X             Y             Z
Electronic contribution:     20.46908      14.11515      -2.15225
Nuclear contribution   :    -22.17635     -15.05687       4.33513
                        -----------------------------------------
Total Dipole Moment    :     -1.70727      -0.94173       2.18289
                        -----------------------------------------
Magnitude (a.u.)       :      2.92688
Magnitude (Debye)      :      7.43953

Rotational constants in cm-1:     0.013086     0.008365     0.006351
Rotational constants in MHz :   392.318152   250.763148   190.397244

                             ****ORCA TERMINATED NORMALLY****
TOTAL RUN TIME: 0 days 0 hours 16 minutes 15 seconds 638 msec
