                         Program Version 5.0.3 -  RELEASE  -
|  1> ! EnGrad PBEh-3c
|  2> %output
|  3> xyzfile=True
|  4> end
|  5> %scf
|  6> maxiter 250
|  7> end
|  8> %output
|  9> Print[P_Hirshfeld] = 1
| 10> end
| 11> % maxcore
| 12> 4000
| 13> *xyz 0 1
| 14> Pd   0.46809795   0.31536658  -0.12221776
| 15> O    1.85465366   1.32582541   0.60467224
| 16> C    1.60982729   2.56097843   0.35024987
| 17> O    0.59775070   2.94352149  -0.23355514
| 18> C    2.73147957   3.60032281   0.62616134
| 19> H    2.28184273   4.51039318   1.03572456
| 20> H    3.20374832   3.93047995  -0.31523299
| 21> H    3.54385872   3.27804397   1.28991325
| 22> N   -1.41240182  -0.77531068  -1.06308726
| 23> C   -1.18116011  -1.94243911  -1.96396404
| 24> H   -0.54120272  -1.58042168  -2.78880840
| 25> H   -2.19911067  -2.31286119  -2.20685602
| 26> H   -0.65802288  -2.73085452  -1.39981564
| 27> C   -2.08620337   0.31249327  -1.81569364
| 28> H   -2.19978992   1.21153321  -1.18413982
| 29> H   -3.07017298  -0.07604066  -2.12815813
| 30> H   -1.45394045   0.50890599  -2.69345482
| 31> C   -1.68295091  -1.01950930   1.49583848
| 32> C   -1.55584811  -2.17073706   2.31628809
| 33> C   -1.12024588  -2.01109691   3.62807757
| 34> C   -1.09494845  -0.74124192   4.19927545
| 35> C   -1.25689454   0.43047513   3.44215470
| 36> C   -1.42786546   0.20950303   2.10772425
| 37> H   -0.87052237  -0.59831171   5.24016808
| 38> H   -1.33064085   1.43840108   3.83971720
| 39> H   -1.63322428  -3.16829567   1.86635487
| 40> H   -1.09042301  -2.86375013   4.28858891
| 41> H   -1.82509254   3.19081091   1.30815027
| 42> C   -2.24017343  -1.18502684   0.08972324
| 43> H   -3.13411048  -0.55738547   0.09223478
| 44> H   -2.51058107  -2.23695574  -0.07585471
| 45> O    2.17429737  -0.28276226  -1.28213895
| 46> C    2.14326328  -0.62292405  -2.59173694
| 47> O    1.28781881  -0.89093796  -3.41987884
| 48> C    3.67894002  -0.50327585  -2.97422204
| 49> H    3.94033461  -1.47241440  -3.40733204
| 50> H    4.45582707  -0.17092769  -2.26132681
| 51> H    3.62599925   0.13675505  -3.87197455
| 52> *
| 53>
| 54>                          ****END OF INPUT****

CARTESIAN COORDINATES (ANGSTROEM)
---------------------------------
  Pd     0.468098    0.315367   -0.122218
  O      1.854654    1.325825    0.604672
  C      1.609827    2.560978    0.350250
  O      0.597751    2.943521   -0.233555
  C      2.731480    3.600323    0.626161
  H      2.281843    4.510393    1.035725
  H      3.203748    3.930480   -0.315233
  H      3.543859    3.278044    1.289913
  N     -1.412402   -0.775311   -1.063087
  C     -1.181160   -1.942439   -1.963964
  H     -0.541203   -1.580422   -2.788808
  H     -2.199111   -2.312861   -2.206856
  H     -0.658023   -2.730855   -1.399816
  C     -2.086203    0.312493   -1.815694
  H     -2.199790    1.211533   -1.184140
  H     -3.070173   -0.076041   -2.128158
  H     -1.453940    0.508906   -2.693455
  C     -1.682951   -1.019509    1.495838
  C     -1.555848   -2.170737    2.316288
  C     -1.120246   -2.011097    3.628078
  C     -1.094948   -0.741242    4.199275
  C     -1.256895    0.430475    3.442155
  C     -1.427865    0.209503    2.107724
  H     -0.870522   -0.598312    5.240168
  H     -1.330641    1.438401    3.839717
  H     -1.633224   -3.168296    1.866355
  H     -1.090423   -2.863750    4.288589
  H     -1.825093    3.190811    1.308150
  C     -2.240173   -1.185027    0.089723
  H     -3.134110   -0.557385    0.092235
  H     -2.510581   -2.236956   -0.075855
  O      2.174297   -0.282762   -1.282139
  C      2.143263   -0.622924   -2.591737
  O      1.287819   -0.890938   -3.419879
  C      3.678940   -0.503276   -2.974222
  H      3.940335   -1.472414   -3.407332
  H      4.455827   -0.170928   -2.261327
  H      3.625999    0.136755   -3.871975

 Total Charge           Charge          ....    0
 Multiplicity           Mult            ....    1
 Number of Electrons    NEL             ....  154
 Basis Dimension        Dim             ....  339

ORBITAL ENERGIES
----------------

  NO   OCC          E(Eh)            E(eV)
   0   2.0000     -19.507243      -530.8191
   1   2.0000     -19.479413      -530.0618
   2   2.0000     -19.457043      -529.4530
   3   2.0000     -19.453686      -529.3617
   4   2.0000     -14.705124      -400.1468
   5   2.0000     -10.553067      -287.1635
   6   2.0000     -10.548908      -287.0504
   7   2.0000     -10.533561      -286.6328
   8   2.0000     -10.511768      -286.0397
   9   2.0000     -10.509962      -285.9906
  10   2.0000     -10.495469      -285.5962
  11   2.0000     -10.493459      -285.5415
  12   2.0000     -10.488993      -285.4200
  13   2.0000     -10.484946      -285.3099
  14   2.0000     -10.481682      -285.2211
  15   2.0000     -10.473355      -284.9945
  16   2.0000     -10.429387      -283.7980
  17   2.0000     -10.413247      -283.3588
  18   2.0000      -3.662367       -99.6581
  19   2.0000      -2.318384       -63.0864
  20   2.0000      -2.297255       -62.5115
  21   2.0000      -2.275744       -61.9262
  22   2.0000      -1.181414       -32.1479
  23   2.0000      -1.135811       -30.9070
  24   2.0000      -1.076551       -29.2944
  25   2.0000      -1.063936       -28.9512
  26   2.0000      -1.051383       -28.6096
  27   2.0000      -0.998520       -27.1711
  28   2.0000      -0.898367       -24.4458
  29   2.0000      -0.872644       -23.7459
  30   2.0000      -0.811577       -22.0841
  31   2.0000      -0.806959       -21.9585
  32   2.0000      -0.799042       -21.7430
  33   2.0000      -0.774219       -21.0676
  34   2.0000      -0.718522       -19.5520
  35   2.0000      -0.712125       -19.3779
  36   2.0000      -0.679016       -18.4770
  37   2.0000      -0.620289       -16.8789
  38   2.0000      -0.608757       -16.5651
  39   2.0000      -0.580163       -15.7870
  40   2.0000      -0.573706       -15.6113
  41   2.0000      -0.563428       -15.3316
  42   2.0000      -0.560078       -15.2405
  43   2.0000      -0.541483       -14.7345
  44   2.0000      -0.532554       -14.4915
  45   2.0000      -0.531454       -14.4616
  46   2.0000      -0.516408       -14.0522
  47   2.0000      -0.513719       -13.9790
  48   2.0000      -0.498333       -13.5603
  49   2.0000      -0.497159       -13.5284
  50   2.0000      -0.486245       -13.2314
  51   2.0000      -0.482291       -13.1238
  52   2.0000      -0.478438       -13.0190
  53   2.0000      -0.473955       -12.8970
  54   2.0000      -0.464623       -12.6430
  55   2.0000      -0.450783       -12.2664
  56   2.0000      -0.441994       -12.0273
  57   2.0000      -0.440869       -11.9966
  58   2.0000      -0.439826       -11.9683
  59   2.0000      -0.436202       -11.8696
  60   2.0000      -0.431835       -11.7508
  61   2.0000      -0.424398       -11.5484
  62   2.0000      -0.399101       -10.8601
  63   2.0000      -0.394798       -10.7430
  64   2.0000      -0.373243       -10.1565
  65   2.0000      -0.360917        -9.8211
  66   2.0000      -0.348853        -9.4928
  67   2.0000      -0.347248        -9.4491
  68   2.0000      -0.336231        -9.1493
  69   2.0000      -0.330808        -9.0017
  70   2.0000      -0.324853        -8.8397
  71   2.0000      -0.319513        -8.6944
  72   2.0000      -0.313366        -8.5271
  73   2.0000      -0.303607        -8.2616
  74   2.0000      -0.294216        -8.0060
  75   2.0000      -0.273978        -7.4553
  76   2.0000      -0.266521        -7.2524
  77   0.0000      -0.157977        -4.2988
  78   0.0000      -0.081746        -2.2244
  79   0.0000      -0.027044        -0.7359
  80   0.0000      -0.017557        -0.4777
  81   0.0000       0.053250         1.4490

MULLIKEN ATOMIC CHARGES
-----------------------
   0 Pd:    0.452827
   1 O :   -0.491220
   2 C :    0.595579
   3 O :   -0.452561
   4 C :   -0.752680
   5 H :    0.240623
   6 H :    0.253239
   7 H :    0.236667
   8 N :   -0.455550
   9 C :   -0.543167
  10 H :    0.322403
  11 H :    0.200845
  12 H :    0.242532
  13 C :   -0.535572
  14 H :    0.276795
  15 H :    0.220277
  16 H :    0.279798
  17 C :    0.017354
  18 C :   -0.251182
  19 C :   -0.191114
  20 C :   -0.239232
  21 C :   -0.258194
  22 C :    0.015391
  23 H :    0.247736
  24 H :    0.275919
  25 H :    0.240724
  26 H :    0.235768
  27 H :    0.044438
  28 C :   -0.303150
  29 H :    0.259425
  30 H :    0.241732
  31 O :   -0.508286
  32 C :    0.568368
  33 O :   -0.452645
  34 C :   -0.733573
  35 H :    0.225389
  36 H :    0.246505
  37 H :    0.227793
Sum of atomic charges:    0.0000000

LOEWDIN ATOMIC CHARGES
----------------------
   0 Pd:   -0.269707
   1 O :   -0.103065
   2 C :    0.163129
   3 O :   -0.230519
   4 C :   -0.384852
   5 H :    0.146729
   6 H :    0.156562
   7 H :    0.138956
   8 N :   -0.109013
   9 C :   -0.249081
  10 H :    0.176115
  11 H :    0.112044
  12 H :    0.138440
  13 C :   -0.236397
  14 H :    0.157590
  15 H :    0.118970
  16 H :    0.160063
  17 C :   -0.051839
  18 C :   -0.107327
  19 C :   -0.120626
  20 C :   -0.112187
  21 C :   -0.122106
  22 C :    0.047894
  23 H :    0.148816
  24 H :    0.168698
  25 H :    0.150467
  26 H :    0.149122
  27 H :    0.051714
  28 C :   -0.107643
  29 H :    0.153780
  30 H :    0.141316
  31 O :   -0.206533
  32 C :    0.171502
  33 O :   -0.270711
  34 C :   -0.394926
  35 H :    0.137483
  36 H :    0.144193
  37 H :    0.142952

  Mayer bond orders larger than 0.100000
B(  0-Pd,  1-O ) :   0.7122 B(  0-Pd,  3-O ) :   0.1735 B(  0-Pd,  8-N ) :   0.3556
B(  0-Pd, 22-C ) :   0.1739 B(  0-Pd, 27-H ) :   0.1414 B(  0-Pd, 31-O ) :   0.6667
B(  1-O ,  2-C ) :   1.2488 B(  2-C ,  3-O ) :   1.7919 B(  2-C ,  4-C ) :   0.9316
B(  4-C ,  5-H ) :   0.9151 B(  4-C ,  6-H ) :   0.9100 B(  4-C ,  7-H ) :   0.9119
B(  8-N ,  9-C ) :   0.9150 B(  8-N , 13-C ) :   0.9199 B(  8-N , 28-C ) :   0.8992
B(  9-C , 10-H ) :   0.8389 B(  9-C , 11-H ) :   0.9074 B(  9-C , 12-H ) :   0.9142
B( 13-C , 14-H ) :   0.8911 B( 13-C , 15-H ) :   0.9048 B( 13-C , 16-H ) :   0.8964
B( 17-C , 18-C ) :   1.3849 B( 17-C , 22-C ) :   1.3833 B( 17-C , 28-C ) :   0.9387
B( 18-C , 19-C ) :   1.4214 B( 18-C , 25-H ) :   0.9040 B( 19-C , 20-C ) :   1.4247
B( 19-C , 26-H ) :   0.9140 B( 20-C , 21-C ) :   1.3818 B( 20-C , 23-H ) :   0.9040
B( 21-C , 22-C ) :   1.4505 B( 21-C , 24-H ) :   0.8972 B( 22-C , 27-H ) :   0.6621
B( 28-C , 29-H ) :   0.8987 B( 28-C , 30-H ) :   0.9137 B( 31-O , 32-C ) :   1.2596
B( 31-O , 33-O ) :   0.1112 B( 32-C , 33-O ) :   1.8885 B( 32-C , 34-C ) :   0.8946
B( 34-C , 35-H ) :   0.9147 B( 34-C , 36-H ) :   0.9139 B( 34-C , 37-H ) :   0.9142

Dispersion correction           -0.025532255
FINAL SINGLE POINT ENERGY      -988.210643480288
Dispersion correction            ... done

DIPOLE MOMENT
-------------
                                X             Y             Z
Electronic contribution:     19.45969      14.61643      -3.83916
Nuclear contribution   :    -21.41326     -15.68799       5.75295
                        -----------------------------------------
Total Dipole Moment    :     -1.95357      -1.07156       1.91379
                        -----------------------------------------
Magnitude (a.u.)       :      2.93722
Magnitude (Debye)      :      7.46583

Rotational constants in cm-1:     0.013187     0.008380     0.006414
Rotational constants in MHz :   395.349999   251.217314   192.297358

                             ****ORCA TERMINATED NORMALLY****
TOTAL RUN TIME: 0 days 0 hours 18 minutes 0 seconds 26 msec
