                         Program Version 5.0.3 -  RELEASE  -
|  1> ! EnGrad PBEh-3c
|  2> %output
|  3> xyzfile=True
|  4> end
|  5> %scf
|  6> maxiter 250
|  7> end
|  8> %output
|  9> Print[P_Hirshfeld] = 1
| 10> end
| 11> % maxcore
| 12> 4000
| 13> *xyz 0 1
| 14> Pd   0.46035116   0.26595549  -0.13618786
| 15> O    1.83434201   1.37158364   0.62403687
| 16> C    1.62778316   2.58203430   0.33226287
| 17> O    0.59472221   2.95506770  -0.23513483
| 18> C    2.72069121   3.57733793   0.63567659
| 19> H    2.29348734   4.49657936   1.03897919
| 20> H    3.20145318   3.90880832  -0.30207927
| 21> H    3.54023672   3.25734857   1.29037409
| 22> N   -1.37335404  -0.75894149  -1.03028179
| 23> C   -1.17283944  -1.94894759  -1.92411434
| 24> H   -0.49931172  -1.61731966  -2.74861387
| 25> H   -2.17956644  -2.35500274  -2.17985674
| 26> H   -0.65888574  -2.74867351  -1.36153805
| 27> C   -2.06286036   0.28542726  -1.83334497
| 28> H   -2.18504753   1.20188792  -1.21077485
| 29> H   -3.06093623  -0.07651899  -2.15001067
| 30> H   -1.43442054   0.48247065  -2.70482008
| 31> C   -1.70633063  -1.01708774   1.51245300
| 32> C   -1.62278518  -2.15139295   2.31593008
| 33> C   -1.19456719  -2.00912832   3.63935221
| 34> C   -1.08348051  -0.72402784   4.20772334
| 35> C   -1.21427213   0.44545726   3.46042260
| 36> C   -1.39989720   0.23053007   2.10104343
| 37> H   -0.87258709  -0.60687119   5.25901972
| 38> H   -1.23805255   1.48713559   3.83612199
| 39> H   -1.72727107  -3.15744584   1.85444620
| 40> H   -1.11869989  -2.87015031   4.29491556
| 41> H   -1.76882487   3.04464436   1.29351654
| 42> C   -2.25043851  -1.14717727   0.07969739
| 43> H   -3.12973244  -0.50060547   0.06572402
| 44> H   -2.51915146  -2.20576059  -0.08245506
| 45> O    2.20141885  -0.34305092  -1.29114894
| 46> C    2.09431134  -0.63398503  -2.65527510
| 47> O    1.30014950  -0.89936511  -3.37404855
| 48> C    3.64326484  -0.48786275  -3.02314321
| 49> H    3.99684311  -1.41310823  -3.45637095
| 50> H    4.43900747  -0.12546801  -2.26096798
| 51> H    3.55887753   0.18959506  -3.85103474
| 52> *
| 53>
| 54>                          ****END OF INPUT****

CARTESIAN COORDINATES (ANGSTROEM)
---------------------------------
  Pd     0.460351    0.265955   -0.136188
  O      1.834342    1.371584    0.624037
  C      1.627783    2.582034    0.332263
  O      0.594722    2.955068   -0.235135
  C      2.720691    3.577338    0.635677
  H      2.293487    4.496579    1.038979
  H      3.201453    3.908808   -0.302079
  H      3.540237    3.257349    1.290374
  N     -1.373354   -0.758941   -1.030282
  C     -1.172839   -1.948948   -1.924114
  H     -0.499312   -1.617320   -2.748614
  H     -2.179566   -2.355003   -2.179857
  H     -0.658886   -2.748674   -1.361538
  C     -2.062860    0.285427   -1.833345
  H     -2.185048    1.201888   -1.210775
  H     -3.060936   -0.076519   -2.150011
  H     -1.434421    0.482471   -2.704820
  C     -1.706331   -1.017088    1.512453
  C     -1.622785   -2.151393    2.315930
  C     -1.194567   -2.009128    3.639352
  C     -1.083481   -0.724028    4.207723
  C     -1.214272    0.445457    3.460423
  C     -1.399897    0.230530    2.101043
  H     -0.872587   -0.606871    5.259020
  H     -1.238053    1.487136    3.836122
  H     -1.727271   -3.157446    1.854446
  H     -1.118700   -2.870150    4.294916
  H     -1.768825    3.044644    1.293517
  C     -2.250439   -1.147177    0.079697
  H     -3.129732   -0.500605    0.065724
  H     -2.519151   -2.205761   -0.082455
  O      2.201419   -0.343051   -1.291149
  C      2.094311   -0.633985   -2.655275
  O      1.300149   -0.899365   -3.374049
  C      3.643265   -0.487863   -3.023143
  H      3.996843   -1.413108   -3.456371
  H      4.439007   -0.125468   -2.260968
  H      3.558878    0.189595   -3.851035

 Total Charge           Charge          ....    0
 Multiplicity           Mult            ....    1
 Number of Electrons    NEL             ....  154
 Basis Dimension        Dim             ....  339

ORBITAL ENERGIES
----------------

  NO   OCC          E(Eh)            E(eV)
   0   2.0000     -19.491506      -530.3908
   1   2.0000     -19.480216      -530.0836
   2   2.0000     -19.470798      -529.8273
   3   2.0000     -19.436436      -528.8923
   4   2.0000     -14.712910      -400.3586
   5   2.0000     -10.546033      -286.9721
   6   2.0000     -10.537763      -286.7471
   7   2.0000     -10.532806      -286.6122
   8   2.0000     -10.510675      -286.0100
   9   2.0000     -10.507638      -285.9274
  10   2.0000     -10.493140      -285.5329
  11   2.0000     -10.491676      -285.4930
  12   2.0000     -10.486270      -285.3459
  13   2.0000     -10.485409      -285.3225
  14   2.0000     -10.485272      -285.3188
  15   2.0000     -10.480811      -285.1974
  16   2.0000     -10.420520      -283.5568
  17   2.0000     -10.411945      -283.3234
  18   2.0000      -3.653980       -99.4299
  19   2.0000      -2.307963       -62.8029
  20   2.0000      -2.289762       -62.3076
  21   2.0000      -2.267234       -61.6946
  22   2.0000      -1.216564       -33.1044
  23   2.0000      -1.172458       -31.9042
  24   2.0000      -1.070825       -29.1386
  25   2.0000      -1.058954       -28.8156
  26   2.0000      -1.038904       -28.2700
  27   2.0000      -0.991742       -26.9867
  28   2.0000      -0.894594       -24.3431
  29   2.0000      -0.863689       -23.5022
  30   2.0000      -0.811815       -22.0906
  31   2.0000      -0.806372       -21.9425
  32   2.0000      -0.800835       -21.7918
  33   2.0000      -0.772838       -21.0300
  34   2.0000      -0.716734       -19.5033
  35   2.0000      -0.708638       -19.2830
  36   2.0000      -0.680080       -18.5059
  37   2.0000      -0.610051       -16.6003
  38   2.0000      -0.601816       -16.3763
  39   2.0000      -0.581095       -15.8124
  40   2.0000      -0.572582       -15.5808
  41   2.0000      -0.563216       -15.3259
  42   2.0000      -0.558848       -15.2070
  43   2.0000      -0.535149       -14.5621
  44   2.0000      -0.534423       -14.5424
  45   2.0000      -0.528255       -14.3745
  46   2.0000      -0.517301       -14.0765
  47   2.0000      -0.513072       -13.9614
  48   2.0000      -0.505467       -13.7544
  49   2.0000      -0.504156       -13.7188
  50   2.0000      -0.496759       -13.5175
  51   2.0000      -0.494387       -13.4529
  52   2.0000      -0.489105       -13.3092
  53   2.0000      -0.476250       -12.9594
  54   2.0000      -0.460577       -12.5329
  55   2.0000      -0.448506       -12.2045
  56   2.0000      -0.439050       -11.9471
  57   2.0000      -0.433829       -11.8051
  58   2.0000      -0.433573       -11.7981
  59   2.0000      -0.428727       -11.6663
  60   2.0000      -0.426850       -11.6152
  61   2.0000      -0.419246       -11.4083
  62   2.0000      -0.413524       -11.2526
  63   2.0000      -0.390690       -10.6312
  64   2.0000      -0.367391        -9.9972
  65   2.0000      -0.359167        -9.7734
  66   2.0000      -0.351374        -9.5614
  67   2.0000      -0.340842        -9.2748
  68   2.0000      -0.330638        -8.9971
  69   2.0000      -0.328032        -8.9262
  70   2.0000      -0.319892        -8.7047
  71   2.0000      -0.313315        -8.5257
  72   2.0000      -0.308800        -8.4029
  73   2.0000      -0.303116        -8.2482
  74   2.0000      -0.288443        -7.8489
  75   2.0000      -0.272442        -7.4135
  76   2.0000      -0.263882        -7.1806
  77   0.0000      -0.151350        -4.1184
  78   0.0000      -0.079556        -2.1648
  79   0.0000      -0.021234        -0.5778
  80   0.0000      -0.015716        -0.4276
  81   0.0000       0.056548         1.5388

MULLIKEN ATOMIC CHARGES
-----------------------
   0 Pd:    0.425733
   1 O :   -0.483663
   2 C :    0.597028
   3 O :   -0.476928
   4 C :   -0.760904
   5 H :    0.241226
   6 H :    0.249475
   7 H :    0.239295
   8 N :   -0.462194
   9 C :   -0.552473
  10 H :    0.314140
  11 H :    0.209430
  12 H :    0.248544
  13 C :   -0.537451
  14 H :    0.277540
  15 H :    0.225175
  16 H :    0.277276
  17 C :    0.024901
  18 C :   -0.250470
  19 C :   -0.201229
  20 C :   -0.234949
  21 C :   -0.257837
  22 C :   -0.002037
  23 H :    0.245185
  24 H :    0.271163
  25 H :    0.234965
  26 H :    0.238315
  27 H :    0.066277
  28 C :   -0.299529
  29 H :    0.262709
  30 H :    0.238036
  31 O :   -0.520403
  32 C :    0.523963
  33 O :   -0.319557
  34 C :   -0.739545
  35 H :    0.224382
  36 H :    0.239659
  37 H :    0.224752
Sum of atomic charges:    0.0000000

LOEWDIN ATOMIC CHARGES
----------------------
   0 Pd:   -0.296563
   1 O :   -0.103985
   2 C :    0.139699
   3 O :   -0.258777
   4 C :   -0.382886
   5 H :    0.147103
   6 H :    0.156338
   7 H :    0.140239
   8 N :   -0.093796
   9 C :   -0.250296
  10 H :    0.172585
  11 H :    0.115911
  12 H :    0.139473
  13 C :   -0.235050
  14 H :    0.158350
  15 H :    0.121529
  16 H :    0.157277
  17 C :   -0.053317
  18 C :   -0.114639
  19 C :   -0.116992
  20 C :   -0.117214
  21 C :   -0.120523
  22 C :    0.037895
  23 H :    0.148109
  24 H :    0.168512
  25 H :    0.149431
  26 H :    0.148185
  27 H :    0.076647
  28 C :   -0.105812
  29 H :    0.154672
  30 H :    0.140680
  31 O :   -0.236070
  32 C :    0.118790
  33 O :   -0.119462
  34 C :   -0.402999
  35 H :    0.132707
  36 H :    0.146158
  37 H :    0.138089

  Mayer bond orders larger than 0.100000
B(  0-Pd,  1-O ) :   0.6783 B(  0-Pd,  3-O ) :   0.1647 B(  0-Pd,  8-N ) :   0.3646
B(  0-Pd, 22-C ) :   0.1716 B(  0-Pd, 27-H ) :   0.1276 B(  0-Pd, 31-O ) :   0.7261
B(  1-O ,  2-C ) :   1.2935 B(  2-C ,  3-O ) :   1.7767 B(  2-C ,  4-C ) :   0.9361
B(  4-C ,  5-H ) :   0.9150 B(  4-C ,  6-H ) :   0.9105 B(  4-C ,  7-H ) :   0.9117
B(  8-N ,  9-C ) :   0.9150 B(  8-N , 13-C ) :   0.9181 B(  8-N , 28-C ) :   0.8943
B(  9-C , 10-H ) :   0.8490 B(  9-C , 11-H ) :   0.9052 B(  9-C , 12-H ) :   0.9109
B( 13-C , 14-H ) :   0.8907 B( 13-C , 15-H ) :   0.9019 B( 13-C , 16-H ) :   0.8982
B( 17-C , 18-C ) :   1.3972 B( 17-C , 22-C ) :   1.3670 B( 17-C , 28-C ) :   0.9392
B( 18-C , 19-C ) :   1.4187 B( 18-C , 25-H ) :   0.9069 B( 19-C , 20-C ) :   1.4241
B( 19-C , 26-H ) :   0.9133 B( 20-C , 21-C ) :   1.3925 B( 20-C , 23-H ) :   0.9054
B( 21-C , 22-C ) :   1.4352 B( 21-C , 24-H ) :   0.9004 B( 22-C , 27-H ) :   0.6814
B( 28-C , 29-H ) :   0.8980 B( 28-C , 30-H ) :   0.9143 B( 31-O , 32-C ) :   1.1677
B( 31-O , 33-O ) :   0.1025 B( 32-C , 33-O ) :   2.0606 B( 32-C , 34-C ) :   0.8771
B( 34-C , 35-H ) :   0.9143 B( 34-C , 36-H ) :   0.9224 B( 34-C , 37-H ) :   0.9112

Dispersion correction           -0.025693581
FINAL SINGLE POINT ENERGY      -988.194125558098
Dispersion correction            ... done

DIPOLE MOMENT
-------------
                                X             Y             Z
Electronic contribution:     18.90393      11.79417      -5.17225
Nuclear contribution   :    -21.01529     -13.02233       6.55849
                        -----------------------------------------
Total Dipole Moment    :     -2.11136      -1.22816       1.38624
                        -----------------------------------------
Magnitude (a.u.)       :      2.80854
Magnitude (Debye)      :      7.13874

Rotational constants in cm-1:     0.013271     0.008386     0.006400
Rotational constants in MHz :   397.849263   251.392983   191.874723

                             ****ORCA TERMINATED NORMALLY****
TOTAL RUN TIME: 0 days 0 hours 21 minutes 55 seconds 267 msec
