                         Program Version 5.0.3 -  RELEASE  -
|  1> ! EnGrad PBEh-3c
|  2> %output
|  3> xyzfile=True
|  4> end
|  5> %scf
|  6> maxiter 250
|  7> end
|  8> %output
|  9> Print[P_Hirshfeld] = 1
| 10> end
| 11> % maxcore
| 12> 4000
| 13> *xyz 0 1
| 14> Pd   0.44816855   0.23240732  -0.17720128
| 15> O    1.84627856   1.38888790   0.64532860
| 16> C    1.65666348   2.60221734   0.31958879
| 17> O    0.58753217   2.94836961  -0.23108752
| 18> C    2.71722454   3.58431634   0.63486268
| 19> H    2.29144853   4.49702131   1.03970482
| 20> H    3.19227705   3.90263511  -0.30072433
| 21> H    3.52798840   3.25474052   1.28606171
| 22> N   -1.34550162  -0.74242100  -1.01139069
| 23> C   -1.17389843  -1.92451474  -1.91154233
| 24> H   -0.52556955  -1.62090231  -2.75255217
| 25> H   -2.16190165  -2.34677914  -2.20312981
| 26> H   -0.65698650  -2.73137505  -1.37939225
| 27> C   -2.05611981   0.27658669  -1.82412927
| 28> H   -2.18903471   1.19115304  -1.21305213
| 29> H   -3.05885084  -0.06583545  -2.14711417
| 30> H   -1.45175669   0.49874347  -2.69666229
| 31> C   -1.68869950  -1.01848825   1.49958524
| 32> C   -1.57136580  -2.13771000   2.30374798
| 33> C   -1.21120436  -1.99773084   3.64392506
| 34> C   -1.07024757  -0.71431746   4.20450741
| 35> C   -1.23346281   0.43870684   3.44674159
| 36> C   -1.43540228   0.23166495   2.08162865
| 37> H   -0.87717030  -0.61111854   5.26539648
| 38> H   -1.25322120   1.46791344   3.84555780
| 39> H   -1.70936002  -3.14485393   1.86088296
| 40> H   -1.09609967  -2.86914706   4.29087343
| 41> H   -1.77847747   3.01603013   1.30287790
| 42> C   -2.24748241  -1.14660441   0.08435550
| 43> H   -3.14130207  -0.52444009   0.06319144
| 44> H   -2.51710879  -2.20431129  -0.07063829
| 45> O    2.13883261  -0.41067105  -1.29888353
| 46> C    2.18329930  -0.57583571  -2.58542660
| 47> O    1.27062837  -0.81949864  -3.39469335
| 48> C    3.62619809  -0.51464034  -3.04399445
| 49> H    3.99775424  -1.43770735  -3.44171291
| 50> H    4.41601195  -0.16031575  -2.25988471
| 51> H    3.58550365   0.17080594  -3.84461775
| 52> *
| 53>
| 54>                          ****END OF INPUT****

CARTESIAN COORDINATES (ANGSTROEM)
---------------------------------
  Pd     0.448169    0.232407   -0.177201
  O      1.846279    1.388888    0.645329
  C      1.656663    2.602217    0.319589
  O      0.587532    2.948370   -0.231088
  C      2.717225    3.584316    0.634863
  H      2.291449    4.497021    1.039705
  H      3.192277    3.902635   -0.300724
  H      3.527988    3.254741    1.286062
  N     -1.345502   -0.742421   -1.011391
  C     -1.173898   -1.924515   -1.911542
  H     -0.525570   -1.620902   -2.752552
  H     -2.161902   -2.346779   -2.203130
  H     -0.656987   -2.731375   -1.379392
  C     -2.056120    0.276587   -1.824129
  H     -2.189035    1.191153   -1.213052
  H     -3.058851   -0.065835   -2.147114
  H     -1.451757    0.498743   -2.696662
  C     -1.688699   -1.018488    1.499585
  C     -1.571366   -2.137710    2.303748
  C     -1.211204   -1.997731    3.643925
  C     -1.070248   -0.714317    4.204507
  C     -1.233463    0.438707    3.446742
  C     -1.435402    0.231665    2.081629
  H     -0.877170   -0.611119    5.265396
  H     -1.253221    1.467913    3.845558
  H     -1.709360   -3.144854    1.860883
  H     -1.096100   -2.869147    4.290873
  H     -1.778477    3.016030    1.302878
  C     -2.247482   -1.146604    0.084355
  H     -3.141302   -0.524440    0.063191
  H     -2.517109   -2.204311   -0.070638
  O      2.138833   -0.410671   -1.298884
  C      2.183299   -0.575836   -2.585427
  O      1.270628   -0.819499   -3.394693
  C      3.626198   -0.514640   -3.043994
  H      3.997754   -1.437707   -3.441713
  H      4.416012   -0.160316   -2.259885
  H      3.585504    0.170806   -3.844618

 Total Charge           Charge          ....    0
 Multiplicity           Mult            ....    1
 Number of Electrons    NEL             ....  154
 Basis Dimension        Dim             ....  339

ORBITAL ENERGIES
----------------

  NO   OCC          E(Eh)            E(eV)
   0   2.0000     -19.490997      -530.3770
   1   2.0000     -19.476208      -529.9746
   2   2.0000     -19.438415      -528.9462
   3   2.0000     -19.433468      -528.8115
   4   2.0000     -14.722676      -400.6244
   5   2.0000     -10.540354      -286.8176
   6   2.0000     -10.534433      -286.6565
   7   2.0000     -10.534367      -286.6547
   8   2.0000     -10.513073      -286.0753
   9   2.0000     -10.507615      -285.9267
  10   2.0000     -10.493869      -285.5527
  11   2.0000     -10.491953      -285.5006
  12   2.0000     -10.487558      -285.3810
  13   2.0000     -10.486904      -285.3632
  14   2.0000     -10.484073      -285.2861
  15   2.0000     -10.473651      -285.0025
  16   2.0000     -10.422305      -283.6053
  17   2.0000     -10.409524      -283.2575
  18   2.0000      -3.667670       -99.8024
  19   2.0000      -2.320662       -63.1484
  20   2.0000      -2.303755       -62.6884
  21   2.0000      -2.280136       -62.0457
  22   2.0000      -1.166223       -31.7345
  23   2.0000      -1.132811       -30.8253
  24   2.0000      -1.077202       -29.3122
  25   2.0000      -1.051219       -28.6051
  26   2.0000      -1.046510       -28.4770
  27   2.0000      -0.995760       -27.0960
  28   2.0000      -0.899208       -24.4687
  29   2.0000      -0.865193       -23.5431
  30   2.0000      -0.813711       -22.1422
  31   2.0000      -0.812945       -22.1214
  32   2.0000      -0.807800       -21.9814
  33   2.0000      -0.788099       -21.4453
  34   2.0000      -0.720825       -19.6146
  35   2.0000      -0.712288       -19.3823
  36   2.0000      -0.684207       -18.6182
  37   2.0000      -0.610839       -16.6218
  38   2.0000      -0.601743       -16.3743
  39   2.0000      -0.581924       -15.8350
  40   2.0000      -0.575959       -15.6727
  41   2.0000      -0.567968       -15.4552
  42   2.0000      -0.561657       -15.2835
  43   2.0000      -0.538958       -14.6658
  44   2.0000      -0.534913       -14.5557
  45   2.0000      -0.523691       -14.2503
  46   2.0000      -0.507962       -13.8223
  47   2.0000      -0.504198       -13.7199
  48   2.0000      -0.498958       -13.5773
  49   2.0000      -0.496979       -13.5235
  50   2.0000      -0.490515       -13.3476
  51   2.0000      -0.486279       -13.2323
  52   2.0000      -0.481893       -13.1130
  53   2.0000      -0.477332       -12.9889
  54   2.0000      -0.462052       -12.5731
  55   2.0000      -0.449604       -12.2343
  56   2.0000      -0.438187       -11.9237
  57   2.0000      -0.437130       -11.8949
  58   2.0000      -0.430752       -11.7214
  59   2.0000      -0.428925       -11.6716
  60   2.0000      -0.427181       -11.6242
  61   2.0000      -0.413177       -11.2431
  62   2.0000      -0.403184       -10.9712
  63   2.0000      -0.398705       -10.8493
  64   2.0000      -0.376265       -10.2387
  65   2.0000      -0.359327        -9.7778
  66   2.0000      -0.358628        -9.7588
  67   2.0000      -0.347829        -9.4649
  68   2.0000      -0.334113        -9.0917
  69   2.0000      -0.329924        -8.9777
  70   2.0000      -0.325447        -8.8559
  71   2.0000      -0.310419        -8.4469
  72   2.0000      -0.307405        -8.3649
  73   2.0000      -0.296437        -8.0665
  74   2.0000      -0.285994        -7.7823
  75   2.0000      -0.282571        -7.6892
  76   2.0000      -0.273060        -7.4303
  77   0.0000      -0.153424        -4.1749
  78   0.0000      -0.093014        -2.5310
  79   0.0000      -0.023024        -0.6265
  80   0.0000      -0.016324        -0.4442
  81   0.0000       0.053875         1.4660

MULLIKEN ATOMIC CHARGES
-----------------------
   0 Pd:    0.486653
   1 O :   -0.485471
   2 C :    0.602539
   3 O :   -0.489069
   4 C :   -0.762820
   5 H :    0.247178
   6 H :    0.252747
   7 H :    0.245318
   8 N :   -0.471402
   9 C :   -0.565555
  10 H :    0.334326
  11 H :    0.210294
  12 H :    0.248640
  13 C :   -0.551282
  14 H :    0.276376
  15 H :    0.231519
  16 H :    0.295705
  17 C :    0.020146
  18 C :   -0.249910
  19 C :   -0.210480
  20 C :   -0.223621
  21 C :   -0.262657
  22 C :   -0.004371
  23 H :    0.244419
  24 H :    0.268223
  25 H :    0.236050
  26 H :    0.241969
  27 H :    0.077144
  28 C :   -0.302077
  29 H :    0.267170
  30 H :    0.245676
  31 O :   -0.497949
  32 C :    0.567217
  33 O :   -0.496158
  34 C :   -0.735644
  35 H :    0.242138
  36 H :    0.223480
  37 H :    0.243539
Sum of atomic charges:   -0.0000000

LOEWDIN ATOMIC CHARGES
----------------------
   0 Pd:   -0.241231
   1 O :   -0.125423
   2 C :    0.144287
   3 O :   -0.273606
   4 C :   -0.380213
   5 H :    0.150896
   6 H :    0.159521
   7 H :    0.144107
   8 N :   -0.071817
   9 C :   -0.254088
  10 H :    0.180123
  11 H :    0.115979
  12 H :    0.138923
  13 C :   -0.236953
  14 H :    0.155969
  15 H :    0.125326
  16 H :    0.163782
  17 C :   -0.058473
  18 C :   -0.112981
  19 C :   -0.116788
  20 C :   -0.116749
  21 C :   -0.120056
  22 C :    0.031489
  23 H :    0.148521
  24 H :    0.165714
  25 H :    0.149414
  26 H :    0.148798
  27 H :    0.087150
  28 C :   -0.101729
  29 H :    0.156039
  30 H :    0.143946
  31 O :   -0.171468
  32 C :    0.141553
  33 O :   -0.316091
  34 C :   -0.385334
  35 H :    0.144087
  36 H :    0.139167
  37 H :    0.148208

  Mayer bond orders larger than 0.100000
B(  0-Pd,  1-O ) :   0.6760 B(  0-Pd,  3-O ) :   0.1757 B(  0-Pd,  8-N ) :   0.4019
B(  0-Pd, 22-C ) :   0.1643 B(  0-Pd, 27-H ) :   0.1182 B(  0-Pd, 31-O ) :   0.6465
B(  1-O ,  2-C ) :   1.2986 B(  2-C ,  3-O ) :   1.7597 B(  2-C ,  4-C ) :   0.9443
B(  4-C ,  5-H ) :   0.9126 B(  4-C ,  6-H ) :   0.9074 B(  4-C ,  7-H ) :   0.9103
B(  8-N ,  9-C ) :   0.9082 B(  8-N , 13-C ) :   0.9132 B(  8-N , 28-C ) :   0.8873
B(  9-C , 10-H ) :   0.8295 B(  9-C , 11-H ) :   0.9040 B(  9-C , 12-H ) :   0.9108
B( 13-C , 14-H ) :   0.8909 B( 13-C , 15-H ) :   0.9005 B( 13-C , 16-H ) :   0.8885
B( 17-C , 18-C ) :   1.3973 B( 17-C , 22-C ) :   1.3715 B( 17-C , 28-C ) :   0.9372
B( 18-C , 19-C ) :   1.4317 B( 18-C , 25-H ) :   0.9062 B( 19-C , 20-C ) :   1.4188
B( 19-C , 26-H ) :   0.9115 B( 20-C , 21-C ) :   1.4027 B( 20-C , 23-H ) :   0.9056
B( 21-C , 22-C ) :   1.4301 B( 21-C , 24-H ) :   0.9021 B( 22-C , 27-H ) :   0.6940
B( 28-C , 29-H ) :   0.8971 B( 28-C , 30-H ) :   0.9133 B( 31-O , 32-C ) :   1.3222
B( 31-O , 33-O ) :   0.1071 B( 32-C , 33-O ) :   1.8359 B( 32-C , 34-C ) :   0.9129
B( 34-C , 35-H ) :   0.9123 B( 34-C , 36-H ) :   0.9251 B( 34-C , 37-H ) :   0.9078

Dispersion correction           -0.025774247
FINAL SINGLE POINT ENERGY      -988.247647784342
Dispersion correction            ... done

DIPOLE MOMENT
-------------
                                X             Y             Z
Electronic contribution:     18.33361      10.09171      -6.88773
Nuclear contribution   :    -20.37503     -11.14584       8.75361
                        -----------------------------------------
Total Dipole Moment    :     -2.04142      -1.05413       1.86588
                        -----------------------------------------
Magnitude (a.u.)       :      2.95975
Magnitude (Debye)      :      7.52308

Rotational constants in cm-1:     0.013360     0.008402     0.006430
Rotational constants in MHz :   400.517770   251.872048   192.756666

                             ****ORCA TERMINATED NORMALLY****
TOTAL RUN TIME: 0 days 0 hours 18 minutes 53 seconds 162 msec
