                         Program Version 5.0.3 -  RELEASE  -
|  1> ! EnGrad PBEh-3c
|  2> %output
|  3> xyzfile=True
|  4> end
|  5> %scf
|  6> maxiter 250
|  7> end
|  8> %output
|  9> Print[P_Hirshfeld] = 1
| 10> end
| 11> % maxcore
| 12> 4000
| 13> *xyz 0 1
| 14> Pd   0.45176982   0.21413458  -0.19352624
| 15> O    1.84241254   1.39586941   0.65596193
| 16> C    1.65252369   2.60828887   0.30935120
| 17> O    0.58903032   2.95319344  -0.23164297
| 18> C    2.72227461   3.58796784   0.63523495
| 19> H    2.29372592   4.49350938   1.04257209
| 20> H    3.18894271   3.89295739  -0.29575506
| 21> H    3.52114196   3.24406292   1.28550038
| 22> N   -1.32865650  -0.73850171  -1.00384377
| 23> C   -1.16446949  -1.92276745  -1.89367225
| 24> H   -0.52352672  -1.63732683  -2.73640326
| 25> H   -2.14565618  -2.35358113  -2.20026856
| 26> H   -0.65596288  -2.73050948  -1.36928318
| 27> C   -2.04545863   0.27249472  -1.82243616
| 28> H   -2.18407481   1.18148149  -1.22734126
| 29> H   -3.04987495  -0.06496240  -2.15229822
| 30> H   -1.44879646   0.49475551  -2.70026838
| 31> C   -1.69408891  -1.00187440   1.49153916
| 32> C   -1.57624130  -2.13650399   2.30663803
| 33> C   -1.24014105  -1.98887869   3.65120005
| 34> C   -1.06591759  -0.71255675   4.20788953
| 35> C   -1.22427811   0.44852604   3.43571089
| 36> C   -1.43886850   0.24176186   2.08066777
| 37> H   -0.87842717  -0.61583507   5.27277888
| 38> H   -1.22246957   1.46990983   3.84626631
| 39> H   -1.73873023  -3.13106697   1.86244353
| 40> H   -1.10220467  -2.86794664   4.28943289
| 41> H   -1.75915678   2.94215902   1.30157752
| 42> C   -2.24691700  -1.13684631   0.09302454
| 43> H   -3.14406687  -0.51237669   0.05262558
| 44> H   -2.52192834  -2.18827594  -0.06857925
| 45> O    2.11590731  -0.44896739  -1.30309054
| 46> C    2.21114744  -0.56942254  -2.56186980
| 47> O    1.25049135  -0.79636226  -3.39931176
| 48> C    3.62394581  -0.50899401  -3.04655745
| 49> H    4.01700507  -1.43042324  -3.45870371
| 50> H    4.38700866  -0.15995793  -2.27304912
| 51> H    3.57302448   0.19369752  -3.84807844
| 52> *
| 53>
| 54>                          ****END OF INPUT****

CARTESIAN COORDINATES (ANGSTROEM)
---------------------------------
  Pd     0.451770    0.214135   -0.193526
  O      1.842413    1.395869    0.655962
  C      1.652524    2.608289    0.309351
  O      0.589030    2.953193   -0.231643
  C      2.722275    3.587968    0.635235
  H      2.293726    4.493509    1.042572
  H      3.188943    3.892957   -0.295755
  H      3.521142    3.244063    1.285500
  N     -1.328656   -0.738502   -1.003844
  C     -1.164469   -1.922767   -1.893672
  H     -0.523527   -1.637327   -2.736403
  H     -2.145656   -2.353581   -2.200269
  H     -0.655963   -2.730509   -1.369283
  C     -2.045459    0.272495   -1.822436
  H     -2.184075    1.181481   -1.227341
  H     -3.049875   -0.064962   -2.152298
  H     -1.448796    0.494756   -2.700268
  C     -1.694089   -1.001874    1.491539
  C     -1.576241   -2.136504    2.306638
  C     -1.240141   -1.988879    3.651200
  C     -1.065918   -0.712557    4.207890
  C     -1.224278    0.448526    3.435711
  C     -1.438868    0.241762    2.080668
  H     -0.878427   -0.615835    5.272779
  H     -1.222470    1.469910    3.846266
  H     -1.738730   -3.131067    1.862444
  H     -1.102205   -2.867947    4.289433
  H     -1.759157    2.942159    1.301578
  C     -2.246917   -1.136846    0.093025
  H     -3.144067   -0.512377    0.052626
  H     -2.521928   -2.188276   -0.068579
  O      2.115907   -0.448967   -1.303091
  C      2.211147   -0.569423   -2.561870
  O      1.250491   -0.796362   -3.399312
  C      3.623946   -0.508994   -3.046557
  H      4.017005   -1.430423   -3.458704
  H      4.387009   -0.159958   -2.273049
  H      3.573024    0.193698   -3.848078

 Total Charge           Charge          ....    0
 Multiplicity           Mult            ....    1
 Number of Electrons    NEL             ....  154
 Basis Dimension        Dim             ....  339

ORBITAL ENERGIES
----------------

  NO   OCC          E(Eh)            E(eV)
   0   2.0000     -19.488742      -530.3156
   1   2.0000     -19.479510      -530.0644
   2   2.0000     -19.439657      -528.9799
   3   2.0000     -19.419921      -528.4429
   4   2.0000     -14.725848      -400.7107
   5   2.0000     -10.539790      -286.8023
   6   2.0000     -10.535646      -286.6895
   7   2.0000     -10.532726      -286.6100
   8   2.0000     -10.513994      -286.1003
   9   2.0000     -10.509717      -285.9839
  10   2.0000     -10.495032      -285.5843
  11   2.0000     -10.494228      -285.5625
  12   2.0000     -10.489784      -285.4415
  13   2.0000     -10.487723      -285.3855
  14   2.0000     -10.483247      -285.2637
  15   2.0000     -10.470603      -284.9196
  16   2.0000     -10.420023      -283.5433
  17   2.0000     -10.411099      -283.3004
  18   2.0000      -3.671545       -99.9078
  19   2.0000      -2.324269       -63.2466
  20   2.0000      -2.307952       -62.8026
  21   2.0000      -2.283822       -62.1460
  22   2.0000      -1.164982       -31.7008
  23   2.0000      -1.134729       -30.8775
  24   2.0000      -1.078723       -29.3535
  25   2.0000      -1.053380       -28.6639
  26   2.0000      -1.024677       -27.8829
  27   2.0000      -0.995425       -27.0869
  28   2.0000      -0.900238       -24.4967
  29   2.0000      -0.867173       -23.5970
  30   2.0000      -0.814488       -22.1633
  31   2.0000      -0.812631       -22.1128
  32   2.0000      -0.808756       -22.0074
  33   2.0000      -0.793206       -21.5842
  34   2.0000      -0.722832       -19.6693
  35   2.0000      -0.714432       -19.4407
  36   2.0000      -0.684525       -18.6269
  37   2.0000      -0.611184       -16.6312
  38   2.0000      -0.600167       -16.3314
  39   2.0000      -0.586194       -15.9512
  40   2.0000      -0.577853       -15.7242
  41   2.0000      -0.569783       -15.5046
  42   2.0000      -0.563488       -15.3333
  43   2.0000      -0.541373       -14.7315
  44   2.0000      -0.534718       -14.5504
  45   2.0000      -0.521972       -14.2036
  46   2.0000      -0.508027       -13.8241
  47   2.0000      -0.504347       -13.7240
  48   2.0000      -0.500499       -13.6193
  49   2.0000      -0.497410       -13.5352
  50   2.0000      -0.492205       -13.3936
  51   2.0000      -0.483592       -13.1592
  52   2.0000      -0.481252       -13.0955
  53   2.0000      -0.476378       -12.9629
  54   2.0000      -0.462775       -12.5927
  55   2.0000      -0.450635       -12.2624
  56   2.0000      -0.439097       -11.9484
  57   2.0000      -0.438402       -11.9295
  58   2.0000      -0.432114       -11.7584
  59   2.0000      -0.429731       -11.6936
  60   2.0000      -0.428068       -11.6483
  61   2.0000      -0.413930       -11.2636
  62   2.0000      -0.404401       -11.0043
  63   2.0000      -0.402222       -10.9450
  64   2.0000      -0.380266       -10.3476
  65   2.0000      -0.361162        -9.8277
  66   2.0000      -0.357406        -9.7255
  67   2.0000      -0.348746        -9.4899
  68   2.0000      -0.333626        -9.0784
  69   2.0000      -0.330754        -9.0003
  70   2.0000      -0.325454        -8.8561
  71   2.0000      -0.310238        -8.4420
  72   2.0000      -0.307325        -8.3627
  73   2.0000      -0.292027        -7.9464
  74   2.0000      -0.286722        -7.8021
  75   2.0000      -0.276075        -7.5124
  76   2.0000      -0.273879        -7.4526
  77   0.0000      -0.149747        -4.0748
  78   0.0000      -0.096505        -2.6260
  79   0.0000      -0.025860        -0.7037
  80   0.0000      -0.017314        -0.4711
  81   0.0000       0.053008         1.4424

MULLIKEN ATOMIC CHARGES
-----------------------
   0 Pd:    0.507395
   1 O :   -0.490969
   2 C :    0.593480
   3 O :   -0.480696
   4 C :   -0.759684
   5 H :    0.246041
   6 H :    0.252474
   7 H :    0.246022
   8 N :   -0.477480
   9 C :   -0.571455
  10 H :    0.340836
  11 H :    0.209731
  12 H :    0.249901
  13 C :   -0.556963
  14 H :    0.278299
  15 H :    0.233108
  16 H :    0.301316
  17 C :    0.015405
  18 C :   -0.244779
  19 C :   -0.212151
  20 C :   -0.222387
  21 C :   -0.263564
  22 C :   -0.004094
  23 H :    0.244675
  24 H :    0.268780
  25 H :    0.237814
  26 H :    0.242276
  27 H :    0.080028
  28 C :   -0.305180
  29 H :    0.268052
  30 H :    0.249064
  31 O :   -0.483356
  32 C :    0.570276
  33 O :   -0.543708
  34 C :   -0.737049
  35 H :    0.244405
  36 H :    0.227597
  37 H :    0.246537
Sum of atomic charges:   -0.0000000

LOEWDIN ATOMIC CHARGES
----------------------
   0 Pd:   -0.225716
   1 O :   -0.137691
   2 C :    0.140288
   3 O :   -0.266338
   4 C :   -0.381474
   5 H :    0.150173
   6 H :    0.158378
   7 H :    0.144283
   8 N :   -0.064869
   9 C :   -0.256455
  10 H :    0.181878
  11 H :    0.115721
  12 H :    0.138745
  13 C :   -0.237823
  14 H :    0.154836
  15 H :    0.126515
  16 H :    0.165988
  17 C :   -0.058665
  18 C :   -0.110868
  19 C :   -0.118811
  20 C :   -0.115234
  21 C :   -0.119402
  22 C :    0.027398
  23 H :    0.149031
  24 H :    0.165568
  25 H :    0.149683
  26 H :    0.148910
  27 H :    0.090455
  28 C :   -0.100584
  29 H :    0.157074
  30 H :    0.145390
  31 O :   -0.146654
  32 C :    0.147843
  33 O :   -0.375385
  34 C :   -0.381817
  35 H :    0.147570
  36 H :    0.139331
  37 H :    0.152730

  Mayer bond orders larger than 0.100000
B(  0-Pd,  1-O ) :   0.6768 B(  0-Pd,  3-O ) :   0.1706 B(  0-Pd,  8-N ) :   0.4131
B(  0-Pd, 22-C ) :   0.1564 B(  0-Pd, 27-H ) :   0.1141 B(  0-Pd, 31-O ) :   0.6213
B(  1-O ,  2-C ) :   1.2909 B(  2-C ,  3-O ) :   1.7782 B(  2-C ,  4-C ) :   0.9431
B(  4-C ,  5-H ) :   0.9136 B(  4-C ,  6-H ) :   0.9078 B(  4-C ,  7-H ) :   0.9111
B(  8-N ,  9-C ) :   0.9075 B(  8-N , 13-C ) :   0.9112 B(  8-N , 28-C ) :   0.8826
B(  9-C , 10-H ) :   0.8220 B(  9-C , 11-H ) :   0.9042 B(  9-C , 12-H ) :   0.9098
B( 13-C , 14-H ) :   0.8898 B( 13-C , 15-H ) :   0.9004 B( 13-C , 16-H ) :   0.8852
B( 17-C , 18-C ) :   1.3921 B( 17-C , 22-C ) :   1.3734 B( 17-C , 28-C ) :   0.9387
B( 18-C , 19-C ) :   1.4329 B( 18-C , 25-H ) :   0.9057 B( 19-C , 20-C ) :   1.4207
B( 19-C , 26-H ) :   0.9112 B( 20-C , 21-C ) :   1.3954 B( 20-C , 23-H ) :   0.9058
B( 21-C , 22-C ) :   1.4390 B( 21-C , 24-H ) :   0.9016 B( 22-C , 27-H ) :   0.7022
B( 28-C , 29-H ) :   0.8968 B( 28-C , 30-H ) :   0.9126 B( 31-O , 32-C ) :   1.3723
B( 31-O , 33-O ) :   0.1054 B( 32-C , 33-O ) :   1.7672 B( 32-C , 34-C ) :   0.9203
B( 34-C , 35-H ) :   0.9125 B( 34-C , 36-H ) :   0.9200 B( 34-C , 37-H ) :   0.9081

Dispersion correction           -0.025853245
FINAL SINGLE POINT ENERGY      -988.254976780630
Dispersion correction            ... done

DIPOLE MOMENT
-------------
                                X             Y             Z
Electronic contribution:     18.56237       9.08235      -7.66080
Nuclear contribution   :    -20.58747     -10.13516       9.65041
                        -----------------------------------------
Total Dipole Moment    :     -2.02511      -1.05281       1.98962
                        -----------------------------------------
Magnitude (a.u.)       :      3.02788
Magnitude (Debye)      :      7.69625

Rotational constants in cm-1:     0.013405     0.008407     0.006435
Rotational constants in MHz :   401.880574   252.030015   192.919879

                             ****ORCA TERMINATED NORMALLY****
TOTAL RUN TIME: 0 days 0 hours 23 minutes 24 seconds 324 msec
