                         Program Version 5.0.3 -  RELEASE  -
|  1> ! EnGrad PBEh-3c
|  2> %output
|  3> xyzfile=True
|  4> end
|  5> %scf
|  6> maxiter 250
|  7> end
|  8> %output
|  9> Print[P_Hirshfeld] = 1
| 10> end
| 11> % maxcore
| 12> 4000
| 13> *xyz 0 1
| 14> Pd   0.46783831   0.18673608  -0.22357129
| 15> O    1.83456753   1.38822271   0.67454106
| 16> C    1.62387550   2.62458661   0.29090262
| 17> O    0.59947829   2.96648712  -0.23759079
| 18> C    2.73324699   3.59536330   0.63493216
| 19> H    2.29774625   4.49082525   1.05152093
| 20> H    3.18688163   3.87551148  -0.29130108
| 21> H    3.50694484   3.21756692   1.28654908
| 22> N   -1.30405215  -0.73878218  -0.99769033
| 23> C   -1.14125394  -1.92698126  -1.85735615
| 24> H   -0.51712023  -1.67267833  -2.69995187
| 25> H   -2.10461206  -2.36197375  -2.19033943
| 26> H   -0.64937205  -2.72944666  -1.33899679
| 27> C   -2.02042955   0.26648585  -1.82296953
| 28> H   -2.17206730   1.16423174  -1.25799901
| 29> H   -3.02219628  -0.06763171  -2.16045899
| 30> H   -1.43926730   0.48475073  -2.71009669
| 31> C   -1.70540216  -0.96606969   1.48421543
| 32> C   -1.59089649  -2.12007264   2.31053300
| 33> C   -1.29468790  -1.97177850   3.66755570
| 34> C   -1.06464025  -0.70347274   4.21027863
| 35> C   -1.20054475   0.46491098   3.41625466
| 36> C   -1.45170385   0.27231444   2.07955957
| 37> H   -0.87979447  -0.62590072   5.28613626
| 38> H   -1.15108652   1.46837674   3.84644184
| 39> H   -1.80796795  -3.09850190   1.86898148
| 40> H   -1.12316242  -2.85957196   4.28442283
| 41> H   -1.71299782   2.75527167   1.30014563
| 42> C   -2.24558279  -1.11261731   0.11302560
| 43> H   -3.14695558  -0.48682594   0.02897702
| 44> H   -2.53480018  -2.14930525  -0.06264136
| 45> O    2.07052155  -0.53991796  -1.27766727
| 46> C    2.21643801  -0.57812136  -2.55384125
| 47> O    1.23730339  -0.71709152  -3.39529539
| 48> C    3.63650275  -0.49118940  -3.05261583
| 49> H    4.05553300  -1.41083290  -3.49806754
| 50> H    4.31938034  -0.16131668  -2.30604501
| 51> H    3.54634380   0.24525783  -3.85746046
| 52> *
| 53>
| 54>                          ****END OF INPUT****

CARTESIAN COORDINATES (ANGSTROEM)
---------------------------------
  Pd     0.467838    0.186736   -0.223571
  O      1.834568    1.388223    0.674541
  C      1.623875    2.624587    0.290903
  O      0.599478    2.966487   -0.237591
  C      2.733247    3.595363    0.634932
  H      2.297746    4.490825    1.051521
  H      3.186882    3.875511   -0.291301
  H      3.506945    3.217567    1.286549
  N     -1.304052   -0.738782   -0.997690
  C     -1.141254   -1.926981   -1.857356
  H     -0.517120   -1.672678   -2.699952
  H     -2.104612   -2.361974   -2.190339
  H     -0.649372   -2.729447   -1.338997
  C     -2.020430    0.266486   -1.822970
  H     -2.172067    1.164232   -1.257999
  H     -3.022196   -0.067632   -2.160459
  H     -1.439267    0.484751   -2.710097
  C     -1.705402   -0.966070    1.484215
  C     -1.590896   -2.120073    2.310533
  C     -1.294688   -1.971779    3.667556
  C     -1.064640   -0.703473    4.210279
  C     -1.200545    0.464911    3.416255
  C     -1.451704    0.272314    2.079560
  H     -0.879794   -0.625901    5.286136
  H     -1.151087    1.468377    3.846442
  H     -1.807968   -3.098502    1.868981
  H     -1.123162   -2.859572    4.284423
  H     -1.712998    2.755272    1.300146
  C     -2.245583   -1.112617    0.113026
  H     -3.146956   -0.486826    0.028977
  H     -2.534800   -2.149305   -0.062641
  O      2.070522   -0.539918   -1.277667
  C      2.216438   -0.578121   -2.553841
  O      1.237303   -0.717092   -3.395295
  C      3.636503   -0.491189   -3.052616
  H      4.055533   -1.410833   -3.498068
  H      4.319380   -0.161317   -2.306045
  H      3.546344    0.245258   -3.857460

 Total Charge           Charge          ....    0
 Multiplicity           Mult            ....    1
 Number of Electrons    NEL             ....  154
 Basis Dimension        Dim             ....  339

ORBITAL ENERGIES
----------------

  NO   OCC          E(Eh)            E(eV)
   0   2.0000     -19.480806      -530.0997
   1   2.0000     -19.478737      -530.0434
   2   2.0000     -19.445921      -529.1504
   3   2.0000     -19.421238      -528.4787
   4   2.0000     -14.726609      -400.7314
   5   2.0000     -10.538131      -286.7571
   6   2.0000     -10.537453      -286.7387
   7   2.0000     -10.535760      -286.6926
   8   2.0000     -10.512981      -286.0727
   9   2.0000     -10.509340      -285.9737
  10   2.0000     -10.495251      -285.5903
  11   2.0000     -10.492733      -285.5218
  12   2.0000     -10.490532      -285.4619
  13   2.0000     -10.486173      -285.3433
  14   2.0000     -10.480713      -285.1947
  15   2.0000     -10.466558      -284.8095
  16   2.0000     -10.415566      -283.4220
  17   2.0000     -10.414508      -283.3932
  18   2.0000      -3.669790       -99.8601
  19   2.0000      -2.321390       -63.1682
  20   2.0000      -2.308099       -62.8066
  21   2.0000      -2.281534       -62.0837
  22   2.0000      -1.162483       -31.6328
  23   2.0000      -1.130623       -30.7658
  24   2.0000      -1.079214       -29.3669
  25   2.0000      -1.056831       -28.7578
  26   2.0000      -1.021580       -27.7986
  27   2.0000      -0.993283       -27.0286
  28   2.0000      -0.901021       -24.5180
  29   2.0000      -0.867798       -23.6140
  30   2.0000      -0.817332       -22.2407
  31   2.0000      -0.809534       -22.0285
  32   2.0000      -0.806489       -21.9457
  33   2.0000      -0.797699       -21.7065
  34   2.0000      -0.725604       -19.7447
  35   2.0000      -0.715299       -19.4643
  36   2.0000      -0.683338       -18.5946
  37   2.0000      -0.610607       -16.6155
  38   2.0000      -0.594309       -16.1720
  39   2.0000      -0.586222       -15.9519
  40   2.0000      -0.579417       -15.7667
  41   2.0000      -0.572030       -15.5657
  42   2.0000      -0.564024       -15.3479
  43   2.0000      -0.544011       -14.8033
  44   2.0000      -0.532102       -14.4792
  45   2.0000      -0.517762       -14.0890
  46   2.0000      -0.508784       -13.8447
  47   2.0000      -0.503953       -13.7133
  48   2.0000      -0.501985       -13.6597
  49   2.0000      -0.498074       -13.5533
  50   2.0000      -0.493844       -13.4382
  51   2.0000      -0.482367       -13.1259
  52   2.0000      -0.479238       -13.0407
  53   2.0000      -0.475521       -12.9396
  54   2.0000      -0.463987       -12.6257
  55   2.0000      -0.450079       -12.2473
  56   2.0000      -0.442109       -12.0304
  57   2.0000      -0.439461       -11.9583
  58   2.0000      -0.435102       -11.8397
  59   2.0000      -0.430004       -11.7010
  60   2.0000      -0.429064       -11.6754
  61   2.0000      -0.422700       -11.5023
  62   2.0000      -0.407299       -11.0832
  63   2.0000      -0.405581       -11.0364
  64   2.0000      -0.382419       -10.4062
  65   2.0000      -0.358528        -9.7560
  66   2.0000      -0.356575        -9.7029
  67   2.0000      -0.346686        -9.4338
  68   2.0000      -0.331172        -9.0116
  69   2.0000      -0.330663        -8.9978
  70   2.0000      -0.322639        -8.7794
  71   2.0000      -0.309411        -8.4195
  72   2.0000      -0.308591        -8.3972
  73   2.0000      -0.295789        -8.0488
  74   2.0000      -0.290655        -7.9091
  75   2.0000      -0.280735        -7.6392
  76   2.0000      -0.273733        -7.4487
  77   0.0000      -0.136743        -3.7210
  78   0.0000      -0.092511        -2.5174
  79   0.0000      -0.028838        -0.7847
  80   0.0000      -0.014938        -0.4065
  81   0.0000       0.056336         1.5330

MULLIKEN ATOMIC CHARGES
-----------------------
   0 Pd:    0.523643
   1 O :   -0.519175
   2 C :    0.574664
   3 O :   -0.439110
   4 C :   -0.752006
   5 H :    0.238951
   6 H :    0.249776
   7 H :    0.247577
   8 N :   -0.487832
   9 C :   -0.575350
  10 H :    0.340125
  11 H :    0.210590
  12 H :    0.255505
  13 C :   -0.564438
  14 H :    0.281748
  15 H :    0.233301
  16 H :    0.305018
  17 C :    0.017676
  18 C :   -0.241202
  19 C :   -0.211710
  20 C :   -0.224724
  21 C :   -0.256346
  22 C :   -0.012695
  23 H :    0.243471
  24 H :    0.267299
  25 H :    0.236783
  26 H :    0.241250
  27 H :    0.085506
  28 C :   -0.314494
  29 H :    0.267550
  30 H :    0.252522
  31 O :   -0.501598
  32 C :    0.570676
  33 O :   -0.539931
  34 C :   -0.737584
  35 H :    0.240800
  36 H :    0.249851
  37 H :    0.243911
Sum of atomic charges:   -0.0000000

LOEWDIN ATOMIC CHARGES
----------------------
   0 Pd:   -0.225067
   1 O :   -0.179094
   2 C :    0.136924
   3 O :   -0.225287
   4 C :   -0.385337
   5 H :    0.146538
   6 H :    0.154774
   7 H :    0.144494
   8 N :   -0.060221
   9 C :   -0.257466
  10 H :    0.178679
  11 H :    0.115311
  12 H :    0.140052
  13 C :   -0.239003
  14 H :    0.152872
  15 H :    0.126272
  16 H :    0.166799
  17 C :   -0.060267
  18 C :   -0.107142
  19 C :   -0.123033
  20 C :   -0.113114
  21 C :   -0.119419
  22 C :    0.017347
  23 H :    0.149133
  24 H :    0.163961
  25 H :    0.148879
  26 H :    0.148652
  27 H :    0.096869
  28 C :   -0.098605
  29 H :    0.157500
  30 H :    0.146278
  31 O :   -0.154427
  32 C :    0.163416
  33 O :   -0.373155
  34 C :   -0.382526
  35 H :    0.149484
  36 H :    0.142496
  37 H :    0.156431

  Mayer bond orders larger than 0.100000
B(  0-Pd,  1-O ) :   0.6947 B(  0-Pd,  3-O ) :   0.1461 B(  0-Pd,  8-N ) :   0.4129
B(  0-Pd, 22-C ) :   0.1325 B(  0-Pd, 27-H ) :   0.1014 B(  0-Pd, 31-O ) :   0.6408
B(  1-O ,  2-C ) :   1.2351 B(  2-C ,  3-O ) :   1.8539 B(  2-C ,  4-C ) :   0.9371
B(  4-C ,  5-H ) :   0.9168 B(  4-C ,  6-H ) :   0.9098 B(  4-C ,  7-H ) :   0.9129
B(  8-N ,  9-C ) :   0.9139 B(  8-N , 13-C ) :   0.9119 B(  8-N , 28-C ) :   0.8752
B(  9-C , 10-H ) :   0.8267 B(  9-C , 11-H ) :   0.9052 B(  9-C , 12-H ) :   0.9076
B( 13-C , 14-H ) :   0.8884 B( 13-C , 15-H ) :   0.9009 B( 13-C , 16-H ) :   0.8832
B( 17-C , 18-C ) :   1.3882 B( 17-C , 22-C ) :   1.3754 B( 17-C , 28-C ) :   0.9435
B( 18-C , 19-C ) :   1.4286 B( 18-C , 21-C ) :   0.1003 B( 18-C , 25-H ) :   0.9066
B( 19-C , 20-C ) :   1.4250 B( 19-C , 26-H ) :   0.9111 B( 20-C , 21-C ) :   1.3848
B( 20-C , 23-H ) :   0.9068 B( 21-C , 22-C ) :   1.4561 B( 21-C , 24-H ) :   0.9015
B( 22-C , 27-H ) :   0.7291 B( 28-C , 29-H ) :   0.8969 B( 28-C , 30-H ) :   0.9118
B( 31-O , 32-C ) :   1.3356 B( 31-O , 33-O ) :   0.1016 B( 32-C , 33-O ) :   1.7705
B( 32-C , 34-C ) :   0.9278 B( 34-C , 35-H ) :   0.9161 B( 34-C , 36-H ) :   0.9064
B( 34-C , 37-H ) :   0.9127

Dispersion correction           -0.026031968
FINAL SINGLE POINT ENERGY      -988.274466853356
Dispersion correction            ... done

DIPOLE MOMENT
-------------
                                X             Y             Z
Electronic contribution:     19.44045       7.50986      -9.51449
Nuclear contribution   :    -21.48046      -8.59620      11.32608
                        -----------------------------------------
Total Dipole Moment    :     -2.04001      -1.08633       1.81159
                        -----------------------------------------
Magnitude (a.u.)       :      2.93660
Magnitude (Debye)      :      7.46424

Rotational constants in cm-1:     0.013513     0.008410     0.006447
Rotational constants in MHz :   405.101499   252.123305   193.287776

                             ****ORCA TERMINATED NORMALLY****
TOTAL RUN TIME: 0 days 0 hours 23 minutes 55 seconds 785 msec
