                         Program Version 5.0.3 -  RELEASE  -
|  1> ! EnGrad PBEh-3c
|  2> %output
|  3> xyzfile=True
|  4> end
|  5> %scf
|  6> maxiter 250
|  7> end
|  8> %output
|  9> Print[P_Hirshfeld] = 1
| 10> end
| 11> % maxcore
| 12> 4000
| 13> *xyz 0 1
| 14> Pd   0.48627933   0.18538054  -0.23557222
| 15> O    1.83014304   1.37174345   0.67571776
| 16> C    1.60607293   2.62075975   0.29735859
| 17> O    0.59979534   2.98208194  -0.25410345
| 18> C    2.73419213   3.59703193   0.63399515
| 19> H    2.29971102   4.49532865   1.06010214
| 20> H    3.19282375   3.87027616  -0.29818880
| 21> H    3.49836298   3.19791928   1.28987253
| 22> N   -1.30354545  -0.74700421  -1.00559627
| 23> C   -1.12490688  -1.93705251  -1.83771474
| 24> H   -0.51251955  -1.69299065  -2.68032566
| 25> H   -2.07546965  -2.35845932  -2.18335819
| 26> H   -0.63821900  -2.73043027  -1.30988557
| 27> C   -2.00300437   0.26257371  -1.82858664
| 28> H   -2.16340773   1.16157015  -1.27385741
| 29> H   -2.99667442  -0.07498880  -2.16141309
| 30> H   -1.42963392   0.47927456  -2.71860061
| 31> C   -1.71275184  -0.93669252   1.48972897
| 32> C   -1.60012481  -2.10135160   2.31653344
| 33> C   -1.31493885  -1.95723442   3.67075347
| 34> C   -1.07229601  -0.69956939   4.21071741
| 35> C   -1.18571483   0.47198186   3.40678423
| 36> C   -1.46728913   0.30399107   2.07844273
| 37> H   -0.87896592  -0.63015910   5.28722494
| 38> H   -1.10501003   1.45694899   3.84564488
| 39> H   -1.85146023  -3.07006925   1.87912611
| 40> H   -1.14475682  -2.84844953   4.28016108
| 41> H   -1.68133816   2.60258702   1.30394566
| 42> C   -2.24526759  -1.09648889   0.12093864
| 43> H   -3.14454641  -0.47518740   0.01593673
| 44> H   -2.54651698  -2.12248573  -0.05516447
| 45> O    2.04271260  -0.60943542  -1.26468592
| 46> C    2.20238007  -0.59252441  -2.53062223
| 47> O    1.23597637  -0.64060649  -3.40222730
| 48> C    3.63686296  -0.48133015  -3.06872541
| 49> H    4.07127372  -1.39690260  -3.52148027
| 50> H    4.28334297  -0.16005705  -2.31891427
| 51> H    3.53872751   0.27517037  -3.86425768
| 52> *
| 53>
| 54>                          ****END OF INPUT****

CARTESIAN COORDINATES (ANGSTROEM)
---------------------------------
  Pd     0.486279    0.185381   -0.235572
  O      1.830143    1.371743    0.675718
  C      1.606073    2.620760    0.297359
  O      0.599795    2.982082   -0.254103
  C      2.734192    3.597032    0.633995
  H      2.299711    4.495329    1.060102
  H      3.192824    3.870276   -0.298189
  H      3.498363    3.197919    1.289873
  N     -1.303545   -0.747004   -1.005596
  C     -1.124907   -1.937053   -1.837715
  H     -0.512520   -1.692991   -2.680326
  H     -2.075470   -2.358459   -2.183358
  H     -0.638219   -2.730430   -1.309886
  C     -2.003004    0.262574   -1.828587
  H     -2.163408    1.161570   -1.273857
  H     -2.996674   -0.074989   -2.161413
  H     -1.429634    0.479275   -2.718601
  C     -1.712752   -0.936693    1.489729
  C     -1.600125   -2.101352    2.316533
  C     -1.314939   -1.957234    3.670753
  C     -1.072296   -0.699569    4.210717
  C     -1.185715    0.471982    3.406784
  C     -1.467289    0.303991    2.078443
  H     -0.878966   -0.630159    5.287225
  H     -1.105010    1.456949    3.845645
  H     -1.851460   -3.070069    1.879126
  H     -1.144757   -2.848450    4.280161
  H     -1.681338    2.602587    1.303946
  C     -2.245268   -1.096489    0.120939
  H     -3.144546   -0.475187    0.015937
  H     -2.546517   -2.122486   -0.055164
  O      2.042713   -0.609435   -1.264686
  C      2.202380   -0.592524   -2.530622
  O      1.235976   -0.640606   -3.402227
  C      3.636863   -0.481330   -3.068725
  H      4.071274   -1.396903   -3.521480
  H      4.283343   -0.160057   -2.318914
  H      3.538728    0.275170   -3.864258

 Total Charge           Charge          ....    0
 Multiplicity           Mult            ....    1
 Number of Electrons    NEL             ....  154
 Basis Dimension        Dim             ....  339

ORBITAL ENERGIES
----------------

  NO   OCC          E(Eh)            E(eV)
   0   2.0000     -19.485099      -530.2165
   1   2.0000     -19.483370      -530.1694
   2   2.0000     -19.451980      -529.3153
   3   2.0000     -19.420426      -528.4567
   4   2.0000     -14.724963      -400.6866
   5   2.0000     -10.543800      -286.9114
   6   2.0000     -10.539315      -286.7894
   7   2.0000     -10.535122      -286.6752
   8   2.0000     -10.511221      -286.0249
   9   2.0000     -10.508418      -285.9486
  10   2.0000     -10.493999      -285.5562
  11   2.0000     -10.489711      -285.4395
  12   2.0000     -10.488924      -285.4181
  13   2.0000     -10.483468      -285.2697
  14   2.0000     -10.478929      -285.1461
  15   2.0000     -10.464129      -284.7434
  16   2.0000     -10.418954      -283.5141
  17   2.0000     -10.414384      -283.3898
  18   2.0000      -3.671563       -99.9083
  19   2.0000      -2.323000       -63.2121
  20   2.0000      -2.310628       -62.8754
  21   2.0000      -2.283050       -62.1250
  22   2.0000      -1.162784       -31.6410
  23   2.0000      -1.136235       -30.9185
  24   2.0000      -1.079910       -29.3858
  25   2.0000      -1.060514       -28.8580
  26   2.0000      -1.021874       -27.8066
  27   2.0000      -0.992852       -27.0169
  28   2.0000      -0.900511       -24.5042
  29   2.0000      -0.869108       -23.6496
  30   2.0000      -0.820542       -22.3281
  31   2.0000      -0.809660       -22.0320
  32   2.0000      -0.803666       -21.8689
  33   2.0000      -0.792821       -21.5738
  34   2.0000      -0.725896       -19.7526
  35   2.0000      -0.715665       -19.4742
  36   2.0000      -0.682585       -18.5741
  37   2.0000      -0.611173       -16.6309
  38   2.0000      -0.596531       -16.2324
  39   2.0000      -0.588839       -16.0231
  40   2.0000      -0.579966       -15.7817
  41   2.0000      -0.573146       -15.5961
  42   2.0000      -0.564429       -15.3589
  43   2.0000      -0.544903       -14.8276
  44   2.0000      -0.531995       -14.4763
  45   2.0000      -0.518346       -14.1049
  46   2.0000      -0.508380       -13.8337
  47   2.0000      -0.505074       -13.7438
  48   2.0000      -0.503185       -13.6924
  49   2.0000      -0.498865       -13.5748
  50   2.0000      -0.493978       -13.4418
  51   2.0000      -0.482431       -13.1276
  52   2.0000      -0.479606       -13.0507
  53   2.0000      -0.474937       -12.9237
  54   2.0000      -0.464777       -12.6472
  55   2.0000      -0.449769       -12.2388
  56   2.0000      -0.444286       -12.0896
  57   2.0000      -0.440827       -11.9955
  58   2.0000      -0.435939       -11.8625
  59   2.0000      -0.432060       -11.7570
  60   2.0000      -0.431183       -11.7331
  61   2.0000      -0.426352       -11.6016
  62   2.0000      -0.411655       -11.2017
  63   2.0000      -0.404054       -10.9949
  64   2.0000      -0.386425       -10.5152
  65   2.0000      -0.359261        -9.7760
  66   2.0000      -0.357163        -9.7189
  67   2.0000      -0.347476        -9.4553
  68   2.0000      -0.333635        -9.0787
  69   2.0000      -0.331319        -9.0156
  70   2.0000      -0.322824        -8.7845
  71   2.0000      -0.313027        -8.5179
  72   2.0000      -0.311213        -8.4685
  73   2.0000      -0.303435        -8.2569
  74   2.0000      -0.292661        -7.9637
  75   2.0000      -0.283553        -7.7159
  76   2.0000      -0.272575        -7.4171
  77   0.0000      -0.124515        -3.3882
  78   0.0000      -0.092795        -2.5251
  79   0.0000      -0.029137        -0.7929
  80   0.0000      -0.013139        -0.3575
  81   0.0000       0.057264         1.5582

MULLIKEN ATOMIC CHARGES
-----------------------
   0 Pd:    0.540291
   1 O :   -0.527514
   2 C :    0.574105
   3 O :   -0.433591
   4 C :   -0.746860
   5 H :    0.236691
   6 H :    0.249913
   7 H :    0.245715
   8 N :   -0.484665
   9 C :   -0.574295
  10 H :    0.336435
  11 H :    0.212181
  12 H :    0.257125
  13 C :   -0.567990
  14 H :    0.280318
  15 H :    0.232994
  16 H :    0.307729
  17 C :    0.014039
  18 C :   -0.238384
  19 C :   -0.209704
  20 C :   -0.226959
  21 C :   -0.246791
  22 C :   -0.032983
  23 H :    0.243047
  24 H :    0.264167
  25 H :    0.235591
  26 H :    0.240196
  27 H :    0.097942
  28 C :   -0.319100
  29 H :    0.266651
  30 H :    0.253481
  31 O :   -0.500310
  32 C :    0.564087
  33 O :   -0.540705
  34 C :   -0.734577
  35 H :    0.236533
  36 H :    0.250668
  37 H :    0.244527
Sum of atomic charges:    0.0000000

LOEWDIN ATOMIC CHARGES
----------------------
   0 Pd:   -0.214232
   1 O :   -0.185857
   2 C :    0.147299
   3 O :   -0.222813
   4 C :   -0.385631
   5 H :    0.145620
   6 H :    0.154746
   7 H :    0.143741
   8 N :   -0.061753
   9 C :   -0.257482
  10 H :    0.176500
  11 H :    0.115052
  12 H :    0.141238
  13 C :   -0.240212
  14 H :    0.152174
  15 H :    0.124988
  16 H :    0.167499
  17 C :   -0.059821
  18 C :   -0.106831
  19 C :   -0.124595
  20 C :   -0.113310
  21 C :   -0.119423
  22 C :    0.002288
  23 H :    0.148855
  24 H :    0.160944
  25 H :    0.148323
  26 H :    0.148029
  27 H :    0.109318
  28 C :   -0.099204
  29 H :    0.156576
  30 H :    0.145680
  31 O :   -0.147728
  32 C :    0.166051
  33 O :   -0.375396
  34 C :   -0.383926
  35 H :    0.147803
  36 H :    0.139594
  37 H :    0.155895

  Mayer bond orders larger than 0.100000
B(  0-Pd,  1-O ) :   0.7002 B(  0-Pd,  3-O ) :   0.1424 B(  0-Pd,  8-N ) :   0.4109
B(  0-Pd, 22-C ) :   0.1168 B(  0-Pd, 31-O ) :   0.6349 B(  1-O ,  2-C ) :   1.2193
B(  2-C ,  3-O ) :   1.8626 B(  2-C ,  4-C ) :   0.9333 B(  4-C ,  5-H ) :   0.9175
B(  4-C ,  6-H ) :   0.9104 B(  4-C ,  7-H ) :   0.9130 B(  8-N ,  9-C ) :   0.9193
B(  8-N , 13-C ) :   0.9146 B(  8-N , 28-C ) :   0.8738 B(  9-C , 10-H ) :   0.8313
B(  9-C , 11-H ) :   0.9054 B(  9-C , 12-H ) :   0.9075 B( 13-C , 14-H ) :   0.8897
B( 13-C , 15-H ) :   0.9009 B( 13-C , 16-H ) :   0.8815 B( 17-C , 18-C ) :   1.3870
B( 17-C , 22-C ) :   1.3830 B( 17-C , 28-C ) :   0.9479 B( 18-C , 19-C ) :   1.4288
B( 18-C , 21-C ) :   0.1020 B( 18-C , 25-H ) :   0.9074 B( 19-C , 20-C ) :   1.4278
B( 19-C , 26-H ) :   0.9111 B( 20-C , 21-C ) :   1.3856 B( 20-C , 23-H ) :   0.9075
B( 21-C , 22-C ) :   1.4606 B( 21-C , 24-H ) :   0.9023 B( 22-C , 27-H ) :   0.7518
B( 28-C , 29-H ) :   0.8972 B( 28-C , 30-H ) :   0.9114 B( 31-O , 32-C ) :   1.3434
B( 31-O , 33-O ) :   0.1008 B( 32-C , 33-O ) :   1.7617 B( 32-C , 34-C ) :   0.9245
B( 34-C , 35-H ) :   0.9193 B( 34-C , 36-H ) :   0.9032 B( 34-C , 37-H ) :   0.9158

Dispersion correction           -0.026156131
FINAL SINGLE POINT ENERGY      -988.291984362080
Dispersion correction            ... done

DIPOLE MOMENT
-------------
                                X             Y             Z
Electronic contribution:     20.47554       7.40836     -10.15318
Nuclear contribution   :    -22.51050      -8.47096      11.97571
                        -----------------------------------------
Total Dipole Moment    :     -2.03496      -1.06261       1.82254
                        -----------------------------------------
Magnitude (a.u.)       :      2.93118
Magnitude (Debye)      :      7.45048

Rotational constants in cm-1:     0.013582     0.008407     0.006457
Rotational constants in MHz :   407.185965   252.029250   193.580592

                             ****ORCA TERMINATED NORMALLY****
TOTAL RUN TIME: 0 days 0 hours 16 minutes 53 seconds 136 msec
