                         Program Version 5.0.3 -  RELEASE  -
|  1> ! EnGrad PBEh-3c
|  2> %output
|  3> xyzfile=True
|  4> end
|  5> %scf
|  6> maxiter 250
|  7> end
|  8> %output
|  9> Print[P_Hirshfeld] = 1
| 10> end
| 11> % maxcore
| 12> 4000
| 13> *xyz 0 1
| 14> Pd   0.51508917   0.17859170  -0.25628262
| 15> O    1.81513733   1.35706636   0.67247347
| 16> C    1.59263310   2.60993157   0.31344051
| 17> O    0.59341455   3.01047865  -0.28742869
| 18> C    2.72822341   3.59305095   0.63518517
| 19> H    2.30693626   4.50132728   1.07553222
| 20> H    3.20431612   3.85884912  -0.30967970
| 21> H    3.48181833   3.15990897   1.29581212
| 22> N   -1.29674061  -0.75572478  -1.00903475
| 23> C   -1.09558587  -1.95760186  -1.79752815
| 24> H   -0.49386198  -1.73337856  -2.64369048
| 25> H   -2.02334935  -2.35916476  -2.16777069
| 26> H   -0.61435953  -2.73738856  -1.24623928
| 27> C   -1.96744290   0.24802033  -1.84558355
| 28> H   -2.14450873   1.15975912  -1.30349327
| 29> H   -2.94964202  -0.09087870  -2.16646347
| 30> H   -1.40661595   0.46552133  -2.73723523
| 31> C   -1.72875489  -0.88846278   1.50629011
| 32> C   -1.62982075  -2.05378703   2.32318093
| 33> C   -1.35684402  -1.93336843   3.67607365
| 34> C   -1.08582108  -0.68329433   4.21198774
| 35> C   -1.15293502   0.47918461   3.40111887
| 36> C   -1.49374146   0.37456387   2.07138594
| 37> H   -0.87711735  -0.63766648   5.28777041
| 38> H   -1.00838016   1.44489771   3.84570557
| 39> H   -1.94366757  -3.01562996   1.89731640
| 40> H   -1.19211628  -2.82767042   4.27419546
| 41> H   -1.61500416   2.28551252   1.31246899
| 42> C   -2.24618254  -1.05896169   0.12609603
| 43> H   -3.13873059  -0.44587416  -0.01000910
| 44> H   -2.57104161  -2.07264826  -0.04026580
| 45> O    2.00082893  -0.75377664  -1.23774952
| 46> C    2.15977170  -0.61302957  -2.52605211
| 47> O    1.24850126  -0.49516174  -3.39368885
| 48> C    3.61163994  -0.46859874  -3.11587457
| 49> H    4.10347806  -1.35988229  -3.56947955
| 50> H    4.23105809  -0.14604823  -2.32817232
| 51> H    3.51745653   0.33284172  -3.87030000
| 52> *
| 53>
| 54>                          ****END OF INPUT****

CARTESIAN COORDINATES (ANGSTROEM)
---------------------------------
  Pd     0.515089    0.178592   -0.256283
  O      1.815137    1.357066    0.672473
  C      1.592633    2.609932    0.313441
  O      0.593415    3.010479   -0.287429
  C      2.728223    3.593051    0.635185
  H      2.306936    4.501327    1.075532
  H      3.204316    3.858849   -0.309680
  H      3.481818    3.159909    1.295812
  N     -1.296741   -0.755725   -1.009035
  C     -1.095586   -1.957602   -1.797528
  H     -0.493862   -1.733379   -2.643690
  H     -2.023349   -2.359165   -2.167771
  H     -0.614360   -2.737389   -1.246239
  C     -1.967443    0.248020   -1.845584
  H     -2.144509    1.159759   -1.303493
  H     -2.949642   -0.090879   -2.166463
  H     -1.406616    0.465521   -2.737235
  C     -1.728755   -0.888463    1.506290
  C     -1.629821   -2.053787    2.323181
  C     -1.356844   -1.933368    3.676074
  C     -1.085821   -0.683294    4.211988
  C     -1.152935    0.479185    3.401119
  C     -1.493741    0.374564    2.071386
  H     -0.877117   -0.637666    5.287770
  H     -1.008380    1.444898    3.845706
  H     -1.943668   -3.015630    1.897316
  H     -1.192116   -2.827670    4.274195
  H     -1.615004    2.285513    1.312469
  C     -2.246183   -1.058962    0.126096
  H     -3.138731   -0.445874   -0.010009
  H     -2.571042   -2.072648   -0.040266
  O      2.000829   -0.753777   -1.237750
  C      2.159772   -0.613030   -2.526052
  O      1.248501   -0.495162   -3.393689
  C      3.611640   -0.468599   -3.115875
  H      4.103478   -1.359882   -3.569480
  H      4.231058   -0.146048   -2.328172
  H      3.517457    0.332842   -3.870300

 Total Charge           Charge          ....    0
 Multiplicity           Mult            ....    1
 Number of Electrons    NEL             ....  154
 Basis Dimension        Dim             ....  339

ORBITAL ENERGIES
----------------

  NO   OCC          E(Eh)            E(eV)
   0   2.0000     -19.490619      -530.3667
   1   2.0000     -19.488416      -530.3068
   2   2.0000     -19.453838      -529.3658
   3   2.0000     -19.432852      -528.7948
   4   2.0000     -14.723859      -400.6566
   5   2.0000     -10.550682      -287.0987
   6   2.0000     -10.545330      -286.9530
   7   2.0000     -10.531670      -286.5813
   8   2.0000     -10.507806      -285.9319
   9   2.0000     -10.503905      -285.8258
  10   2.0000     -10.488128      -285.3965
  11   2.0000     -10.483197      -285.2623
  12   2.0000     -10.482698      -285.2487
  13   2.0000     -10.478177      -285.1257
  14   2.0000     -10.478006      -285.1210
  15   2.0000     -10.464421      -284.7514
  16   2.0000     -10.424432      -283.6632
  17   2.0000     -10.417987      -283.4878
  18   2.0000      -3.672528       -99.9346
  19   2.0000      -2.323946       -63.2378
  20   2.0000      -2.312454       -62.9251
  21   2.0000      -2.283569       -62.1391
  22   2.0000      -1.154780       -31.4232
  23   2.0000      -1.135272       -30.8923
  24   2.0000      -1.082390       -29.4533
  25   2.0000      -1.061494       -28.8847
  26   2.0000      -1.043648       -28.3991
  27   2.0000      -0.988757       -26.9055
  28   2.0000      -0.896959       -24.4075
  29   2.0000      -0.866176       -23.5698
  30   2.0000      -0.825679       -22.4679
  31   2.0000      -0.808209       -21.9925
  32   2.0000      -0.801131       -21.7999
  33   2.0000      -0.784969       -21.3601
  34   2.0000      -0.726676       -19.7739
  35   2.0000      -0.710818       -19.3423
  36   2.0000      -0.681717       -18.5505
  37   2.0000      -0.610121       -16.6022
  38   2.0000      -0.596918       -16.2430
  39   2.0000      -0.591494       -16.0954
  40   2.0000      -0.580107       -15.7855
  41   2.0000      -0.574818       -15.6416
  42   2.0000      -0.562266       -15.3000
  43   2.0000      -0.543237       -14.7822
  44   2.0000      -0.530786       -14.4434
  45   2.0000      -0.516763       -14.0618
  46   2.0000      -0.508683       -13.8420
  47   2.0000      -0.505182       -13.7467
  48   2.0000      -0.502910       -13.6849
  49   2.0000      -0.497821       -13.5464
  50   2.0000      -0.491808       -13.3828
  51   2.0000      -0.483780       -13.1643
  52   2.0000      -0.480565       -13.0768
  53   2.0000      -0.475496       -12.9389
  54   2.0000      -0.463582       -12.6147
  55   2.0000      -0.449591       -12.2340
  56   2.0000      -0.443313       -12.0632
  57   2.0000      -0.439949       -11.9716
  58   2.0000      -0.434693       -11.8286
  59   2.0000      -0.434375       -11.8200
  60   2.0000      -0.431018       -11.7286
  61   2.0000      -0.427054       -11.6207
  62   2.0000      -0.414716       -11.2850
  63   2.0000      -0.401626       -10.9288
  64   2.0000      -0.390518       -10.6265
  65   2.0000      -0.363596        -9.8939
  66   2.0000      -0.358435        -9.7535
  67   2.0000      -0.350715        -9.5434
  68   2.0000      -0.343891        -9.3577
  69   2.0000      -0.335082        -9.1180
  70   2.0000      -0.327693        -8.9170
  71   2.0000      -0.316993        -8.6258
  72   2.0000      -0.316088        -8.6012
  73   2.0000      -0.308262        -8.3882
  74   2.0000      -0.296188        -8.0597
  75   2.0000      -0.288125        -7.8403
  76   2.0000      -0.280172        -7.6239
  77   0.0000      -0.095126        -2.5885
  78   0.0000      -0.083373        -2.2687
  79   0.0000      -0.024379        -0.6634
  80   0.0000      -0.011199        -0.3048
  81   0.0000       0.059786         1.6269

MULLIKEN ATOMIC CHARGES
-----------------------
   0 Pd:    0.568372
   1 O :   -0.530591
   2 C :    0.579232
   3 O :   -0.456952
   4 C :   -0.739065
   5 H :    0.236481
   6 H :    0.249652
   7 H :    0.241522
   8 N :   -0.482400
   9 C :   -0.569483
  10 H :    0.324530
  11 H :    0.217830
  12 H :    0.262134
  13 C :   -0.572341
  14 H :    0.276075
  15 H :    0.234405
  16 H :    0.310539
  17 C :    0.017245
  18 C :   -0.238480
  19 C :   -0.209208
  20 C :   -0.226742
  21 C :   -0.221466
  22 C :   -0.103230
  23 H :    0.240340
  24 H :    0.254575
  25 H :    0.229738
  26 H :    0.238582
  27 H :    0.142958
  28 C :   -0.326163
  29 H :    0.265056
  30 H :    0.253112
  31 O :   -0.523533
  32 C :    0.564169
  33 O :   -0.497652
  34 C :   -0.732852
  35 H :    0.233113
  36 H :    0.245162
  37 H :    0.245335
Sum of atomic charges:    0.0000000

LOEWDIN ATOMIC CHARGES
----------------------
   0 Pd:   -0.197030
   1 O :   -0.181930
   2 C :    0.165062
   3 O :   -0.254799
   4 C :   -0.383256
   5 H :    0.145783
   6 H :    0.156186
   7 H :    0.142434
   8 N :   -0.062918
   9 C :   -0.254885
  10 H :    0.171342
  11 H :    0.116090
  12 H :    0.144727
  13 C :   -0.241392
  14 H :    0.151548
  15 H :    0.123733
  16 H :    0.167411
  17 C :   -0.058680
  18 C :   -0.111429
  19 C :   -0.124860
  20 C :   -0.116856
  21 C :   -0.119081
  22 C :   -0.038415
  23 H :    0.147386
  24 H :    0.154521
  25 H :    0.146323
  26 H :    0.146485
  27 H :    0.147298
  28 C :   -0.101012
  29 H :    0.154223
  30 H :    0.144058
  31 O :   -0.172941
  32 C :    0.169181
  33 O :   -0.322580
  34 C :   -0.387750
  35 H :    0.145085
  36 H :    0.138034
  37 H :    0.152905

  Mayer bond orders larger than 0.100000
B(  0-Pd,  1-O ) :   0.6825 B(  0-Pd,  3-O ) :   0.1484 B(  0-Pd,  8-N ) :   0.4097
B(  0-Pd, 31-O ) :   0.6609 B(  1-O ,  2-C ) :   1.2356 B(  2-C ,  3-O ) :   1.8288
B(  2-C ,  4-C ) :   0.9317 B(  4-C ,  5-H ) :   0.9174 B(  4-C ,  6-H ) :   0.9108
B(  4-C ,  7-H ) :   0.9128 B(  8-N ,  9-C ) :   0.9253 B(  8-N , 13-C ) :   0.9183
B(  8-N , 28-C ) :   0.8718 B(  9-C , 10-H ) :   0.8472 B(  9-C , 11-H ) :   0.9048
B(  9-C , 12-H ) :   0.9068 B( 13-C , 14-H ) :   0.8934 B( 13-C , 15-H ) :   0.8995
B( 13-C , 16-H ) :   0.8797 B( 17-C , 18-C ) :   1.3922 B( 17-C , 22-C ) :   1.3885
B( 17-C , 28-C ) :   0.9534 B( 18-C , 19-C ) :   1.4289 B( 18-C , 25-H ) :   0.9108
B( 19-C , 20-C ) :   1.4271 B( 19-C , 26-H ) :   0.9113 B( 20-C , 21-C ) :   1.4007
B( 20-C , 23-H ) :   0.9098 B( 21-C , 22-C ) :   1.4462 B( 21-C , 24-H ) :   0.9061
B( 22-C , 27-H ) :   0.8093 B( 28-C , 29-H ) :   0.8979 B( 28-C , 30-H ) :   0.9111
B( 31-O , 32-C ) :   1.2870 B( 32-C , 33-O ) :   1.8125 B( 32-C , 34-C ) :   0.9179
B( 34-C , 35-H ) :   0.9211 B( 34-C , 36-H ) :   0.9046 B( 34-C , 37-H ) :   0.9175

Dispersion correction           -0.026395389
FINAL SINGLE POINT ENERGY      -988.338779172741
Dispersion correction            ... done

DIPOLE MOMENT
-------------
                                X             Y             Z
Electronic contribution:     22.14229       6.92860     -11.50603
Nuclear contribution   :    -24.13723      -7.99918      13.09867
                        -----------------------------------------
Total Dipole Moment    :     -1.99494      -1.07058       1.59264
                        -----------------------------------------
Magnitude (a.u.)       :      2.76811
Magnitude (Debye)      :      7.03598

Rotational constants in cm-1:     0.013721     0.008401     0.006472
Rotational constants in MHz :   411.333143   251.867030   194.022034

                             ****ORCA TERMINATED NORMALLY****
TOTAL RUN TIME: 0 days 0 hours 11 minutes 27 seconds 730 msec
