                         Program Version 5.0.3 -  RELEASE  -
|  1> ! EnGrad PBEh-3c
|  2> %output
|  3> xyzfile=True
|  4> end
|  5> %scf
|  6> maxiter 250
|  7> end
|  8> %output
|  9> Print[P_Hirshfeld] = 1
| 10> end
| 11> % maxcore
| 12> 4000
| 13> *xyz 0 1
| 14> Pd   0.51928116   0.20453934  -0.24536578
| 15> O    1.81197015   1.34771249   0.64806411
| 16> C    1.57788717   2.59694070   0.32278276
| 17> O    0.60647525   3.00393417  -0.29102754
| 18> C    2.72110108   3.58707546   0.63595453
| 19> H    2.30974734   4.50710112   1.07855612
| 20> H    3.21209396   3.86486090  -0.31802133
| 21> H    3.47825733   3.15582742   1.29779231
| 22> N   -1.31190920  -0.76089292  -1.01461373
| 23> C   -1.08726171  -1.97162286  -1.80021025
| 24> H   -0.48413272  -1.73149142  -2.65161345
| 25> H   -2.02439336  -2.35123317  -2.16756656
| 26> H   -0.59855494  -2.74249421  -1.22043077
| 27> C   -1.96273108   0.25127987  -1.85428470
| 28> H   -2.13823407   1.17132556  -1.30070085
| 29> H   -2.93887404  -0.10509793  -2.16312108
| 30> H   -1.39340791   0.46515614  -2.74605090
| 31> C   -1.73277299  -0.87464364   1.51521485
| 32> C   -1.64042471  -2.02955817   2.32153225
| 33> C   -1.33180111  -1.92810947   3.66767882
| 34> C   -1.09955552  -0.67811781   4.20906820
| 35> C   -1.15378784   0.46911924   3.41044938
| 36> C   -1.50540462   0.41844834   2.06634170
| 37> H   -0.87331414  -0.63204549   5.27227343
| 38> H   -0.99891500   1.43231672   3.84869853
| 39> H   -1.94830127  -2.99537577   1.90945413
| 40> H   -1.21399734  -2.81574084   4.27279869
| 41> H   -1.60474257   2.16810381   1.33157665
| 42> C   -2.24318742  -1.05347194   0.11682678
| 43> H   -3.13374632  -0.44653259  -0.00789523
| 44> H   -2.58117195  -2.07151813  -0.03087832
| 45> O    2.00313373  -0.79090975  -1.23671332
| 46> C    2.11072444  -0.62189958  -2.55936024
| 47> O    1.28044645  -0.43290966  -3.36945056
| 48> C    3.59448451  -0.47159135  -3.11975690
| 49> H    4.08475984  -1.35298257  -3.57085644
| 50> H    4.24268122  -0.14263916  -2.31569642
| 51> H    3.52975360   0.33023388  -3.87353404
| 52> *
| 53>
| 54>                          ****END OF INPUT****

CARTESIAN COORDINATES (ANGSTROEM)
---------------------------------
  Pd     0.519281    0.204539   -0.245366
  O      1.811970    1.347712    0.648064
  C      1.577887    2.596941    0.322783
  O      0.606475    3.003934   -0.291028
  C      2.721101    3.587075    0.635955
  H      2.309747    4.507101    1.078556
  H      3.212094    3.864861   -0.318021
  H      3.478257    3.155827    1.297792
  N     -1.311909   -0.760893   -1.014614
  C     -1.087262   -1.971623   -1.800210
  H     -0.484133   -1.731491   -2.651613
  H     -2.024393   -2.351233   -2.167567
  H     -0.598555   -2.742494   -1.220431
  C     -1.962731    0.251280   -1.854285
  H     -2.138234    1.171326   -1.300701
  H     -2.938874   -0.105098   -2.163121
  H     -1.393408    0.465156   -2.746051
  C     -1.732773   -0.874644    1.515215
  C     -1.640425   -2.029558    2.321532
  C     -1.331801   -1.928109    3.667679
  C     -1.099556   -0.678118    4.209068
  C     -1.153788    0.469119    3.410449
  C     -1.505405    0.418448    2.066342
  H     -0.873314   -0.632045    5.272273
  H     -0.998915    1.432317    3.848699
  H     -1.948301   -2.995376    1.909454
  H     -1.213997   -2.815741    4.272799
  H     -1.604743    2.168104    1.331577
  C     -2.243187   -1.053472    0.116827
  H     -3.133746   -0.446533   -0.007895
  H     -2.581172   -2.071518   -0.030878
  O      2.003134   -0.790910   -1.236713
  C      2.110724   -0.621900   -2.559360
  O      1.280446   -0.432910   -3.369451
  C      3.594485   -0.471591   -3.119757
  H      4.084760   -1.352983   -3.570856
  H      4.242681   -0.142639   -2.315696
  H      3.529754    0.330234   -3.873534

 Total Charge           Charge          ....    0
 Multiplicity           Mult            ....    1
 Number of Electrons    NEL             ....  154
 Basis Dimension        Dim             ....  339

ORBITAL ENERGIES
----------------

  NO   OCC          E(Eh)            E(eV)
   0   2.0000     -19.493818      -530.4537
   1   2.0000     -19.478960      -530.0495
   2   2.0000     -19.455933      -529.4228
   3   2.0000     -19.447252      -529.1866
   4   2.0000     -14.719892      -400.5486
   5   2.0000     -10.551114      -287.1104
   6   2.0000     -10.541004      -286.8353
   7   2.0000     -10.530655      -286.5537
   8   2.0000     -10.505046      -285.8568
   9   2.0000     -10.502431      -285.7857
  10   2.0000     -10.482993      -285.2568
  11   2.0000     -10.480640      -285.1927
  12   2.0000     -10.478442      -285.1329
  13   2.0000     -10.476558      -285.0816
  14   2.0000     -10.474762      -285.0328
  15   2.0000     -10.469854      -284.8992
  16   2.0000     -10.426641      -283.7233
  17   2.0000     -10.413923      -283.3772
  18   2.0000      -3.668635       -99.8286
  19   2.0000      -2.321103       -63.1604
  20   2.0000      -2.307412       -62.7879
  21   2.0000      -2.280239       -62.0485
  22   2.0000      -1.165757       -31.7219
  23   2.0000      -1.161090       -31.5949
  24   2.0000      -1.080972       -29.4147
  25   2.0000      -1.071214       -29.1492
  26   2.0000      -1.058270       -28.7970
  27   2.0000      -0.986302       -26.8387
  28   2.0000      -0.894130       -24.3305
  29   2.0000      -0.863615       -23.5002
  30   2.0000      -0.824996       -22.4493
  31   2.0000      -0.807615       -21.9763
  32   2.0000      -0.797294       -21.6955
  33   2.0000      -0.774970       -21.0880
  34   2.0000      -0.724282       -19.7087
  35   2.0000      -0.706596       -19.2275
  36   2.0000      -0.681520       -18.5451
  37   2.0000      -0.609988       -16.5986
  38   2.0000      -0.599639       -16.3170
  39   2.0000      -0.582160       -15.8414
  40   2.0000      -0.577756       -15.7216
  41   2.0000      -0.573415       -15.6034
  42   2.0000      -0.561092       -15.2681
  43   2.0000      -0.539691       -14.6857
  44   2.0000      -0.529683       -14.4134
  45   2.0000      -0.521766       -14.1980
  46   2.0000      -0.513037       -13.9604
  47   2.0000      -0.509991       -13.8776
  48   2.0000      -0.503549       -13.7023
  49   2.0000      -0.499637       -13.5958
  50   2.0000      -0.492062       -13.3897
  51   2.0000      -0.489192       -13.3116
  52   2.0000      -0.484838       -13.1931
  53   2.0000      -0.478813       -13.0292
  54   2.0000      -0.462402       -12.5826
  55   2.0000      -0.450783       -12.2664
  56   2.0000      -0.443496       -12.0681
  57   2.0000      -0.440098       -11.9757
  58   2.0000      -0.434082       -11.8120
  59   2.0000      -0.432885       -11.7794
  60   2.0000      -0.426026       -11.5927
  61   2.0000      -0.422454       -11.4956
  62   2.0000      -0.412035       -11.2120
  63   2.0000      -0.400571       -10.9001
  64   2.0000      -0.389811       -10.6073
  65   2.0000      -0.372883       -10.1467
  66   2.0000      -0.364202        -9.9104
  67   2.0000      -0.356425        -9.6988
  68   2.0000      -0.346968        -9.4415
  69   2.0000      -0.337625        -9.1872
  70   2.0000      -0.324877        -8.8404
  71   2.0000      -0.319076        -8.6825
  72   2.0000      -0.317347        -8.6355
  73   2.0000      -0.310923        -8.4606
  74   2.0000      -0.296513        -8.0685
  75   2.0000      -0.288451        -7.8492
  76   2.0000      -0.287714        -7.8291
  77   0.0000      -0.090621        -2.4659
  78   0.0000      -0.063150        -1.7184
  79   0.0000      -0.019968        -0.5434
  80   0.0000      -0.009344        -0.2543
  81   0.0000       0.062304         1.6954

MULLIKEN ATOMIC CHARGES
-----------------------
   0 Pd:    0.559287
   1 O :   -0.529001
   2 C :    0.577424
   3 O :   -0.447187
   4 C :   -0.740613
   5 H :    0.233684
   6 H :    0.246985
   7 H :    0.239822
   8 N :   -0.476485
   9 C :   -0.555201
  10 H :    0.311209
  11 H :    0.217323
  12 H :    0.262868
  13 C :   -0.565043
  14 H :    0.271056
  15 H :    0.232596
  16 H :    0.304571
  17 C :    0.022896
  18 C :   -0.243448
  19 C :   -0.207969
  20 C :   -0.220512
  21 C :   -0.210298
  22 C :   -0.150277
  23 H :    0.238388
  24 H :    0.248028
  25 H :    0.228588
  26 H :    0.239792
  27 H :    0.170138
  28 C :   -0.328236
  29 H :    0.262427
  30 H :    0.249464
  31 O :   -0.540661
  32 C :    0.547248
  33 O :   -0.411294
  34 C :   -0.742609
  35 H :    0.229128
  36 H :    0.239706
  37 H :    0.236204
Sum of atomic charges:    0.0000000

LOEWDIN ATOMIC CHARGES
----------------------
   0 Pd:   -0.203611
   1 O :   -0.165268
   2 C :    0.155259
   3 O :   -0.240577
   4 C :   -0.383625
   5 H :    0.143991
   6 H :    0.155907
   7 H :    0.140930
   8 N :   -0.072318
   9 C :   -0.247389
  10 H :    0.167032
  11 H :    0.115790
  12 H :    0.147358
  13 C :   -0.239333
  14 H :    0.151495
  15 H :    0.122223
  16 H :    0.165394
  17 C :   -0.052634
  18 C :   -0.116957
  19 C :   -0.119809
  20 C :   -0.121604
  21 C :   -0.118373
  22 C :   -0.060132
  23 H :    0.146338
  24 H :    0.150767
  25 H :    0.145495
  26 H :    0.145263
  27 H :    0.166157
  28 C :   -0.106295
  29 H :    0.151668
  30 H :    0.141979
  31 O :   -0.206146
  32 C :    0.134339
  33 O :   -0.220292
  34 C :   -0.396104
  35 H :    0.140146
  36 H :    0.137822
  37 H :    0.145111

  Mayer bond orders larger than 0.100000
B(  0-Pd,  1-O ) :   0.6853 B(  0-Pd,  3-O ) :   0.1526 B(  0-Pd,  8-N ) :   0.3950
B(  0-Pd, 31-O ) :   0.6910 B(  1-O ,  2-C ) :   1.2361 B(  2-C ,  3-O ) :   1.8374
B(  2-C ,  4-C ) :   0.9279 B(  4-C ,  5-H ) :   0.9181 B(  4-C ,  6-H ) :   0.9126
B(  4-C ,  7-H ) :   0.9125 B(  8-N ,  9-C ) :   0.9247 B(  8-N , 13-C ) :   0.9204
B(  8-N , 28-C ) :   0.8785 B(  9-C , 10-H ) :   0.8612 B(  9-C , 11-H ) :   0.9050
B(  9-C , 12-H ) :   0.9075 B( 13-C , 14-H ) :   0.8963 B( 13-C , 15-H ) :   0.8999
B( 13-C , 16-H ) :   0.8831 B( 17-C , 18-C ) :   1.4072 B( 17-C , 22-C ) :   1.3785
B( 17-C , 28-C ) :   0.9506 B( 18-C , 19-C ) :   1.4292 B( 18-C , 25-H ) :   0.9118
B( 19-C , 20-C ) :   1.4321 B( 19-C , 26-H ) :   0.9104 B( 20-C , 21-C ) :   1.4098
B( 20-C , 23-H ) :   0.9109 B( 21-C , 22-C ) :   1.4339 B( 21-C , 24-H ) :   0.9086
B( 22-C , 27-H ) :   0.8364 B( 28-C , 29-H ) :   0.8986 B( 28-C , 30-H ) :   0.9122
B( 31-O , 32-C ) :   1.2313 B( 32-C , 33-O ) :   1.9294 B( 32-C , 34-C ) :   0.9008
B( 34-C , 35-H ) :   0.9219 B( 34-C , 36-H ) :   0.9115 B( 34-C , 37-H ) :   0.9202

Dispersion correction           -0.026465895
FINAL SINGLE POINT ENERGY      -988.363511677165
Dispersion correction            ... done

DIPOLE MOMENT
-------------
                                X             Y             Z
Electronic contribution:     22.26247       8.33280     -11.10045
Nuclear contribution   :    -24.36751      -9.34527      12.48916
                        -----------------------------------------
Total Dipole Moment    :     -2.10504      -1.01247       1.38871
                        -----------------------------------------
Magnitude (a.u.)       :      2.71750
Magnitude (Debye)      :      6.90733

Rotational constants in cm-1:     0.013781     0.008412     0.006486
Rotational constants in MHz :   413.142207   252.192233   194.451030

                             ****ORCA TERMINATED NORMALLY****
TOTAL RUN TIME: 0 days 0 hours 11 minutes 43 seconds 74 msec
