                         Program Version 5.0.3 -  RELEASE  -
|  1> ! EnGrad PBEh-3c
|  2> %output
|  3> xyzfile=True
|  4> end
|  5> %scf
|  6> maxiter 250
|  7> end
|  8> %output
|  9> Print[P_Hirshfeld] = 1
| 10> end
| 11> % maxcore
| 12> 4000
| 13> *xyz 0 1
| 14> Pd   0.39810838   0.29155031  -0.24346768
| 15> O    1.97019147   1.29213229   0.65693782
| 16> C    1.58601392   2.65554490   0.29113044
| 17> O    0.67151530   2.85217032  -0.16648267
| 18> C    2.73638991   3.65814783   0.60309520
| 19> H    2.24492342   4.54332525   1.02791258
| 20> H    3.17236646   3.95885613  -0.33825979
| 21> H    3.51034805   3.32436571   1.27071677
| 22> N   -1.39385678  -0.74454768  -1.07170104
| 23> C   -1.21065894  -1.83457091  -2.01706787
| 24> H   -0.72180405  -1.49437508  -2.90257971
| 25> H   -2.18808324  -2.19207390  -2.35392717
| 26> H   -0.65208968  -2.62344588  -1.56509434
| 27> C   -2.12075400   0.34582556  -1.74213366
| 28> H   -2.25321022   1.19538008  -1.12221323
| 29> H   -3.09487436  -0.03273222  -2.06716030
| 30> H   -1.56614929   0.63122330  -2.63090571
| 31> C   -1.56858781  -1.03862219   1.41906093
| 32> C   -1.21374650  -2.17165870   2.27168163
| 33> C   -1.00441752  -1.98209471   3.60746603
| 34> C   -1.06353316  -0.74509959   4.16538078
| 35> C   -1.43953443   0.37472118   3.36000988
| 36> C   -1.61441979   0.15621440   2.05297978
| 37> H   -0.88600957  -0.58997241   5.22758273
| 38> H   -1.61269432   1.27281820   3.88239015
| 39> H   -1.33123668  -3.15155694   1.90839821
| 40> H   -0.92706453  -2.84940065   4.26059843
| 41> H   -2.00099165   3.44571157   1.37716528
| 42> C   -2.21164146  -1.27385841   0.12343274
| 43> H   -3.18461837  -0.77854891   0.14278457
| 44> H   -2.46957862  -2.31239635  -0.02211347
| 45> O    1.94879319  -0.41925686  -1.24689193
| 46> C    2.21033615  -0.46477557  -2.53571156
| 47> O    1.45726981  -0.45404450  -3.33687495
| 48> C    3.71416907  -0.64374464  -2.92994347
| 49> H    3.80891709  -1.70622343  -3.22807279
| 50> H    4.42649587  -0.41237542  -2.24815242
| 51> H    3.87666105  -0.08285872  -3.87621225
| 52> *
| 53>
| 54>                          ****END OF INPUT****

CARTESIAN COORDINATES (ANGSTROEM)
---------------------------------
  Pd     0.398108    0.291550   -0.243468
  O      1.970191    1.292132    0.656938
  C      1.586014    2.655545    0.291130
  O      0.671515    2.852170   -0.166483
  C      2.736390    3.658148    0.603095
  H      2.244923    4.543325    1.027913
  H      3.172366    3.958856   -0.338260
  H      3.510348    3.324366    1.270717
  N     -1.393857   -0.744548   -1.071701
  C     -1.210659   -1.834571   -2.017068
  H     -0.721804   -1.494375   -2.902580
  H     -2.188083   -2.192074   -2.353927
  H     -0.652090   -2.623446   -1.565094
  C     -2.120754    0.345826   -1.742134
  H     -2.253210    1.195380   -1.122213
  H     -3.094874   -0.032732   -2.067160
  H     -1.566149    0.631223   -2.630906
  C     -1.568588   -1.038622    1.419061
  C     -1.213747   -2.171659    2.271682
  C     -1.004418   -1.982095    3.607466
  C     -1.063533   -0.745100    4.165381
  C     -1.439534    0.374721    3.360010
  C     -1.614420    0.156214    2.052980
  H     -0.886010   -0.589972    5.227583
  H     -1.612694    1.272818    3.882390
  H     -1.331237   -3.151557    1.908398
  H     -0.927065   -2.849401    4.260598
  H     -2.000992    3.445712    1.377165
  C     -2.211641   -1.273858    0.123433
  H     -3.184618   -0.778549    0.142785
  H     -2.469579   -2.312396   -0.022113
  O      1.948793   -0.419257   -1.246892
  C      2.210336   -0.464776   -2.535712
  O      1.457270   -0.454045   -3.336875
  C      3.714169   -0.643745   -2.929943
  H      3.808917   -1.706223   -3.228073
  H      4.426496   -0.412375   -2.248152
  H      3.876661   -0.082859   -3.876212

 Total Charge           Charge          ....    0
 Multiplicity           Mult            ....    1
 Number of Electrons    NEL             ....  154
 Basis Dimension        Dim             ....  339

ORBITAL ENERGIES
----------------

  NO   OCC          E(Eh)            E(eV)
   0   2.0000     -19.480502      -530.0914
   1   2.0000     -19.449181      -529.2391
   2   2.0000     -19.448875      -529.2308
   3   2.0000     -19.429165      -528.6945
   4   2.0000     -14.716174      -400.4474
   5   2.0000     -10.535100      -286.6746
   6   2.0000     -10.525859      -286.4232
   7   2.0000     -10.514111      -286.1035
   8   2.0000     -10.513887      -286.0974
   9   2.0000     -10.511034      -286.0198
  10   2.0000     -10.493128      -285.5325
  11   2.0000     -10.489551      -285.4352
  12   2.0000     -10.488042      -285.3941
  13   2.0000     -10.479143      -285.1520
  14   2.0000     -10.478309      -285.1293
  15   2.0000     -10.469934      -284.9014
  16   2.0000     -10.418225      -283.4943
  17   2.0000     -10.400200      -283.0038
  18   2.0000      -3.646764       -99.2335
  19   2.0000      -2.295272       -62.4575
  20   2.0000      -2.288508       -62.2735
  21   2.0000      -2.259576       -61.4862
  22   2.0000      -1.262941       -34.3664
  23   2.0000      -1.192357       -32.4457
  24   2.0000      -1.071122       -29.1467
  25   2.0000      -1.046813       -28.4852
  26   2.0000      -1.005888       -27.3716
  27   2.0000      -1.002265       -27.2730
  28   2.0000      -0.910185       -24.7674
  29   2.0000      -0.879635       -23.9361
  30   2.0000      -0.822545       -22.3826
  31   2.0000      -0.815580       -22.1931
  32   2.0000      -0.797069       -21.6893
  33   2.0000      -0.779140       -21.2015
  34   2.0000      -0.730504       -19.8780
  35   2.0000      -0.720645       -19.6098
  36   2.0000      -0.684102       -18.6154
  37   2.0000      -0.616642       -16.7797
  38   2.0000      -0.582616       -15.8538
  39   2.0000      -0.581846       -15.8328
  40   2.0000      -0.576612       -15.6904
  41   2.0000      -0.572952       -15.5908
  42   2.0000      -0.568351       -15.4656
  43   2.0000      -0.549558       -14.9542
  44   2.0000      -0.542726       -14.7683
  45   2.0000      -0.536519       -14.5994
  46   2.0000      -0.530167       -14.4266
  47   2.0000      -0.521708       -14.1964
  48   2.0000      -0.511973       -13.9315
  49   2.0000      -0.510307       -13.8862
  50   2.0000      -0.495874       -13.4934
  51   2.0000      -0.492272       -13.3954
  52   2.0000      -0.488899       -13.3036
  53   2.0000      -0.481248       -13.0954
  54   2.0000      -0.467227       -12.7139
  55   2.0000      -0.457716       -12.4551
  56   2.0000      -0.452687       -12.3183
  57   2.0000      -0.442423       -12.0390
  58   2.0000      -0.440247       -11.9797
  59   2.0000      -0.438980       -11.9452
  60   2.0000      -0.434182       -11.8147
  61   2.0000      -0.432866       -11.7789
  62   2.0000      -0.405332       -11.0296
  63   2.0000      -0.390409       -10.6236
  64   2.0000      -0.375674       -10.2226
  65   2.0000      -0.361533        -9.8378
  66   2.0000      -0.342152        -9.3104
  67   2.0000      -0.332362        -9.0440
  68   2.0000      -0.329841        -8.9754
  69   2.0000      -0.324628        -8.8336
  70   2.0000      -0.316236        -8.6052
  71   2.0000      -0.304244        -8.2789
  72   2.0000      -0.288007        -7.8371
  73   2.0000      -0.281000        -7.6464
  74   2.0000      -0.275707        -7.5024
  75   2.0000      -0.269783        -7.3412
  76   2.0000      -0.257030        -6.9941
  77   0.0000      -0.164550        -4.4776
  78   0.0000      -0.069470        -1.8904
  79   0.0000      -0.036493        -0.9930
  80   0.0000      -0.006053        -0.1647
  81   0.0000       0.067051         1.8245

MULLIKEN ATOMIC CHARGES
-----------------------
   0 Pd:    0.391701
   1 O :   -0.550988
   2 C :    0.518188
   3 O :   -0.230165
   4 C :   -0.758720
   5 H :    0.220596
   6 H :    0.244902
   7 H :    0.258085
   8 N :   -0.471996
   9 C :   -0.536041
  10 H :    0.307383
  11 H :    0.206098
  12 H :    0.260105
  13 C :   -0.552239
  14 H :    0.288090
  15 H :    0.222839
  16 H :    0.290036
  17 C :   -0.036720
  18 C :   -0.214444
  19 C :   -0.204395
  20 C :   -0.219331
  21 C :   -0.263093
  22 C :    0.071802
  23 H :    0.250319
  24 H :    0.272717
  25 H :    0.236444
  26 H :    0.241570
  27 H :   -0.004153
  28 C :   -0.325577
  29 H :    0.265386
  30 H :    0.260237
  31 O :   -0.543038
  32 C :    0.499858
  33 O :   -0.347528
  34 C :   -0.748807
  35 H :    0.220128
  36 H :    0.258821
  37 H :    0.221929
Sum of atomic charges:   -0.0000000

LOEWDIN ATOMIC CHARGES
----------------------
   0 Pd:   -0.316751
   1 O :   -0.272967
   2 C :    0.103598
   3 O :    0.009160
   4 C :   -0.392309
   5 H :    0.138684
   6 H :    0.151109
   7 H :    0.148413
   8 N :   -0.077757
   9 C :   -0.243425
  10 H :    0.162903
  11 H :    0.112320
  12 H :    0.145343
  13 C :   -0.238871
  14 H :    0.155620
  15 H :    0.119209
  16 H :    0.161657
  17 C :   -0.052490
  18 C :   -0.089588
  19 C :   -0.126584
  20 C :   -0.101144
  21 C :   -0.119708
  22 C :    0.054651
  23 H :    0.150646
  24 H :    0.163527
  25 H :    0.148943
  26 H :    0.150160
  27 H :   -0.003439
  28 C :   -0.096187
  29 H :    0.154907
  30 H :    0.147131
  31 O :   -0.182076
  32 C :    0.060880
  33 O :   -0.150223
  34 C :   -0.392952
  35 H :    0.142542
  36 H :    0.135658
  37 H :    0.139411

  Mayer bond orders larger than 0.100000
B(  0-Pd,  1-O ) :   0.8145 B(  0-Pd,  3-O ) :   0.1309 B(  0-Pd,  8-N ) :   0.3567
B(  0-Pd, 22-C ) :   0.1328 B(  0-Pd, 27-H ) :   0.1300 B(  0-Pd, 31-O ) :   0.6970
B(  1-O ,  2-C ) :   1.0344 B(  2-C ,  3-O ) :   2.1003 B(  2-C ,  4-C ) :   0.9133
B(  4-C ,  5-H ) :   0.9196 B(  4-C ,  6-H ) :   0.9135 B(  4-C ,  7-H ) :   0.9125
B(  8-N ,  9-C ) :   0.9308 B(  8-N , 13-C ) :   0.9210 B(  8-N , 28-C ) :   0.8828
B(  9-C , 10-H ) :   0.8734 B(  9-C , 11-H ) :   0.9069 B(  9-C , 12-H ) :   0.9109
B( 13-C , 14-H ) :   0.8876 B( 13-C , 15-H ) :   0.9057 B( 13-C , 16-H ) :   0.8911
B( 17-C , 18-C ) :   1.3544 B( 17-C , 22-C ) :   1.4274 B( 17-C , 28-C ) :   0.9439
B( 18-C , 19-C ) :   1.4637 B( 18-C , 21-C ) :   0.1062 B( 18-C , 25-H ) :   0.9041
B( 19-C , 20-C ) :   1.4256 B( 19-C , 26-H ) :   0.9075 B( 20-C , 21-C ) :   1.3763
B( 20-C , 23-H ) :   0.9012 B( 21-C , 22-C ) :   1.4791 B( 21-C , 24-H ) :   0.8960
B( 22-C , 27-H ) :   0.6562 B( 28-C , 29-H ) :   0.8982 B( 28-C , 30-H ) :   0.9113
B( 31-O , 32-C ) :   1.2185 B( 32-C , 33-O ) :   2.0270 B( 32-C , 34-C ) :   0.9083
B( 34-C , 35-H ) :   0.9250 B( 34-C , 36-H ) :   0.9032 B( 34-C , 37-H ) :   0.9274

Dispersion correction           -0.025534547
FINAL SINGLE POINT ENERGY      -988.103646882728
Dispersion correction            ... done

DIPOLE MOMENT
-------------
                                X             Y             Z
Electronic contribution:     14.85361      12.89048     -10.84811
Nuclear contribution   :    -17.39841     -14.12936      12.30014
                        -----------------------------------------
Total Dipole Moment    :     -2.54480      -1.23888       1.45203
                        -----------------------------------------
Magnitude (a.u.)       :      3.18107
Magnitude (Debye)      :      8.08565

Rotational constants in cm-1:     0.013427     0.008410     0.006573
Rotational constants in MHz :   402.538006   252.138705   197.062432

                             ****ORCA TERMINATED NORMALLY****
TOTAL RUN TIME: 0 days 0 hours 11 minutes 22 seconds 333 msec
