                         Program Version 5.0.3 -  RELEASE  -
|  1> ! EnGrad PBEh-3c
|  2> %output
|  3> xyzfile=True
|  4> end
|  5> %scf
|  6> maxiter 250
|  7> end
|  8> %output
|  9> Print[P_Hirshfeld] = 1
| 10> end
| 11> % maxcore
| 12> 4000
| 13> *xyz 0 1
| 14> Pd   0.50664635   0.20484715  -0.24606856
| 15> O    1.81229628   1.35775955   0.64116974
| 16> C    1.59048386   2.59878681   0.31987913
| 17> O    0.60515480   2.99336192  -0.28563387
| 18> C    2.71616600   3.58220116   0.63661725
| 19> H    2.31125493   4.50430154   1.07663442
| 20> H    3.20904593   3.86404140  -0.31425500
| 21> H    3.47575588   3.15814923   1.29636239
| 22> N   -1.30647019  -0.75427899  -1.00755736
| 23> C   -1.08638590  -1.97000869  -1.80193017
| 24> H   -0.48038287  -1.72803038  -2.65927526
| 25> H   -2.03308832  -2.35235260  -2.17155066
| 26> H   -0.59530830  -2.74245786  -1.21863396
| 27> C   -1.96364165   0.25352684  -1.85521205
| 28> H   -2.13653955   1.17384952  -1.29737681
| 29> H   -2.94331415  -0.10753872  -2.16414159
| 30> H   -1.38991995   0.46808680  -2.74701964
| 31> C   -1.73244450  -0.86888049   1.51079875
| 32> C   -1.64115026  -2.01940651   2.31761006
| 33> C   -1.32319171  -1.92674638   3.66246542
| 34> C   -1.09876232  -0.67592268   4.20819202
| 35> C   -1.16008134   0.46878567   3.41117696
| 36> C   -1.50537997   0.43495043   2.05932777
| 37> H   -0.87322573  -0.62702211   5.26736270
| 38> H   -1.00077900   1.43340323   3.85279580
| 39> H   -1.93768892  -2.99021372   1.90998205
| 40> H   -1.21467961  -2.81490021   4.27278205
| 41> H   -1.60432154   2.11802119   1.34739255
| 42> C   -2.24215663  -1.05474290   0.11160395
| 43> H   -3.13533217  -0.44773334  -0.00635305
| 44> H   -2.58181229  -2.07743283  -0.02710358
| 45> O    1.99936276  -0.78809140  -1.25577997
| 46> C    2.12942041  -0.62081209  -2.55592490
| 47> O    1.26911449  -0.42180941  -3.36325684
| 48> C    3.58596494  -0.47548294  -3.11216026
| 49> H    4.07264578  -1.35334432  -3.56472444
| 50> H    4.24902586  -0.14367781  -2.31058055
| 51> H    3.53627217   0.31998220  -3.86988254
| 52> *
| 53>
| 54>                          ****END OF INPUT****

CARTESIAN COORDINATES (ANGSTROEM)
---------------------------------
  Pd     0.506646    0.204847   -0.246069
  O      1.812296    1.357760    0.641170
  C      1.590484    2.598787    0.319879
  O      0.605155    2.993362   -0.285634
  C      2.716166    3.582201    0.636617
  H      2.311255    4.504302    1.076634
  H      3.209046    3.864041   -0.314255
  H      3.475756    3.158149    1.296362
  N     -1.306470   -0.754279   -1.007557
  C     -1.086386   -1.970009   -1.801930
  H     -0.480383   -1.728030   -2.659275
  H     -2.033088   -2.352353   -2.171551
  H     -0.595308   -2.742458   -1.218634
  C     -1.963642    0.253527   -1.855212
  H     -2.136540    1.173850   -1.297377
  H     -2.943314   -0.107539   -2.164142
  H     -1.389920    0.468087   -2.747020
  C     -1.732444   -0.868880    1.510799
  C     -1.641150   -2.019407    2.317610
  C     -1.323192   -1.926746    3.662465
  C     -1.098762   -0.675923    4.208192
  C     -1.160081    0.468786    3.411177
  C     -1.505380    0.434950    2.059328
  H     -0.873226   -0.627022    5.267363
  H     -1.000779    1.433403    3.852796
  H     -1.937689   -2.990214    1.909982
  H     -1.214680   -2.814900    4.272782
  H     -1.604322    2.118021    1.347393
  C     -2.242157   -1.054743    0.111604
  H     -3.135332   -0.447733   -0.006353
  H     -2.581812   -2.077433   -0.027104
  O      1.999363   -0.788091   -1.255780
  C      2.129420   -0.620812   -2.555925
  O      1.269114   -0.421809   -3.363257
  C      3.585965   -0.475483   -3.112160
  H      4.072646   -1.353344   -3.564724
  H      4.249026   -0.143678   -2.310581
  H      3.536272    0.319982   -3.869883

 Total Charge           Charge          ....    0
 Multiplicity           Mult            ....    1
 Number of Electrons    NEL             ....  154
 Basis Dimension        Dim             ....  339

ORBITAL ENERGIES
----------------

  NO   OCC          E(Eh)            E(eV)
   0   2.0000     -19.492463      -530.4169
   1   2.0000     -19.476712      -529.9883
   2   2.0000     -19.452828      -529.3384
   3   2.0000     -19.438480      -528.9479
   4   2.0000     -14.722370      -400.6161
   5   2.0000     -10.548704      -287.0448
   6   2.0000     -10.537049      -286.7277
   7   2.0000     -10.530446      -286.5480
   8   2.0000     -10.505599      -285.8719
   9   2.0000     -10.502856      -285.7972
  10   2.0000     -10.482197      -285.2351
  11   2.0000     -10.482142      -285.2336
  12   2.0000     -10.478330      -285.1299
  13   2.0000     -10.475742      -285.0594
  14   2.0000     -10.475028      -285.0400
  15   2.0000     -10.472045      -284.9588
  16   2.0000     -10.425963      -283.7049
  17   2.0000     -10.413837      -283.3749
  18   2.0000      -3.670215       -99.8716
  19   2.0000      -2.323010       -63.2123
  20   2.0000      -2.308256       -62.8108
  21   2.0000      -2.281952       -62.0951
  22   2.0000      -1.167250       -31.7625
  23   2.0000      -1.150656       -31.3109
  24   2.0000      -1.081203       -29.4210
  25   2.0000      -1.069336       -29.0981
  26   2.0000      -1.055708       -28.7273
  27   2.0000      -0.985227       -26.8094
  28   2.0000      -0.893707       -24.3190
  29   2.0000      -0.862612       -23.4729
  30   2.0000      -0.822900       -22.3922
  31   2.0000      -0.807166       -21.9641
  32   2.0000      -0.801338       -21.8055
  33   2.0000      -0.779382       -21.2081
  34   2.0000      -0.724354       -19.7107
  35   2.0000      -0.705227       -19.1902
  36   2.0000      -0.681846       -18.5540
  37   2.0000      -0.609954       -16.5977
  38   2.0000      -0.599737       -16.3197
  39   2.0000      -0.582436       -15.8489
  40   2.0000      -0.577577       -15.7167
  41   2.0000      -0.572973       -15.5914
  42   2.0000      -0.560874       -15.2622
  43   2.0000      -0.538709       -14.6590
  44   2.0000      -0.528877       -14.3915
  45   2.0000      -0.522624       -14.2213
  46   2.0000      -0.511226       -13.9112
  47   2.0000      -0.509643       -13.8681
  48   2.0000      -0.503460       -13.6998
  49   2.0000      -0.499703       -13.5976
  50   2.0000      -0.489227       -13.3125
  51   2.0000      -0.487664       -13.2700
  52   2.0000      -0.483594       -13.1593
  53   2.0000      -0.478961       -13.0332
  54   2.0000      -0.460955       -12.5432
  55   2.0000      -0.449689       -12.2367
  56   2.0000      -0.443601       -12.0710
  57   2.0000      -0.440149       -11.9771
  58   2.0000      -0.433116       -11.7857
  59   2.0000      -0.432014       -11.7557
  60   2.0000      -0.425046       -11.5661
  61   2.0000      -0.420597       -11.4450
  62   2.0000      -0.410975       -11.1832
  63   2.0000      -0.401366       -10.9217
  64   2.0000      -0.389339       -10.5945
  65   2.0000      -0.376012       -10.2318
  66   2.0000      -0.364774        -9.9260
  67   2.0000      -0.357828        -9.7370
  68   2.0000      -0.347034        -9.4433
  69   2.0000      -0.337174        -9.1750
  70   2.0000      -0.324488        -8.8298
  71   2.0000      -0.318645        -8.6708
  72   2.0000      -0.316960        -8.6249
  73   2.0000      -0.309846        -8.4313
  74   2.0000      -0.296456        -8.0670
  75   2.0000      -0.288153        -7.8410
  76   2.0000      -0.285124        -7.7586
  77   0.0000      -0.093209        -2.5363
  78   0.0000      -0.051999        -1.4150
  79   0.0000      -0.020537        -0.5588
  80   0.0000      -0.008753        -0.2382
  81   0.0000       0.061494         1.6733

MULLIKEN ATOMIC CHARGES
-----------------------
   0 Pd:    0.571136
   1 O :   -0.524426
   2 C :    0.580319
   3 O :   -0.455386
   4 C :   -0.745037
   5 H :    0.235817
   6 H :    0.247998
   7 H :    0.241285
   8 N :   -0.478623
   9 C :   -0.554139
  10 H :    0.314316
  11 H :    0.215938
  12 H :    0.261855
  13 C :   -0.563417
  14 H :    0.270005
  15 H :    0.233084
  16 H :    0.307582
  17 C :    0.024083
  18 C :   -0.244689
  19 C :   -0.208580
  20 C :   -0.217179
  21 C :   -0.208268
  22 C :   -0.170556
  23 H :    0.238413
  24 H :    0.246025
  25 H :    0.228277
  26 H :    0.239645
  27 H :    0.185076
  28 C :   -0.328886
  29 H :    0.262492
  30 H :    0.250539
  31 O :   -0.533438
  32 C :    0.553896
  33 O :   -0.441543
  34 C :   -0.743446
  35 H :    0.231899
  36 H :    0.237481
  37 H :    0.240454
Sum of atomic charges:    0.0000000

LOEWDIN ATOMIC CHARGES
----------------------
   0 Pd:   -0.192436
   1 O :   -0.160815
   2 C :    0.148157
   3 O :   -0.246609
   4 C :   -0.382539
   5 H :    0.145120
   6 H :    0.156986
   7 H :    0.141756
   8 N :   -0.068199
   9 C :   -0.246046
  10 H :    0.169279
  11 H :    0.116124
  12 H :    0.147234
  13 C :   -0.237735
  14 H :    0.151338
  15 H :    0.123312
  16 H :    0.167251
  17 C :   -0.051096
  18 C :   -0.118892
  19 C :   -0.118219
  20 C :   -0.122985
  21 C :   -0.117724
  22 C :   -0.069909
  23 H :    0.146108
  24 H :    0.149630
  25 H :    0.145209
  26 H :    0.145157
  27 H :    0.175490
  28 C :   -0.107440
  29 H :    0.151672
  30 H :    0.142576
  31 O :   -0.196408
  32 C :    0.130992
  33 O :   -0.251604
  34 C :   -0.391846
  35 H :    0.141479
  36 H :    0.138434
  37 H :    0.147191

  Mayer bond orders larger than 0.100000
B(  0-Pd,  1-O ) :   0.6790 B(  0-Pd,  3-O ) :   0.1603 B(  0-Pd,  8-N ) :   0.4046
B(  0-Pd, 31-O ) :   0.6718 B(  1-O ,  2-C ) :   1.2506 B(  2-C ,  3-O ) :   1.8260
B(  2-C ,  4-C ) :   0.9312 B(  4-C ,  5-H ) :   0.9175 B(  4-C ,  6-H ) :   0.9118
B(  4-C ,  7-H ) :   0.9120 B(  8-N ,  9-C ) :   0.9197 B(  8-N , 13-C ) :   0.9170
B(  8-N , 28-C ) :   0.8781 B(  9-C , 10-H ) :   0.8574 B(  9-C , 11-H ) :   0.9051
B(  9-C , 12-H ) :   0.9073 B( 13-C , 14-H ) :   0.8963 B( 13-C , 15-H ) :   0.8999
B( 13-C , 16-H ) :   0.8810 B( 17-C , 18-C ) :   1.4111 B( 17-C , 22-C ) :   1.3710
B( 17-C , 28-C ) :   0.9476 B( 18-C , 19-C ) :   1.4288 B( 18-C , 25-H ) :   0.9122
B( 19-C , 20-C ) :   1.4318 B( 19-C , 26-H ) :   0.9103 B( 20-C , 21-C ) :   1.4121
B( 20-C , 23-H ) :   0.9110 B( 21-C , 22-C ) :   1.4290 B( 21-C , 24-H ) :   0.9095
B( 22-C , 27-H ) :   0.8458 B( 28-C , 29-H ) :   0.8988 B( 28-C , 30-H ) :   0.9120
B( 31-O , 32-C ) :   1.2639 B( 32-C , 33-O ) :   1.8911 B( 32-C , 34-C ) :   0.9079
B( 34-C , 35-H ) :   0.9200 B( 34-C , 36-H ) :   0.9127 B( 34-C , 37-H ) :   0.9186

Dispersion correction           -0.026509605
FINAL SINGLE POINT ENERGY      -988.381750570099
Dispersion correction            ... done

DIPOLE MOMENT
-------------
                                X             Y             Z
Electronic contribution:     21.62915       8.31555     -11.05572
Nuclear contribution   :    -23.69709      -9.32369      12.50549
                        -----------------------------------------
Total Dipole Moment    :     -2.06794      -1.00814       1.44977
                        -----------------------------------------
Magnitude (a.u.)       :      2.71929
Magnitude (Debye)      :      6.91190

Rotational constants in cm-1:     0.013807     0.008431     0.006499
Rotational constants in MHz :   413.928150   252.741114   194.830234

                             ****ORCA TERMINATED NORMALLY****
TOTAL RUN TIME: 0 days 0 hours 12 minutes 32 seconds 739 msec
