                         Program Version 5.0.3 -  RELEASE  -
|  1> ! EnGrad PBEh-3c
|  2> %output
|  3> xyzfile=True
|  4> end
|  5> %scf
|  6> maxiter 250
|  7> end
|  8> %output
|  9> Print[P_Hirshfeld] = 1
| 10> end
| 11> % maxcore
| 12> 4000
| 13> *xyz 0 1
| 14> Pd   0.48161449   0.21454717  -0.24882004
| 15> O    1.81399492   1.36501163   0.61826996
| 16> C    1.60668394   2.59994663   0.31411167
| 17> O    0.60220229   2.97104492  -0.27875074
| 18> C    2.70682657   3.57291716   0.63661917
| 19> H    2.31589724   4.49826947   1.07495987
| 20> H    3.20374451   3.86039128  -0.30640003
| 21> H    3.46586890   3.15567115   1.29501908
| 22> N   -1.29598362  -0.74465328  -1.00063314
| 23> C   -1.07637366  -1.97337467  -1.80298004
| 24> H   -0.46698298  -1.72631456  -2.67096241
| 25> H   -2.04311021  -2.35058300  -2.17602091
| 26> H   -0.58080040  -2.74254116  -1.19880654
| 27> C   -1.95928548   0.26121895  -1.86116681
| 28> H   -2.12710850   1.18158612  -1.29509797
| 29> H   -2.94183525  -0.11957143  -2.16632557
| 30> H   -1.37329047   0.47311348  -2.75362974
| 31> C   -1.73653973  -0.82995588   1.50069980
| 32> C   -1.64946300  -1.98187018   2.31075434
| 33> C   -1.30280945  -1.91534428   3.64905264
| 34> C   -1.10258396  -0.67035852   4.20196540
| 35> C   -1.17075348   0.47722324   3.40647301
| 36> C   -1.51098315   0.50219060   2.03903120
| 37> H   -0.87111417  -0.61213115   5.25313315
| 38> H   -0.98596010   1.42972793   3.86449644
| 39> H   -1.92556936  -2.96080026   1.91578191
| 40> H   -1.22987038  -2.80521337   4.26899608
| 41> H   -1.58722526   1.88052096   1.40250714
| 42> C   -2.24095899  -1.05212253   0.10355303
| 43> H   -3.13725273  -0.44549450  -0.00730696
| 44> H   -2.58881564  -2.08174398  -0.01287884
| 45> O    1.98233875  -0.80658049  -1.29095904
| 46> C    2.15002642  -0.61752273  -2.55794800
| 47> O    1.24913117  -0.36665747  -3.34051843
| 48> C    3.57084675  -0.47758590  -3.09119304
| 49> H    4.04006612  -1.34891428  -3.55730016
| 50> H    4.25176699  -0.14535727  -2.30361958
| 51> H    3.55141130   0.30416756  -3.86393106
| 52> *
| 53>
| 54>                          ****END OF INPUT****

CARTESIAN COORDINATES (ANGSTROEM)
---------------------------------
  Pd     0.481614    0.214547   -0.248820
  O      1.813995    1.365012    0.618270
  C      1.606684    2.599947    0.314112
  O      0.602202    2.971045   -0.278751
  C      2.706827    3.572917    0.636619
  H      2.315897    4.498269    1.074960
  H      3.203745    3.860391   -0.306400
  H      3.465869    3.155671    1.295019
  N     -1.295984   -0.744653   -1.000633
  C     -1.076374   -1.973375   -1.802980
  H     -0.466983   -1.726315   -2.670962
  H     -2.043110   -2.350583   -2.176021
  H     -0.580800   -2.742541   -1.198807
  C     -1.959285    0.261219   -1.861167
  H     -2.127108    1.181586   -1.295098
  H     -2.941835   -0.119571   -2.166326
  H     -1.373290    0.473113   -2.753630
  C     -1.736540   -0.829956    1.500700
  C     -1.649463   -1.981870    2.310754
  C     -1.302809   -1.915344    3.649053
  C     -1.102584   -0.670359    4.201965
  C     -1.170753    0.477223    3.406473
  C     -1.510983    0.502191    2.039031
  H     -0.871114   -0.612131    5.253133
  H     -0.985960    1.429728    3.864496
  H     -1.925569   -2.960800    1.915782
  H     -1.229870   -2.805213    4.268996
  H     -1.587225    1.880521    1.402507
  C     -2.240959   -1.052123    0.103553
  H     -3.137253   -0.445495   -0.007307
  H     -2.588816   -2.081744   -0.012879
  O      1.982339   -0.806580   -1.290959
  C      2.150026   -0.617523   -2.557948
  O      1.249131   -0.366657   -3.340518
  C      3.570847   -0.477586   -3.091193
  H      4.040066   -1.348914   -3.557300
  H      4.251767   -0.145357   -2.303620
  H      3.551411    0.304168   -3.863931

 Total Charge           Charge          ....    0
 Multiplicity           Mult            ....    1
 Number of Electrons    NEL             ....  154
 Basis Dimension        Dim             ....  339

ORBITAL ENERGIES
----------------

  NO   OCC          E(Eh)            E(eV)
   0   2.0000     -19.490762      -530.3706
   1   2.0000     -19.469392      -529.7891
   2   2.0000     -19.450507      -529.2752
   3   2.0000     -19.425855      -528.6044
   4   2.0000     -14.725388      -400.6982
   5   2.0000     -10.546455      -286.9836
   6   2.0000     -10.529342      -286.5180
   7   2.0000     -10.522901      -286.3427
   8   2.0000     -10.505733      -285.8755
   9   2.0000     -10.503150      -285.8052
  10   2.0000     -10.485356      -285.3211
  11   2.0000     -10.479328      -285.1570
  12   2.0000     -10.477107      -285.0966
  13   2.0000     -10.476745      -285.0867
  14   2.0000     -10.474069      -285.0139
  15   2.0000     -10.472261      -284.9647
  16   2.0000     -10.425810      -283.7007
  17   2.0000     -10.412205      -283.3305
  18   2.0000      -3.671425       -99.9045
  19   2.0000      -2.325179       -63.2713
  20   2.0000      -2.307748       -62.7970
  21   2.0000      -2.283782       -62.1449
  22   2.0000      -1.171609       -31.8811
  23   2.0000      -1.142998       -31.1026
  24   2.0000      -1.079746       -29.3814
  25   2.0000      -1.067275       -29.0420
  26   2.0000      -1.044728       -28.4285
  27   2.0000      -0.981196       -26.6997
  28   2.0000      -0.891642       -24.2628
  29   2.0000      -0.860772       -23.4228
  30   2.0000      -0.819398       -22.2969
  31   2.0000      -0.809008       -22.0142
  32   2.0000      -0.804671       -21.8962
  33   2.0000      -0.787092       -21.4179
  34   2.0000      -0.723607       -19.6903
  35   2.0000      -0.702234       -19.1088
  36   2.0000      -0.681712       -18.5503
  37   2.0000      -0.610446       -16.6111
  38   2.0000      -0.600787       -16.3483
  39   2.0000      -0.580826       -15.8051
  40   2.0000      -0.576309       -15.6822
  41   2.0000      -0.571112       -15.5407
  42   2.0000      -0.560479       -15.2514
  43   2.0000      -0.535249       -14.5649
  44   2.0000      -0.528582       -14.3834
  45   2.0000      -0.525782       -14.3073
  46   2.0000      -0.511550       -13.9200
  47   2.0000      -0.509216       -13.8565
  48   2.0000      -0.504544       -13.7293
  49   2.0000      -0.497624       -13.5410
  50   2.0000      -0.489290       -13.3143
  51   2.0000      -0.486279       -13.2323
  52   2.0000      -0.483286       -13.1509
  53   2.0000      -0.479481       -13.0473
  54   2.0000      -0.459333       -12.4991
  55   2.0000      -0.449598       -12.2342
  56   2.0000      -0.444129       -12.0854
  57   2.0000      -0.441305       -12.0085
  58   2.0000      -0.432616       -11.7721
  59   2.0000      -0.430814       -11.7230
  60   2.0000      -0.423059       -11.5120
  61   2.0000      -0.416212       -11.3257
  62   2.0000      -0.409803       -11.1513
  63   2.0000      -0.405750       -11.0410
  64   2.0000      -0.402957       -10.9650
  65   2.0000      -0.388121       -10.5613
  66   2.0000      -0.360825        -9.8185
  67   2.0000      -0.359657        -9.7868
  68   2.0000      -0.346917        -9.4401
  69   2.0000      -0.336502        -9.1567
  70   2.0000      -0.324072        -8.8185
  71   2.0000      -0.316280        -8.6064
  72   2.0000      -0.315688        -8.5903
  73   2.0000      -0.306739        -8.3468
  74   2.0000      -0.295506        -8.0411
  75   2.0000      -0.287161        -7.8141
  76   2.0000      -0.277384        -7.5480
  77   0.0000      -0.096026        -2.6130
  78   0.0000      -0.022013        -0.5990
  79   0.0000      -0.007302        -0.1987
  80   0.0000       0.012590         0.3426
  81   0.0000       0.061049         1.6612

MULLIKEN ATOMIC CHARGES
-----------------------
   0 Pd:    0.593740
   1 O :   -0.520218
   2 C :    0.584230
   3 O :   -0.463999
   4 C :   -0.753162
   5 H :    0.239708
   6 H :    0.250934
   7 H :    0.244387
   8 N :   -0.482810
   9 C :   -0.545976
  10 H :    0.316085
  11 H :    0.212519
  12 H :    0.260317
  13 C :   -0.558224
  14 H :    0.267026
  15 H :    0.232871
  16 H :    0.312135
  17 C :    0.041226
  18 C :   -0.248614
  19 C :   -0.203347
  20 C :   -0.212311
  21 C :   -0.196598
  22 C :   -0.262055
  23 H :    0.237214
  24 H :    0.239559
  25 H :    0.226672
  26 H :    0.238099
  27 H :    0.243555
  28 C :   -0.334517
  29 H :    0.260813
  30 H :    0.253426
  31 O :   -0.523314
  32 C :    0.557158
  33 O :   -0.476784
  34 C :   -0.748851
  35 H :    0.235255
  36 H :    0.239187
  37 H :    0.244667
Sum of atomic charges:    0.0000000

LOEWDIN ATOMIC CHARGES
----------------------
   0 Pd:   -0.171149
   1 O :   -0.154988
   2 C :    0.139174
   3 O :   -0.250145
   4 C :   -0.380980
   5 H :    0.147036
   6 H :    0.159183
   7 H :    0.143722
   8 N :   -0.063300
   9 C :   -0.241467
  10 H :    0.172087
  11 H :    0.116397
  12 H :    0.148338
  13 C :   -0.234122
  14 H :    0.150839
  15 H :    0.124834
  16 H :    0.170642
  17 C :   -0.044096
  18 C :   -0.123268
  19 C :   -0.115433
  20 C :   -0.126305
  21 C :   -0.112509
  22 C :   -0.104770
  23 H :    0.145022
  24 H :    0.145326
  25 H :    0.143900
  26 H :    0.144677
  27 H :    0.197128
  28 C :   -0.110830
  29 H :    0.150520
  30 H :    0.143806
  31 O :   -0.188779
  32 C :    0.120183
  33 O :   -0.287292
  34 C :   -0.386875
  35 H :    0.143265
  36 H :    0.140813
  37 H :    0.149418

  Mayer bond orders larger than 0.100000
B(  0-Pd,  1-O ) :   0.6706 B(  0-Pd,  3-O ) :   0.1776 B(  0-Pd,  8-N ) :   0.4200
B(  0-Pd, 31-O ) :   0.6410 B(  1-O ,  2-C ) :   1.2673 B(  2-C ,  3-O ) :   1.8099
B(  2-C ,  4-C ) :   0.9373 B(  4-C ,  5-H ) :   0.9162 B(  4-C ,  6-H ) :   0.9098
B(  4-C ,  7-H ) :   0.9111 B(  8-N ,  9-C ) :   0.9107 B(  8-N , 13-C ) :   0.9104
B(  8-N , 28-C ) :   0.8767 B(  9-C , 10-H ) :   0.8540 B(  9-C , 11-H ) :   0.9054
B(  9-C , 12-H ) :   0.9071 B( 13-C , 14-H ) :   0.8969 B( 13-C , 15-H ) :   0.9003
B( 13-C , 16-H ) :   0.8773 B( 17-C , 18-C ) :   1.4187 B( 17-C , 22-C ) :   1.3380
B( 17-C , 28-C ) :   0.9417 B( 18-C , 19-C ) :   1.4253 B( 18-C , 25-H ) :   0.9142
B( 19-C , 20-C ) :   1.4337 B( 19-C , 26-H ) :   0.9103 B( 20-C , 21-C ) :   1.4141
B( 20-C , 23-H ) :   0.9121 B( 21-C , 22-C ) :   1.4183 B( 21-C , 24-H ) :   0.9122
B( 22-C , 27-H ) :   0.8736 B( 28-C , 29-H ) :   0.8996 B( 28-C , 30-H ) :   0.9112
B( 31-O , 32-C ) :   1.3098 B( 32-C , 33-O ) :   1.8452 B( 32-C , 34-C ) :   0.9185
B( 34-C , 35-H ) :   0.9172 B( 34-C , 36-H ) :   0.9125 B( 34-C , 37-H ) :   0.9173

Dispersion correction           -0.026552024
FINAL SINGLE POINT ENERGY      -988.437803732423
Dispersion correction            ... done

DIPOLE MOMENT
-------------
                                X             Y             Z
Electronic contribution:     20.39210       8.74765     -11.10354
Nuclear contribution   :    -22.38605      -9.71543      12.59405
                        -----------------------------------------
Total Dipole Moment    :     -1.99395      -0.96778       1.49051
                        -----------------------------------------
Magnitude (a.u.)       :      2.67096
Magnitude (Debye)      :      6.78905

Rotational constants in cm-1:     0.013900     0.008480     0.006538
Rotational constants in MHz :   416.704839   254.211416   196.019013

                             ****ORCA TERMINATED NORMALLY****
TOTAL RUN TIME: 0 days 0 hours 11 minutes 47 seconds 703 msec
