                         Program Version 5.0.3 -  RELEASE  -
|  1> ! EnGrad PBEh-3c
|  2> %output
|  3> xyzfile=True
|  4> end
|  5> %scf
|  6> maxiter 250
|  7> end
|  8> %output
|  9> Print[P_Hirshfeld] = 1
| 10> end
| 11> % maxcore
| 12> 4000
| 13> *xyz 0 1
| 14> Pd   0.44259504   0.23145059  -0.24907493
| 15> O    1.82971873   1.36171616   0.59346202
| 16> C    1.62598076   2.59821227   0.30333157
| 17> O    0.58709350   2.93976190  -0.26326494
| 18> C    2.70345491   3.57108032   0.63528051
| 19> H    2.31556089   4.48865028   1.06750944
| 20> H    3.19230970   3.85996089  -0.29403903
| 21> H    3.45926961   3.16443826   1.29260073
| 22> N   -1.28949908  -0.73454412  -1.00416877
| 23> C   -1.07740673  -1.96735009  -1.82332539
| 24> H   -0.46417145  -1.70904883  -2.69611688
| 25> H   -2.06526664  -2.33994083  -2.18547950
| 26> H   -0.57463652  -2.73288325  -1.20584005
| 27> C   -1.96662084   0.27533252  -1.86239995
| 28> H   -2.12403709   1.19275158  -1.28137985
| 29> H   -2.95165834  -0.12447462  -2.16470291
| 30> H   -1.36460172   0.48831914  -2.74977055
| 31> C   -1.73223843  -0.79106138   1.48487190
| 32> C   -1.63541500  -1.94577935   2.29605922
| 33> C   -1.26451557  -1.90969471   3.63046678
| 34> C   -1.09999744  -0.66017361   4.18466294
| 35> C   -1.19760636   0.49231069   3.39313100
| 36> C   -1.51103721   0.56334840   2.00857685
| 37> H   -0.86924204  -0.58729547   5.23697267
| 38> H   -1.00626042   1.42746710   3.88153780
| 39> H   -1.86808431  -2.94069503   1.91283147
| 40> H   -1.22642799  -2.79737844   4.26029830
| 41> H   -1.58933338   1.65107449   1.48920679
| 42> C   -2.24277245  -1.06172227   0.09744513
| 43> H   -3.14293859  -0.45929869  -0.00087458
| 44> H   -2.58445081  -2.10300096   0.00125256
| 45> O    1.96947505  -0.76878151  -1.32258460
| 46> C    2.17096961  -0.58865300  -2.55946154
| 47> O    1.22867569  -0.36517559  -3.31941566
| 48> C    3.57190587  -0.48325687  -3.05778189
| 49> H    3.98329228  -1.36574911  -3.52377137
| 50> H    4.27329245  -0.15575665  -2.28700350
| 51> H    3.58263676   0.25893309  -3.85235113
| 52> *
| 53>
| 54>                          ****END OF INPUT****

CARTESIAN COORDINATES (ANGSTROEM)
---------------------------------
  Pd     0.442595    0.231451   -0.249075
  O      1.829719    1.361716    0.593462
  C      1.625981    2.598212    0.303332
  O      0.587093    2.939762   -0.263265
  C      2.703455    3.571080    0.635281
  H      2.315561    4.488650    1.067509
  H      3.192310    3.859961   -0.294039
  H      3.459270    3.164438    1.292601
  N     -1.289499   -0.734544   -1.004169
  C     -1.077407   -1.967350   -1.823325
  H     -0.464171   -1.709049   -2.696117
  H     -2.065267   -2.339941   -2.185479
  H     -0.574637   -2.732883   -1.205840
  C     -1.966621    0.275333   -1.862400
  H     -2.124037    1.192752   -1.281380
  H     -2.951658   -0.124475   -2.164703
  H     -1.364602    0.488319   -2.749771
  C     -1.732238   -0.791061    1.484872
  C     -1.635415   -1.945779    2.296059
  C     -1.264516   -1.909695    3.630467
  C     -1.099997   -0.660174    4.184663
  C     -1.197606    0.492311    3.393131
  C     -1.511037    0.563348    2.008577
  H     -0.869242   -0.587295    5.236973
  H     -1.006260    1.427467    3.881538
  H     -1.868084   -2.940695    1.912831
  H     -1.226428   -2.797378    4.260298
  H     -1.589333    1.651074    1.489207
  C     -2.242772   -1.061722    0.097445
  H     -3.142939   -0.459299   -0.000875
  H     -2.584451   -2.103001    0.001253
  O      1.969475   -0.768782   -1.322585
  C      2.170970   -0.588653   -2.559462
  O      1.228676   -0.365176   -3.319416
  C      3.571906   -0.483257   -3.057782
  H      3.983292   -1.365749   -3.523771
  H      4.273292   -0.155757   -2.287003
  H      3.582637    0.258933   -3.852351

 Total Charge           Charge          ....    0
 Multiplicity           Mult            ....    1
 Number of Electrons    NEL             ....  154
 Basis Dimension        Dim             ....  339

ORBITAL ENERGIES
----------------

  NO   OCC          E(Eh)            E(eV)
   0   2.0000     -19.488159      -530.2998
   1   2.0000     -19.460026      -529.5342
   2   2.0000     -19.449276      -529.2417
   3   2.0000     -19.413420      -528.2660
   4   2.0000     -14.727279      -400.7496
   5   2.0000     -10.545657      -286.9619
   6   2.0000     -10.520088      -286.2661
   7   2.0000     -10.506645      -285.9003
   8   2.0000     -10.505974      -285.8821
   9   2.0000     -10.504126      -285.8318
  10   2.0000     -10.487704      -285.3849
  11   2.0000     -10.479339      -285.1573
  12   2.0000     -10.477882      -285.1177
  13   2.0000     -10.476826      -285.0889
  14   2.0000     -10.474244      -285.0187
  15   2.0000     -10.471247      -284.9371
  16   2.0000     -10.424458      -283.6639
  17   2.0000     -10.408368      -283.2261
  18   2.0000      -3.670493       -99.8792
  19   2.0000      -2.324820       -63.2616
  20   2.0000      -2.305573       -62.7378
  21   2.0000      -2.283473       -62.1364
  22   2.0000      -1.170582       -31.8532
  23   2.0000      -1.142906       -31.1001
  24   2.0000      -1.076522       -29.2936
  25   2.0000      -1.061232       -28.8776
  26   2.0000      -1.032581       -28.0979
  27   2.0000      -0.978607       -26.6292
  28   2.0000      -0.890340       -24.2274
  29   2.0000      -0.862017       -23.4567
  30   2.0000      -0.816629       -22.2216
  31   2.0000      -0.815966       -22.2036
  32   2.0000      -0.802174       -21.8283
  33   2.0000      -0.795706       -21.6523
  34   2.0000      -0.723119       -19.6771
  35   2.0000      -0.702897       -19.1268
  36   2.0000      -0.683404       -18.5964
  37   2.0000      -0.611921       -16.6512
  38   2.0000      -0.601511       -16.3679
  39   2.0000      -0.579472       -15.7682
  40   2.0000      -0.575065       -15.6483
  41   2.0000      -0.568651       -15.4738
  42   2.0000      -0.561790       -15.2871
  43   2.0000      -0.537437       -14.6244
  44   2.0000      -0.531597       -14.4655
  45   2.0000      -0.526315       -14.3218
  46   2.0000      -0.511455       -13.9174
  47   2.0000      -0.509291       -13.8585
  48   2.0000      -0.507826       -13.8186
  49   2.0000      -0.503249       -13.6941
  50   2.0000      -0.494647       -13.4600
  51   2.0000      -0.484702       -13.1894
  52   2.0000      -0.480737       -13.0815
  53   2.0000      -0.480472       -13.0743
  54   2.0000      -0.460892       -12.5415
  55   2.0000      -0.449583       -12.2338
  56   2.0000      -0.444145       -12.0858
  57   2.0000      -0.442852       -12.0506
  58   2.0000      -0.434763       -11.8305
  59   2.0000      -0.431997       -11.7552
  60   2.0000      -0.421549       -11.4709
  61   2.0000      -0.420460       -11.4413
  62   2.0000      -0.413705       -11.2575
  63   2.0000      -0.407507       -11.0888
  64   2.0000      -0.403655       -10.9840
  65   2.0000      -0.384264       -10.4563
  66   2.0000      -0.359710        -9.7882
  67   2.0000      -0.357728        -9.7343
  68   2.0000      -0.345117        -9.3911
  69   2.0000      -0.336182        -9.1480
  70   2.0000      -0.324121        -8.8198
  71   2.0000      -0.314314        -8.5529
  72   2.0000      -0.313013        -8.5175
  73   2.0000      -0.303911        -8.2698
  74   2.0000      -0.292809        -7.9677
  75   2.0000      -0.282669        -7.6918
  76   2.0000      -0.267562        -7.2807
  77   0.0000      -0.095691        -2.6039
  78   0.0000      -0.025019        -0.6808
  79   0.0000      -0.006172        -0.1680
  80   0.0000       0.058720         1.5978
  81   0.0000       0.065677         1.7872

MULLIKEN ATOMIC CHARGES
-----------------------
   0 Pd:    0.601135
   1 O :   -0.515226
   2 C :    0.588961
   3 O :   -0.474774
   4 C :   -0.759469
   5 H :    0.244917
   6 H :    0.255040
   7 H :    0.248666
   8 N :   -0.487261
   9 C :   -0.538857
  10 H :    0.320110
  11 H :    0.208732
  12 H :    0.257518
  13 C :   -0.552210
  14 H :    0.265494
  15 H :    0.231812
  16 H :    0.314546
  17 C :    0.045580
  18 C :   -0.253468
  19 C :   -0.197431
  20 C :   -0.211801
  21 C :   -0.200970
  22 C :   -0.304567
  23 H :    0.236141
  24 H :    0.235041
  25 H :    0.225050
  26 H :    0.236966
  27 H :    0.287695
  28 C :   -0.337269
  29 H :    0.259386
  30 H :    0.256679
  31 O :   -0.509497
  32 C :    0.551176
  33 O :   -0.501706
  34 C :   -0.756545
  35 H :    0.240732
  36 H :    0.241620
  37 H :    0.248054
Sum of atomic charges:   -0.0000000

LOEWDIN ATOMIC CHARGES
----------------------
   0 Pd:   -0.163151
   1 O :   -0.154907
   2 C :    0.142501
   3 O :   -0.255432
   4 C :   -0.380716
   5 H :    0.149080
   6 H :    0.160735
   7 H :    0.146402
   8 N :   -0.059046
   9 C :   -0.238644
  10 H :    0.175507
  11 H :    0.116485
  12 H :    0.148423
  13 C :   -0.230940
  14 H :    0.151112
  15 H :    0.126067
  16 H :    0.173033
  17 C :   -0.035789
  18 C :   -0.125900
  19 C :   -0.113471
  20 C :   -0.127886
  21 C :   -0.105514
  22 C :   -0.120974
  23 H :    0.143806
  24 H :    0.142241
  25 H :    0.142981
  26 H :    0.145150
  27 H :    0.194341
  28 C :   -0.111270
  29 H :    0.149576
  30 H :    0.145603
  31 O :   -0.175948
  32 C :    0.103693
  33 O :   -0.313381
  34 C :   -0.384558
  35 H :    0.146397
  36 H :    0.143500
  37 H :    0.150894

  Mayer bond orders larger than 0.100000
B(  0-Pd,  1-O ) :   0.6635 B(  0-Pd,  3-O ) :   0.1970 B(  0-Pd,  8-N ) :   0.4341
B(  0-Pd, 31-O ) :   0.6165 B(  1-O ,  2-C ) :   1.2787 B(  2-C ,  3-O ) :   1.7857
B(  2-C ,  4-C ) :   0.9449 B(  4-C ,  5-H ) :   0.9142 B(  4-C ,  6-H ) :   0.9072
B(  4-C ,  7-H ) :   0.9103 B(  8-N ,  9-C ) :   0.9030 B(  8-N , 13-C ) :   0.9047
B(  8-N , 28-C ) :   0.8741 B(  9-C , 10-H ) :   0.8479 B(  9-C , 11-H ) :   0.9057
B(  9-C , 12-H ) :   0.9075 B( 13-C , 14-H ) :   0.8966 B( 13-C , 15-H ) :   0.9010
B( 13-C , 16-H ) :   0.8751 B( 17-C , 18-C ) :   1.4176 B( 17-C , 22-C ) :   1.3206
B( 17-C , 28-C ) :   0.9363 B( 18-C , 19-C ) :   1.4233 B( 18-C , 25-H ) :   0.9165
B( 19-C , 20-C ) :   1.4300 B( 19-C , 26-H ) :   0.9104 B( 20-C , 21-C ) :   1.4186
B( 20-C , 23-H ) :   0.9128 B( 21-C , 22-C ) :   1.4198 B( 21-C , 24-H ) :   0.9140
B( 22-C , 27-H ) :   0.8798 B( 28-C , 29-H ) :   0.9001 B( 28-C , 30-H ) :   0.9106
B( 31-O , 32-C ) :   1.3504 B( 32-C , 33-O ) :   1.8190 B( 32-C , 34-C ) :   0.9273
B( 34-C , 35-H ) :   0.9142 B( 34-C , 36-H ) :   0.9136 B( 34-C , 37-H ) :   0.9150

Dispersion correction           -0.026157226
FINAL SINGLE POINT ENERGY      -988.482886236684
Dispersion correction            ... done

DIPOLE MOMENT
-------------
                                X             Y             Z
Electronic contribution:     18.37076       9.56214     -10.96821
Nuclear contribution   :    -20.30995     -10.49222      12.51458
                        -----------------------------------------
Total Dipole Moment    :     -1.93919      -0.93008       1.54636
                        -----------------------------------------
Magnitude (a.u.)       :      2.64892
Magnitude (Debye)      :      6.73301

Rotational constants in cm-1:     0.013965     0.008551     0.006590
Rotational constants in MHz :   418.657562   256.345151   197.563588

                             ****ORCA TERMINATED NORMALLY****
TOTAL RUN TIME: 0 days 0 hours 9 minutes 11 seconds 998 msec
