                         Program Version 5.0.3 -  RELEASE  -
|  1> ! EnGrad PBEh-3c
|  2> %output
|  3> xyzfile=True
|  4> end
|  5> %scf
|  6> maxiter 250
|  7> end
|  8> %output
|  9> Print[P_Hirshfeld] = 1
| 10> end
| 11> % maxcore
| 12> 4000
| 13> *xyz 0 1
| 14> Pd   0.42885231   0.23324785  -0.25827421
| 15> O    1.84022745   1.35267557   0.58449503
| 16> C    1.61302899   2.59286028   0.29080664
| 17> O    0.58003654   2.92894970  -0.25247528
| 18> C    2.70459827   3.57181950   0.63547695
| 19> H    2.31301768   4.48385389   1.06659951
| 20> H    3.18715474   3.85581565  -0.28987579
| 21> H    3.45366198   3.16005684   1.29377755
| 22> N   -1.28636566  -0.73151054  -1.01121750
| 23> C   -1.07478197  -1.96317687  -1.82673599
| 24> H   -0.46213178  -1.70938684  -2.69741363
| 25> H   -2.06123945  -2.33356696  -2.18429274
| 26> H   -0.57351010  -2.72314331  -1.20755984
| 27> C   -1.96299151   0.27886045  -1.86441642
| 28> H   -2.12017775   1.19552038  -1.28290921
| 29> H   -2.94607557  -0.12311355  -2.16620487
| 30> H   -1.35870939   0.49580469  -2.74675551
| 31> C   -1.73185229  -0.75787899   1.47877777
| 32> C   -1.62554965  -1.91813813   2.28607410
| 33> C   -1.26346910  -1.89678353   3.62216392
| 34> C   -1.09470187  -0.64291616   4.16973544
| 35> C   -1.20134085   0.51074565   3.37596392
| 36> C   -1.51074309   0.58198156   1.99942709
| 37> H   -0.86937852  -0.57140959   5.22969012
| 38> H   -0.99674882   1.43262080   3.89218348
| 39> H   -1.85213073  -2.91701846   1.90653667
| 40> H   -1.22743853  -2.78945799   4.24936570
| 41> H   -1.57356050   1.44596850   1.54325719
| 42> C   -2.24484732  -1.05558844   0.09902429
| 43> H   -3.14816460  -0.46007226  -0.00658343
| 44> H   -2.58131551  -2.10165039   0.01138070
| 45> O    1.95502760  -0.76082173  -1.30811620
| 46> C    2.15266200  -0.56346788  -2.56472557
| 47> O    1.22514296  -0.37007891  -3.31166254
| 48> C    3.58016753  -0.47717397  -3.05029700
| 49> H    3.96287918  -1.37519063  -3.51287308
| 50> H    4.27122268  -0.15799405  -2.27933507
| 51> H    3.59137501   0.24981125  -3.84691022
| 52> *
| 53>
| 54>                          ****END OF INPUT****

CARTESIAN COORDINATES (ANGSTROEM)
---------------------------------
  Pd     0.428852    0.233248   -0.258274
  O      1.840227    1.352676    0.584495
  C      1.613029    2.592860    0.290807
  O      0.580037    2.928950   -0.252475
  C      2.704598    3.571820    0.635477
  H      2.313018    4.483854    1.066600
  H      3.187155    3.855816   -0.289876
  H      3.453662    3.160057    1.293778
  N     -1.286366   -0.731511   -1.011218
  C     -1.074782   -1.963177   -1.826736
  H     -0.462132   -1.709387   -2.697414
  H     -2.061239   -2.333567   -2.184293
  H     -0.573510   -2.723143   -1.207560
  C     -1.962992    0.278860   -1.864416
  H     -2.120178    1.195520   -1.282909
  H     -2.946076   -0.123114   -2.166205
  H     -1.358709    0.495805   -2.746756
  C     -1.731852   -0.757879    1.478778
  C     -1.625550   -1.918138    2.286074
  C     -1.263469   -1.896784    3.622164
  C     -1.094702   -0.642916    4.169735
  C     -1.201341    0.510746    3.375964
  C     -1.510743    0.581982    1.999427
  H     -0.869379   -0.571410    5.229690
  H     -0.996749    1.432621    3.892183
  H     -1.852131   -2.917018    1.906537
  H     -1.227439   -2.789458    4.249366
  H     -1.573560    1.445968    1.543257
  C     -2.244847   -1.055588    0.099024
  H     -3.148165   -0.460072   -0.006583
  H     -2.581316   -2.101650    0.011381
  O      1.955028   -0.760822   -1.308116
  C      2.152662   -0.563468   -2.564726
  O      1.225143   -0.370079   -3.311663
  C      3.580168   -0.477174   -3.050297
  H      3.962879   -1.375191   -3.512873
  H      4.271223   -0.157994   -2.279335
  H      3.591375    0.249811   -3.846910

 Total Charge           Charge          ....    0
 Multiplicity           Mult            ....    1
 Number of Electrons    NEL             ....  154
 Basis Dimension        Dim             ....  339

ORBITAL ENERGIES
----------------

  NO   OCC          E(Eh)            E(eV)
   0   2.0000     -19.483475      -530.1723
   1   2.0000     -19.459331      -529.5153
   2   2.0000     -19.451171      -529.2933
   3   2.0000     -19.421769      -528.4932
   4   2.0000     -14.727492      -400.7554
   5   2.0000     -10.543801      -286.9114
   6   2.0000     -10.523213      -286.3512
   7   2.0000     -10.507684      -285.9286
   8   2.0000     -10.501495      -285.7602
   9   2.0000     -10.488141      -285.3968
  10   2.0000     -10.483061      -285.2586
  11   2.0000     -10.479063      -285.1498
  12   2.0000     -10.476192      -285.0717
  13   2.0000     -10.475623      -285.0562
  14   2.0000     -10.473610      -285.0014
  15   2.0000     -10.470843      -284.9261
  16   2.0000     -10.421400      -283.5807
  17   2.0000     -10.409045      -283.2445
  18   2.0000      -3.667874       -99.8079
  19   2.0000      -2.321736       -63.1776
  20   2.0000      -2.303662       -62.6858
  21   2.0000      -2.280801       -62.0637
  22   2.0000      -1.170975       -31.8638
  23   2.0000      -1.146874       -31.2080
  24   2.0000      -1.076733       -29.2994
  25   2.0000      -1.063317       -28.9343
  26   2.0000      -1.038734       -28.2654
  27   2.0000      -0.980132       -26.6707
  28   2.0000      -0.890995       -24.2452
  29   2.0000      -0.868193       -23.6247
  30   2.0000      -0.817798       -22.2534
  31   2.0000      -0.811921       -22.0935
  32   2.0000      -0.802749       -21.8439
  33   2.0000      -0.795463       -21.6457
  34   2.0000      -0.727241       -19.7892
  35   2.0000      -0.708707       -19.2849
  36   2.0000      -0.686508       -18.6808
  37   2.0000      -0.617824       -16.8118
  38   2.0000      -0.598672       -16.2907
  39   2.0000      -0.580547       -15.7975
  40   2.0000      -0.576380       -15.6841
  41   2.0000      -0.570187       -15.5156
  42   2.0000      -0.567270       -15.4362
  43   2.0000      -0.548633       -14.9291
  44   2.0000      -0.531862       -14.4727
  45   2.0000      -0.523934       -14.2570
  46   2.0000      -0.515945       -14.0396
  47   2.0000      -0.510261       -13.8849
  48   2.0000      -0.508119       -13.8266
  49   2.0000      -0.503516       -13.7014
  50   2.0000      -0.495305       -13.4779
  51   2.0000      -0.485735       -13.2175
  52   2.0000      -0.483722       -13.1627
  53   2.0000      -0.480872       -13.0852
  54   2.0000      -0.462941       -12.5973
  55   2.0000      -0.451101       -12.2751
  56   2.0000      -0.445655       -12.1269
  57   2.0000      -0.442934       -12.0529
  58   2.0000      -0.436019       -11.8647
  59   2.0000      -0.431415       -11.7394
  60   2.0000      -0.426740       -11.6122
  61   2.0000      -0.422519       -11.4973
  62   2.0000      -0.413577       -11.2540
  63   2.0000      -0.409338       -11.1387
  64   2.0000      -0.403626       -10.9832
  65   2.0000      -0.383058       -10.4235
  66   2.0000      -0.359472        -9.7817
  67   2.0000      -0.357359        -9.7242
  68   2.0000      -0.344866        -9.3843
  69   2.0000      -0.336040        -9.1441
  70   2.0000      -0.325185        -8.8487
  71   2.0000      -0.313768        -8.5381
  72   2.0000      -0.312768        -8.5109
  73   2.0000      -0.303931        -8.2704
  74   2.0000      -0.294039        -8.0012
  75   2.0000      -0.284390        -7.7386
  76   2.0000      -0.273051        -7.4301
  77   0.0000      -0.092237        -2.5099
  78   0.0000      -0.024118        -0.6563
  79   0.0000      -0.005386        -0.1465
  80   0.0000       0.060736         1.6527
  81   0.0000       0.068722         1.8700

MULLIKEN ATOMIC CHARGES
-----------------------
   0 Pd:    0.586803
   1 O :   -0.518524
   2 C :    0.581708
   3 O :   -0.459468
   4 C :   -0.758169
   5 H :    0.242460
   6 H :    0.252473
   7 H :    0.249094
   8 N :   -0.490467
   9 C :   -0.537256
  10 H :    0.318621
  11 H :    0.209132
  12 H :    0.259616
  13 C :   -0.552302
  14 H :    0.266478
  15 H :    0.231902
  16 H :    0.313201
  17 C :    0.025901
  18 C :   -0.253457
  19 C :   -0.197943
  20 C :   -0.209973
  21 C :   -0.227173
  22 C :   -0.243336
  23 H :    0.234515
  24 H :    0.231902
  25 H :    0.222146
  26 H :    0.237372
  27 H :    0.281034
  28 C :   -0.342346
  29 H :    0.258421
  30 H :    0.258456
  31 O :   -0.521846
  32 C :    0.545606
  33 O :   -0.472156
  34 C :   -0.754922
  35 H :    0.240134
  36 H :    0.246316
  37 H :    0.246047
Sum of atomic charges:   -0.0000000

LOEWDIN ATOMIC CHARGES
----------------------
   0 Pd:   -0.170776
   1 O :   -0.165492
   2 C :    0.139076
   3 O :   -0.236667
   4 C :   -0.383454
   5 H :    0.146911
   6 H :    0.158068
   7 H :    0.146255
   8 N :   -0.058263
   9 C :   -0.237767
  10 H :    0.174369
  11 H :    0.116581
  12 H :    0.149226
  13 C :   -0.230756
  14 H :    0.151446
  15 H :    0.126098
  16 H :    0.172074
  17 C :   -0.031811
  18 C :   -0.125113
  19 C :   -0.114018
  20 C :   -0.126595
  21 C :   -0.097945
  22 C :   -0.115862
  23 H :    0.142945
  24 H :    0.142271
  25 H :    0.141670
  26 H :    0.145451
  27 H :    0.165476
  28 C :   -0.108979
  29 H :    0.148852
  30 H :    0.146637
  31 O :   -0.189418
  32 C :    0.106609
  33 O :   -0.280670
  34 C :   -0.387078
  35 H :    0.146653
  36 H :    0.144981
  37 H :    0.149015

  Mayer bond orders larger than 0.100000
B(  0-Pd,  1-O ) :   0.6662 B(  0-Pd,  3-O ) :   0.1931 B(  0-Pd,  8-N ) :   0.4341
B(  0-Pd, 31-O ) :   0.6408 B(  1-O ,  2-C ) :   1.2668 B(  2-C ,  3-O ) :   1.8068
B(  2-C ,  4-C ) :   0.9412 B(  4-C ,  5-H ) :   0.9153 B(  4-C ,  6-H ) :   0.9087
B(  4-C ,  7-H ) :   0.9114 B(  8-N ,  9-C ) :   0.9039 B(  8-N , 13-C ) :   0.9050
B(  8-N , 28-C ) :   0.8719 B(  9-C , 10-H ) :   0.8508 B(  9-C , 11-H ) :   0.9059
B(  9-C , 12-H ) :   0.9069 B( 13-C , 14-H ) :   0.8960 B( 13-C , 15-H ) :   0.9011
B( 13-C , 16-H ) :   0.8760 B( 17-C , 18-C ) :   1.4064 B( 17-C , 22-C ) :   1.3480
B( 17-C , 28-C ) :   0.9341 B( 18-C , 19-C ) :   1.4276 B( 18-C , 25-H ) :   0.9189
B( 19-C , 20-C ) :   1.4265 B( 19-C , 26-H ) :   0.9101 B( 20-C , 21-C ) :   1.4196
B( 20-C , 23-H ) :   0.9137 B( 21-C , 22-C ) :   1.4370 B( 21-C , 24-H ) :   0.9160
B( 22-C , 27-H ) :   0.8858 B( 28-C , 29-H ) :   0.9005 B( 28-C , 30-H ) :   0.9111
B( 31-O , 32-C ) :   1.3080 B( 32-C , 33-O ) :   1.8605 B( 32-C , 34-C ) :   0.9248
B( 34-C , 35-H ) :   0.9155 B( 34-C , 36-H ) :   0.9129 B( 34-C , 37-H ) :   0.9148

Dispersion correction           -0.026270417
FINAL SINGLE POINT ENERGY      -988.487016657011
Dispersion correction            ... done

DIPOLE MOMENT
-------------
                                X             Y             Z
Electronic contribution:     17.60368       9.54903     -11.59812
Nuclear contribution   :    -19.59139     -10.51378      12.97997
                        -----------------------------------------
Total Dipole Moment    :     -1.98771      -0.96475       1.38186
                        -----------------------------------------
Magnitude (a.u.)       :      2.60600
Magnitude (Debye)      :      6.62393

Rotational constants in cm-1:     0.014032     0.008601     0.006624
Rotational constants in MHz :   420.660157   257.850077   198.589955

                             ****ORCA TERMINATED NORMALLY****
TOTAL RUN TIME: 0 days 0 hours 7 minutes 58 seconds 296 msec
