                         Program Version 5.0.3 -  RELEASE  -
|  1> ! EnGrad PBEh-3c
|  2> %output
|  3> xyzfile=True
|  4> end
|  5> %scf
|  6> maxiter 250
|  7> end
|  8> %output
|  9> Print[P_Hirshfeld] = 1
| 10> end
| 11> % maxcore
| 12> 4000
| 13> *xyz 0 1
| 14> Pd   0.43811750   0.22686628  -0.26372406
| 15> O    1.84911697   1.34356180   0.58928612
| 16> C    1.60451295   2.58317434   0.28868874
| 17> O    0.56786845   2.93487369  -0.25176986
| 18> C    2.70903762   3.57529600   0.63461929
| 19> H    2.30637559   4.48431636   1.06658076
| 20> H    3.18842210   3.85659315  -0.29259711
| 21> H    3.45923648   3.15995163   1.29644811
| 22> N   -1.29334449  -0.73576223  -1.02083696
| 23> C   -1.08105878  -1.95511340  -1.82986547
| 24> H   -0.46841734  -1.70982521  -2.69007086
| 25> H   -2.05206106  -2.33243267  -2.17882366
| 26> H   -0.58512600  -2.71448110  -1.22773578
| 27> C   -1.96461972   0.27603184  -1.86102192
| 28> H   -2.12404362   1.19084855  -1.28647344
| 29> H   -2.94503082  -0.11180335  -2.16716308
| 30> H   -1.36594341   0.49743221  -2.73886496
| 31> C   -1.72882911  -0.76304408   1.48026258
| 32> C   -1.61286511  -1.92556184   2.28340569
| 33> C   -1.27911277  -1.88942933   3.62390498
| 34> C   -1.08562448  -0.63263382   4.16322274
| 35> C   -1.19683900   0.52498828   3.36974873
| 36> C   -1.49844313   0.46147496   2.04936599
| 37> H   -0.87036210  -0.56617622   5.23194442
| 38> H   -1.00669662   1.44481171   3.89388844
| 39> H   -1.84313652  -2.91770978   1.89188033
| 40> H   -1.21542948  -2.79043502   4.24168084
| 41> H   -1.58533443   1.52376408   1.51697393
| 42> C   -2.24646045  -1.05191601   0.10453251
| 43> H   -3.15275872  -0.46081220  -0.01250408
| 44> H   -2.56975142  -2.09828513   0.00934228
| 45> O    1.96571383  -0.73667803  -1.26639196
| 46> C    2.13301181  -0.54617378  -2.55644978
| 47> O    1.21740839  -0.40540054  -3.34380768
| 48> C    3.59639525  -0.47119925  -3.05145443
| 49> H    3.96524135  -1.39184370  -3.50670036
| 50> H    4.27271851  -0.16044792  -2.27723988
| 51> H    3.58919824   0.25319793  -3.84862773
| 52> *
| 53>
| 54>                          ****END OF INPUT****

CARTESIAN COORDINATES (ANGSTROEM)
---------------------------------
  Pd     0.438117    0.226866   -0.263724
  O      1.849117    1.343562    0.589286
  C      1.604513    2.583174    0.288689
  O      0.567868    2.934874   -0.251770
  C      2.709038    3.575296    0.634619
  H      2.306376    4.484316    1.066581
  H      3.188422    3.856593   -0.292597
  H      3.459236    3.159952    1.296448
  N     -1.293344   -0.735762   -1.020837
  C     -1.081059   -1.955113   -1.829865
  H     -0.468417   -1.709825   -2.690071
  H     -2.052061   -2.332433   -2.178824
  H     -0.585126   -2.714481   -1.227736
  C     -1.964620    0.276032   -1.861022
  H     -2.124044    1.190849   -1.286473
  H     -2.945031   -0.111803   -2.167163
  H     -1.365943    0.497432   -2.738865
  C     -1.728829   -0.763044    1.480263
  C     -1.612865   -1.925562    2.283406
  C     -1.279113   -1.889429    3.623905
  C     -1.085624   -0.632634    4.163223
  C     -1.196839    0.524988    3.369749
  C     -1.498443    0.461475    2.049366
  H     -0.870362   -0.566176    5.231944
  H     -1.006697    1.444812    3.893888
  H     -1.843137   -2.917710    1.891880
  H     -1.215429   -2.790435    4.241681
  H     -1.585334    1.523764    1.516974
  C     -2.246460   -1.051916    0.104533
  H     -3.152759   -0.460812   -0.012504
  H     -2.569751   -2.098285    0.009342
  O      1.965714   -0.736678   -1.266392
  C      2.133012   -0.546174   -2.556450
  O      1.217408   -0.405401   -3.343808
  C      3.596395   -0.471199   -3.051454
  H      3.965241   -1.391844   -3.506700
  H      4.272719   -0.160448   -2.277240
  H      3.589198    0.253198   -3.848628

 Total Charge           Charge          ....    0
 Multiplicity           Mult            ....    1
 Number of Electrons    NEL             ....  154
 Basis Dimension        Dim             ....  339

ORBITAL ENERGIES
----------------

  NO   OCC          E(Eh)            E(eV)
   0   2.0000     -19.485666      -530.2319
   1   2.0000     -19.470786      -529.8270
   2   2.0000     -19.452411      -529.3270
   3   2.0000     -19.434427      -528.8376
   4   2.0000     -14.726542      -400.7296
   5   2.0000     -10.546082      -286.9735
   6   2.0000     -10.535559      -286.6871
   7   2.0000     -10.509949      -285.9903
   8   2.0000     -10.491658      -285.4925
   9   2.0000     -10.485697      -285.3303
  10   2.0000     -10.485664      -285.3294
  11   2.0000     -10.474988      -285.0389
  12   2.0000     -10.474671      -285.0303
  13   2.0000     -10.471032      -284.9313
  14   2.0000     -10.470300      -284.9114
  15   2.0000     -10.468896      -284.8731
  16   2.0000     -10.421793      -283.5914
  17   2.0000     -10.413297      -283.3602
  18   2.0000      -3.668059       -99.8130
  19   2.0000      -2.321087       -63.1600
  20   2.0000      -2.305443       -62.7343
  21   2.0000      -2.280344       -62.0513
  22   2.0000      -1.166820       -31.7508
  23   2.0000      -1.142510       -31.0893
  24   2.0000      -1.079257       -29.3681
  25   2.0000      -1.063668       -28.9439
  26   2.0000      -1.044335       -28.4178
  27   2.0000      -0.989600       -26.9284
  28   2.0000      -0.893106       -24.3026
  29   2.0000      -0.868726       -23.6392
  30   2.0000      -0.821822       -22.3629
  31   2.0000      -0.806822       -21.9547
  32   2.0000      -0.805120       -21.9084
  33   2.0000      -0.791608       -21.5408
  34   2.0000      -0.724121       -19.7043
  35   2.0000      -0.707986       -19.2653
  36   2.0000      -0.685783       -18.6611
  37   2.0000      -0.614062       -16.7095
  38   2.0000      -0.597013       -16.2455
  39   2.0000      -0.581773       -15.8308
  40   2.0000      -0.577697       -15.7199
  41   2.0000      -0.571968       -15.5640
  42   2.0000      -0.563984       -15.3468
  43   2.0000      -0.539860       -14.6903
  44   2.0000      -0.530889       -14.4462
  45   2.0000      -0.521357       -14.1869
  46   2.0000      -0.510386       -13.8883
  47   2.0000      -0.508947       -13.8491
  48   2.0000      -0.507464       -13.8088
  49   2.0000      -0.502339       -13.6694
  50   2.0000      -0.496969       -13.5232
  51   2.0000      -0.489707       -13.3256
  52   2.0000      -0.486278       -13.2323
  53   2.0000      -0.482134       -13.1195
  54   2.0000      -0.461539       -12.5591
  55   2.0000      -0.452966       -12.3258
  56   2.0000      -0.446758       -12.1569
  57   2.0000      -0.442206       -12.0330
  58   2.0000      -0.437048       -11.8927
  59   2.0000      -0.434390       -11.8203
  60   2.0000      -0.430303       -11.7092
  61   2.0000      -0.420383       -11.4392
  62   2.0000      -0.412796       -11.2327
  63   2.0000      -0.409822       -11.1518
  64   2.0000      -0.404927       -11.0186
  65   2.0000      -0.383381       -10.4323
  66   2.0000      -0.363313        -9.8863
  67   2.0000      -0.355996        -9.6872
  68   2.0000      -0.346730        -9.4350
  69   2.0000      -0.337458        -9.1827
  70   2.0000      -0.327726        -8.9179
  71   2.0000      -0.315504        -8.5853
  72   2.0000      -0.313382        -8.5276
  73   2.0000      -0.306678        -8.3451
  74   2.0000      -0.296064        -8.0563
  75   2.0000      -0.287237        -7.8161
  76   2.0000      -0.282134        -7.6773
  77   0.0000      -0.089940        -2.4474
  78   0.0000      -0.014463        -0.3936
  79   0.0000      -0.003782        -0.1029
  80   0.0000       0.059480         1.6185
  81   0.0000       0.066451         1.8082

MULLIKEN ATOMIC CHARGES
-----------------------
   0 Pd:    0.579161
   1 O :   -0.516049
   2 C :    0.580810
   3 O :   -0.461904
   4 C :   -0.753224
   5 H :    0.240650
   6 H :    0.250743
   7 H :    0.246586
   8 N :   -0.488451
   9 C :   -0.544881
  10 H :    0.319331
  11 H :    0.212090
  12 H :    0.261376
  13 C :   -0.556288
  14 H :    0.269368
  15 H :    0.232412
  16 H :    0.311214
  17 C :    0.124155
  18 C :   -0.275194
  19 C :   -0.191034
  20 C :   -0.241483
  21 C :   -0.181097
  22 C :   -0.325575
  23 H :    0.231568
  24 H :    0.241623
  25 H :    0.219746
  26 H :    0.236169
  27 H :    0.265388
  28 C :   -0.349861
  29 H :    0.259416
  30 H :    0.259506
  31 O :   -0.529214
  32 C :    0.553708
  33 O :   -0.466143
  34 C :   -0.745183
  35 H :    0.237503
  36 H :    0.248192
  37 H :    0.244865
Sum of atomic charges:    0.0000000

LOEWDIN ATOMIC CHARGES
----------------------
   0 Pd:   -0.181648
   1 O :   -0.166974
   2 C :    0.147902
   3 O :   -0.242573
   4 C :   -0.384833
   5 H :    0.145812
   6 H :    0.156272
   7 H :    0.145112
   8 N :   -0.059892
   9 C :   -0.241601
  10 H :    0.173109
  11 H :    0.116678
  12 H :    0.148088
  13 C :   -0.233328
  14 H :    0.151889
  15 H :    0.125277
  16 H :    0.170130
  17 C :   -0.051199
  18 C :   -0.114134
  19 C :   -0.123011
  20 C :   -0.116769
  21 C :   -0.113499
  22 C :   -0.112720
  23 H :    0.140562
  24 H :    0.147673
  25 H :    0.139171
  26 H :    0.145172
  27 H :    0.177499
  28 C :   -0.101015
  29 H :    0.149859
  30 H :    0.147617
  31 O :   -0.194734
  32 C :    0.138769
  33 O :   -0.278475
  34 C :   -0.388822
  35 H :    0.146345
  36 H :    0.144049
  37 H :    0.148244

  Mayer bond orders larger than 0.100000
B(  0-Pd,  1-O ) :   0.6660 B(  0-Pd,  3-O ) :   0.1875 B(  0-Pd,  8-N ) :   0.4290
B(  0-Pd, 31-O ) :   0.6655 B(  1-O ,  2-C ) :   1.2658 B(  2-C ,  3-O ) :   1.8048
B(  2-C ,  4-C ) :   0.9367 B(  4-C ,  5-H ) :   0.9161 B(  4-C ,  6-H ) :   0.9098
B(  4-C ,  7-H ) :   0.9124 B(  8-N ,  9-C ) :   0.9102 B(  8-N , 13-C ) :   0.9088
B(  8-N , 28-C ) :   0.8726 B(  9-C , 10-H ) :   0.8508 B(  9-C , 11-H ) :   0.9060
B(  9-C , 12-H ) :   0.9065 B( 13-C , 14-H ) :   0.8952 B( 13-C , 15-H ) :   0.9010
B( 13-C , 16-H ) :   0.8775 B( 17-C , 18-C ) :   1.3870 B( 17-C , 22-C ) :   1.3390
B( 17-C , 28-C ) :   0.9276 B( 18-C , 19-C ) :   1.4411 B( 18-C , 25-H ) :   0.9186
B( 19-C , 20-C ) :   1.4214 B( 19-C , 26-H ) :   0.9121 B( 20-C , 21-C ) :   1.4267
B( 20-C , 23-H ) :   0.9139 B( 21-C , 22-C ) :   1.4265 B( 21-C , 24-H ) :   0.9113
B( 22-C , 27-H ) :   0.8916 B( 28-C , 29-H ) :   0.9010 B( 28-C , 30-H ) :   0.9114
B( 31-O , 32-C ) :   1.2700 B( 32-C , 33-O ) :   1.8660 B( 32-C , 34-C ) :   0.9201
B( 34-C , 35-H ) :   0.9175 B( 34-C , 36-H ) :   0.9109 B( 34-C , 37-H ) :   0.9145

Dispersion correction           -0.026251640
FINAL SINGLE POINT ENERGY      -988.502516576725
Dispersion correction            ... done

DIPOLE MOMENT
-------------
                                X             Y             Z
Electronic contribution:     18.10950       9.25560     -11.99853
Nuclear contribution   :    -20.08578     -10.23617      13.30170
                        -----------------------------------------
Total Dipole Moment    :     -1.97628      -0.98057       1.30317
                        -----------------------------------------
Magnitude (a.u.)       :      2.56231
Magnitude (Debye)      :      6.51288

Rotational constants in cm-1:     0.014029     0.008596     0.006617
Rotational constants in MHz :   420.591272   257.700457   198.366850

                             ****ORCA TERMINATED NORMALLY****
TOTAL RUN TIME: 0 days 0 hours 15 minutes 17 seconds 398 msec
