                         Program Version 5.0.3 -  RELEASE  -
|  1> ! EnGrad PBEh-3c
|  2> %output
|  3> xyzfile=True
|  4> end
|  5> %scf
|  6> maxiter 250
|  7> end
|  8> %output
|  9> Print[P_Hirshfeld] = 1
| 10> end
| 11> % maxcore
| 12> 4000
| 13> *xyz 0 1
| 14> Pd   0.43827603   0.23224686  -0.26703140
| 15> O    1.85576027   1.33467389   0.57590336
| 16> C    1.60553377   2.57164350   0.29157506
| 17> O    0.55320506   2.92842968  -0.24837006
| 18> C    2.70389292   3.57061363   0.63322609
| 19> H    2.30103225   4.48368028   1.06648789
| 20> H    3.18929569   3.85781303  -0.29537398
| 21> H    3.45870193   3.15815733   1.29868173
| 22> N   -1.30053510  -0.73609424  -1.02783702
| 23> C   -1.08239218  -1.94999874  -1.83536681
| 24> H   -0.46849617  -1.70696332  -2.69290513
| 25> H   -2.04990515  -2.32683342  -2.17763918
| 26> H   -0.58622917  -2.70670406  -1.23483217
| 27> C   -1.96445418   0.27924606  -1.86169967
| 28> H   -2.12318173   1.19329682  -1.28661824
| 29> H   -2.94190379  -0.10788591  -2.16827105
| 30> H   -1.36334138   0.50381655  -2.73580477
| 31> C   -1.72840983  -0.77813034   1.47621032
| 32> C   -1.60346672  -1.91482947   2.27651684
| 33> C   -1.27547197  -1.87450850   3.61588903
| 34> C   -1.08148066  -0.61756954   4.15773052
| 35> C   -1.19161942   0.52739619   3.38841521
| 36> C   -1.49755081   0.46048807   2.04720672
| 37> H   -0.87007273  -0.55117038   5.22108152
| 38> H   -1.01106794   1.45246077   3.89734999
| 39> H   -1.82363735  -2.90015271   1.88156136
| 40> H   -1.21287401  -2.78165435   4.22963726
| 41> H   -1.58430403   1.42449310   1.54079770
| 42> C   -2.24585476  -1.04494597   0.10243755
| 43> H   -3.15783749  -0.46347065  -0.01806438
| 44> H   -2.56190931  -2.09654520   0.01729731
| 45> O    1.96339573  -0.71645572  -1.26002425
| 46> C    2.12213346  -0.53357378  -2.54006556
| 47> O    1.20998650  -0.41042586  -3.35491136
| 48> C    3.59254826  -0.47120925  -3.04197859
| 49> H    3.94530247  -1.40568089  -3.49238210
| 50> H    4.27979635  -0.16319229  -2.26658529
| 51> H    3.60059868   0.24850651  -3.84998555
| 52> *
| 53>
| 54>                          ****END OF INPUT****

CARTESIAN COORDINATES (ANGSTROEM)
---------------------------------
  Pd     0.438276    0.232247   -0.267031
  O      1.855760    1.334674    0.575903
  C      1.605534    2.571643    0.291575
  O      0.553205    2.928430   -0.248370
  C      2.703893    3.570614    0.633226
  H      2.301032    4.483680    1.066488
  H      3.189296    3.857813   -0.295374
  H      3.458702    3.158157    1.298682
  N     -1.300535   -0.736094   -1.027837
  C     -1.082392   -1.949999   -1.835367
  H     -0.468496   -1.706963   -2.692905
  H     -2.049905   -2.326833   -2.177639
  H     -0.586229   -2.706704   -1.234832
  C     -1.964454    0.279246   -1.861700
  H     -2.123182    1.193297   -1.286618
  H     -2.941904   -0.107886   -2.168271
  H     -1.363341    0.503817   -2.735805
  C     -1.728410   -0.778130    1.476210
  C     -1.603467   -1.914829    2.276517
  C     -1.275472   -1.874508    3.615889
  C     -1.081481   -0.617570    4.157731
  C     -1.191619    0.527396    3.388415
  C     -1.497551    0.460488    2.047207
  H     -0.870073   -0.551170    5.221082
  H     -1.011068    1.452461    3.897350
  H     -1.823637   -2.900153    1.881561
  H     -1.212874   -2.781654    4.229637
  H     -1.584304    1.424493    1.540798
  C     -2.245855   -1.044946    0.102438
  H     -3.157837   -0.463471   -0.018064
  H     -2.561909   -2.096545    0.017297
  O      1.963396   -0.716456   -1.260024
  C      2.122133   -0.533574   -2.540066
  O      1.209987   -0.410426   -3.354911
  C      3.592548   -0.471209   -3.041979
  H      3.945302   -1.405681   -3.492382
  H      4.279796   -0.163192   -2.266585
  H      3.600599    0.248507   -3.849986

 Total Charge           Charge          ....    0
 Multiplicity           Mult            ....    1
 Number of Electrons    NEL             ....  154
 Basis Dimension        Dim             ....  339

ORBITAL ENERGIES
----------------

  NO   OCC          E(Eh)            E(eV)
   0   2.0000     -19.490150      -530.3540
   1   2.0000     -19.475479      -529.9547
   2   2.0000     -19.453143      -529.3469
   3   2.0000     -19.433400      -528.8097
   4   2.0000     -14.726104      -400.7177
   5   2.0000     -10.549189      -287.0580
   6   2.0000     -10.537277      -286.7339
   7   2.0000     -10.509685      -285.9831
   8   2.0000     -10.489426      -285.4318
   9   2.0000     -10.484869      -285.3078
  10   2.0000     -10.478506      -285.1347
  11   2.0000     -10.473588      -285.0008
  12   2.0000     -10.471437      -284.9423
  13   2.0000     -10.470788      -284.9246
  14   2.0000     -10.468080      -284.8509
  15   2.0000     -10.467310      -284.8300
  16   2.0000     -10.424883      -283.6755
  17   2.0000     -10.414424      -283.3909
  18   2.0000      -3.669521       -99.8527
  19   2.0000      -2.322612       -63.2015
  20   2.0000      -2.307167       -62.7812
  21   2.0000      -2.281647       -62.0868
  22   2.0000      -1.166334       -31.7376
  23   2.0000      -1.141077       -31.0503
  24   2.0000      -1.080937       -29.4138
  25   2.0000      -1.063309       -28.9341
  26   2.0000      -1.047048       -28.4916
  27   2.0000      -0.990586       -26.9552
  28   2.0000      -0.895991       -24.3812
  29   2.0000      -0.868033       -23.6204
  30   2.0000      -0.823223       -22.4010
  31   2.0000      -0.807844       -21.9826
  32   2.0000      -0.807435       -21.9714
  33   2.0000      -0.787988       -21.4422
  34   2.0000      -0.725771       -19.7492
  35   2.0000      -0.709103       -19.2957
  36   2.0000      -0.688451       -18.7337
  37   2.0000      -0.617831       -16.8120
  38   2.0000      -0.600860       -16.3502
  39   2.0000      -0.584372       -15.9016
  40   2.0000      -0.579034       -15.7563
  41   2.0000      -0.572842       -15.5878
  42   2.0000      -0.566367       -15.4116
  43   2.0000      -0.542286       -14.7564
  44   2.0000      -0.533990       -14.5306
  45   2.0000      -0.522258       -14.2114
  46   2.0000      -0.511729       -13.9249
  47   2.0000      -0.510334       -13.8869
  48   2.0000      -0.507354       -13.8058
  49   2.0000      -0.502697       -13.6791
  50   2.0000      -0.498994       -13.5783
  51   2.0000      -0.490287       -13.3414
  52   2.0000      -0.486648       -13.2424
  53   2.0000      -0.481215       -13.0945
  54   2.0000      -0.462638       -12.5890
  55   2.0000      -0.453091       -12.3292
  56   2.0000      -0.447346       -12.1729
  57   2.0000      -0.442189       -12.0326
  58   2.0000      -0.438308       -11.9270
  59   2.0000      -0.433833       -11.8052
  60   2.0000      -0.430765       -11.7217
  61   2.0000      -0.421473       -11.4689
  62   2.0000      -0.415182       -11.2977
  63   2.0000      -0.411774       -11.2049
  64   2.0000      -0.405473       -11.0335
  65   2.0000      -0.383082       -10.4242
  66   2.0000      -0.363772        -9.8987
  67   2.0000      -0.356547        -9.7021
  68   2.0000      -0.347775        -9.4634
  69   2.0000      -0.339229        -9.2309
  70   2.0000      -0.325831        -8.8663
  71   2.0000      -0.317218        -8.6319
  72   2.0000      -0.314676        -8.5628
  73   2.0000      -0.308304        -8.3894
  74   2.0000      -0.297491        -8.0952
  75   2.0000      -0.286607        -7.7990
  76   2.0000      -0.283170        -7.7054
  77   0.0000      -0.090406        -2.4601
  78   0.0000      -0.014496        -0.3945
  79   0.0000      -0.003388        -0.0922
  80   0.0000       0.058502         1.5919
  81   0.0000       0.066841         1.8188

MULLIKEN ATOMIC CHARGES
-----------------------
   0 Pd:    0.581612
   1 O :   -0.509922
   2 C :    0.586953
   3 O :   -0.473703
   4 C :   -0.753023
   5 H :    0.241857
   6 H :    0.251514
   7 H :    0.245575
   8 N :   -0.485250
   9 C :   -0.546514
  10 H :    0.320685
  11 H :    0.213227
  12 H :    0.260607
  13 C :   -0.557840
  14 H :    0.269735
  15 H :    0.232206
  16 H :    0.312248
  17 C :    0.131087
  18 C :   -0.278511
  19 C :   -0.193118
  20 C :   -0.238498
  21 C :   -0.181319
  22 C :   -0.328769
  23 H :    0.230635
  24 H :    0.240086
  25 H :    0.218468
  26 H :    0.235197
  27 H :    0.271640
  28 C :   -0.352980
  29 H :    0.260014
  30 H :    0.257454
  31 O :   -0.521182
  32 C :    0.557134
  33 O :   -0.479194
  34 C :   -0.742395
  35 H :    0.236201
  36 H :    0.244011
  37 H :    0.244070
Sum of atomic charges:   -0.0000000

LOEWDIN ATOMIC CHARGES
----------------------
   0 Pd:   -0.177845
   1 O :   -0.158515
   2 C :    0.155243
   3 O :   -0.255064
   4 C :   -0.383809
   5 H :    0.146583
   6 H :    0.157050
   7 H :    0.145107
   8 N :   -0.060208
   9 C :   -0.242702
  10 H :    0.173703
  11 H :    0.116908
  12 H :    0.147475
  13 C :   -0.233967
  14 H :    0.152028
  15 H :    0.124991
  16 H :    0.170602
  17 C :   -0.051755
  18 C :   -0.115317
  19 C :   -0.119868
  20 C :   -0.117916
  21 C :   -0.111462
  22 C :   -0.113029
  23 H :    0.140072
  24 H :    0.147286
  25 H :    0.138310
  26 H :    0.145331
  27 H :    0.171220
  28 C :   -0.101441
  29 H :    0.150067
  30 H :    0.147140
  31 O :   -0.181790
  32 C :    0.143059
  33 O :   -0.294268
  34 C :   -0.388862
  35 H :    0.145932
  36 H :    0.142235
  37 H :    0.147474

  Mayer bond orders larger than 0.100000
B(  0-Pd,  1-O ) :   0.6612 B(  0-Pd,  3-O ) :   0.1965 B(  0-Pd,  8-N ) :   0.4296
B(  0-Pd, 31-O ) :   0.6556 B(  1-O ,  2-C ) :   1.2768 B(  2-C ,  3-O ) :   1.7827
B(  2-C ,  4-C ) :   0.9368 B(  4-C ,  5-H ) :   0.9156 B(  4-C ,  6-H ) :   0.9092
B(  4-C ,  7-H ) :   0.9120 B(  8-N ,  9-C ) :   0.9113 B(  8-N , 13-C ) :   0.9097
B(  8-N , 28-C ) :   0.8740 B(  9-C , 10-H ) :   0.8486 B(  9-C , 11-H ) :   0.9061
B(  9-C , 12-H ) :   0.9069 B( 13-C , 14-H ) :   0.8951 B( 13-C , 15-H ) :   0.9010
B( 13-C , 16-H ) :   0.8768 B( 17-C , 18-C ) :   1.3895 B( 17-C , 22-C ) :   1.3521
B( 17-C , 28-C ) :   0.9247 B( 18-C , 19-C ) :   1.4435 B( 18-C , 25-H ) :   0.9190
B( 19-C , 20-C ) :   1.4132 B( 19-C , 26-H ) :   0.9129 B( 20-C , 21-C ) :   1.4377
B( 20-C , 23-H ) :   0.9143 B( 21-C , 22-C ) :   1.4245 B( 21-C , 24-H ) :   0.9124
B( 22-C , 27-H ) :   0.8916 B( 28-C , 29-H ) :   0.9007 B( 28-C , 30-H ) :   0.9128
B( 31-O , 32-C ) :   1.2874 B( 32-C , 33-O ) :   1.8461 B( 32-C , 34-C ) :   0.9170
B( 34-C , 35-H ) :   0.9179 B( 34-C , 36-H ) :   0.9118 B( 34-C , 37-H ) :   0.9150

Dispersion correction           -0.026300868
FINAL SINGLE POINT ENERGY      -988.513959586433
Dispersion correction            ... done

DIPOLE MOMENT
-------------
                                X             Y             Z
Electronic contribution:     18.17601       9.53768     -12.08842
Nuclear contribution   :    -20.11474     -10.50249      13.46012
                        -----------------------------------------
Total Dipole Moment    :     -1.93872      -0.96481       1.37170
                        -----------------------------------------
Magnitude (a.u.)       :      2.56341
Magnitude (Debye)      :      6.51568

Rotational constants in cm-1:     0.014061     0.008622     0.006634
Rotational constants in MHz :   421.547803   258.482986   198.890351

                             ****ORCA TERMINATED NORMALLY****
TOTAL RUN TIME: 0 days 0 hours 17 minutes 27 seconds 404 msec
