                         Program Version 5.0.3 -  RELEASE  -
|  1> ! EnGrad PBEh-3c
|  2> %output
|  3> xyzfile=True
|  4> end
|  5> %scf
|  6> maxiter 250
|  7> end
|  8> %output
|  9> Print[P_Hirshfeld] = 1
| 10> end
| 11> % maxcore
| 12> 4000
| 13> *xyz 0 1
| 14> Pd   0.43449220   0.24550329  -0.27665486
| 15> O    1.87797238   1.31268567   0.53612967
| 16> C    1.59759874   2.55192113   0.28500718
| 17> O    0.53154071   2.89462262  -0.22576105
| 18> C    2.69162972   3.55691677   0.62935539
| 19> H    2.28522998   4.47704876   1.06337088
| 20> H    3.18999173   3.86067117  -0.29883941
| 21> H    3.45731690   3.15748526   1.30246295
| 22> N   -1.31377638  -0.72983494  -1.03933006
| 23> C   -1.08829582  -1.93255329  -1.85166514
| 24> H   -0.46702360  -1.69524072  -2.70450929
| 25> H   -2.05021541  -2.31609855  -2.17676940
| 26> H   -0.59012005  -2.68607616  -1.25905033
| 27> C   -1.96641467   0.28935175  -1.86380890
| 28> H   -2.12180070   1.19939300  -1.28581115
| 29> H   -2.93962557  -0.09479155  -2.17418914
| 30> H   -1.35652629   0.52156037  -2.72734434
| 31> C   -1.72273747  -0.80738424   1.46545610
| 32> C   -1.57654476  -1.90372474   2.26360432
| 33> C   -1.26393456  -1.83448354   3.59548466
| 34> C   -1.06669051  -0.58997071   4.15824141
| 35> C   -1.18456768   0.53917831   3.41884984
| 36> C   -1.48954751   0.41941963   2.06785585
| 37> H   -0.86724486  -0.50750447   5.19492822
| 38> H   -1.03354715   1.48417809   3.91073154
| 39> H   -1.76147534  -2.85846168   1.84647637
| 40> H   -1.20170788  -2.75350806   4.19272803
| 41> H   -1.59741020   1.19940075   1.59339130
| 42> C   -2.24624944  -1.03449021   0.09099403
| 43> H   -3.17335995  -0.47066081  -0.03430678
| 44> H   -2.53531630  -2.09209420   0.03803863
| 45> O    1.96297722  -0.65447295  -1.24034159
| 46> C    2.08400566  -0.49157974  -2.52812448
| 47> O    1.20286135  -0.42199349  -3.36791020
| 48> C    3.57819912  -0.47362690  -3.00841040
| 49> H    3.88139450  -1.44682441  -3.44413506
| 50> H    4.30425421  -0.17604595  -2.23783057
| 51> H    3.63499115   0.22830061  -3.85081202
| 52> *
| 53>
| 54>                          ****END OF INPUT****

CARTESIAN COORDINATES (ANGSTROEM)
---------------------------------
  Pd     0.434492    0.245503   -0.276655
  O      1.877972    1.312686    0.536130
  C      1.597599    2.551921    0.285007
  O      0.531541    2.894623   -0.225761
  C      2.691630    3.556917    0.629355
  H      2.285230    4.477049    1.063371
  H      3.189992    3.860671   -0.298839
  H      3.457317    3.157485    1.302463
  N     -1.313776   -0.729835   -1.039330
  C     -1.088296   -1.932553   -1.851665
  H     -0.467024   -1.695241   -2.704509
  H     -2.050215   -2.316099   -2.176769
  H     -0.590120   -2.686076   -1.259050
  C     -1.966415    0.289352   -1.863809
  H     -2.121801    1.199393   -1.285811
  H     -2.939626   -0.094792   -2.174189
  H     -1.356526    0.521560   -2.727344
  C     -1.722737   -0.807384    1.465456
  C     -1.576545   -1.903725    2.263604
  C     -1.263935   -1.834484    3.595485
  C     -1.066691   -0.589971    4.158241
  C     -1.184568    0.539178    3.418850
  C     -1.489548    0.419420    2.067856
  H     -0.867245   -0.507504    5.194928
  H     -1.033547    1.484178    3.910732
  H     -1.761475   -2.858462    1.846476
  H     -1.201708   -2.753508    4.192728
  H     -1.597410    1.199401    1.593391
  C     -2.246249   -1.034490    0.090994
  H     -3.173360   -0.470661   -0.034307
  H     -2.535316   -2.092094    0.038039
  O      1.962977   -0.654473   -1.240342
  C      2.084006   -0.491580   -2.528124
  O      1.202861   -0.421993   -3.367910
  C      3.578199   -0.473627   -3.008410
  H      3.881394   -1.446824   -3.444135
  H      4.304254   -0.176046   -2.237831
  H      3.634991    0.228301   -3.850812

 Total Charge           Charge          ....    0
 Multiplicity           Mult            ....    1
 Number of Electrons    NEL             ....  154
 Basis Dimension        Dim             ....  339

ORBITAL ENERGIES
----------------

  NO   OCC          E(Eh)            E(eV)
   0   2.0000     -19.491217      -530.3830
   1   2.0000     -19.481090      -530.1074
   2   2.0000     -19.456502      -529.4383
   3   2.0000     -19.440304      -528.9976
   4   2.0000     -14.724182      -400.6654
   5   2.0000     -10.551003      -287.1074
   6   2.0000     -10.540963      -286.8342
   7   2.0000     -10.509765      -285.9853
   8   2.0000     -10.483661      -285.2749
   9   2.0000     -10.481800      -285.2243
  10   2.0000     -10.472065      -284.9594
  11   2.0000     -10.467570      -284.8371
  12   2.0000     -10.465155      -284.7713
  13   2.0000     -10.461863      -284.6818
  14   2.0000     -10.460232      -284.6374
  15   2.0000     -10.457758      -284.5701
  16   2.0000     -10.428483      -283.7735
  17   2.0000     -10.417513      -283.4749
  18   2.0000      -3.667940       -99.8097
  19   2.0000      -2.320726       -63.1502
  20   2.0000      -2.306712       -62.7688
  21   2.0000      -2.279799       -62.0365
  22   2.0000      -1.170237       -31.8438
  23   2.0000      -1.147309       -31.2199
  24   2.0000      -1.084194       -29.5024
  25   2.0000      -1.066884       -29.0314
  26   2.0000      -1.058223       -28.7957
  27   2.0000      -0.994970       -27.0745
  28   2.0000      -0.900977       -24.5168
  29   2.0000      -0.870044       -23.6751
  30   2.0000      -0.825566       -22.4648
  31   2.0000      -0.813915       -22.1478
  32   2.0000      -0.806619       -21.9492
  33   2.0000      -0.780462       -21.2374
  34   2.0000      -0.731816       -19.9137
  35   2.0000      -0.713676       -19.4201
  36   2.0000      -0.690933       -18.8012
  37   2.0000      -0.627141       -17.0654
  38   2.0000      -0.604651       -16.4534
  39   2.0000      -0.587013       -15.9734
  40   2.0000      -0.582093       -15.8396
  41   2.0000      -0.574096       -15.6219
  42   2.0000      -0.573933       -15.6175
  43   2.0000      -0.545709       -14.8495
  44   2.0000      -0.535876       -14.5819
  45   2.0000      -0.525326       -14.2949
  46   2.0000      -0.513533       -13.9739
  47   2.0000      -0.509537       -13.8652
  48   2.0000      -0.509211       -13.8563
  49   2.0000      -0.505324       -13.7506
  50   2.0000      -0.502181       -13.6650
  51   2.0000      -0.493240       -13.4217
  52   2.0000      -0.491626       -13.3778
  53   2.0000      -0.481979       -13.1153
  54   2.0000      -0.464844       -12.6491
  55   2.0000      -0.453288       -12.3346
  56   2.0000      -0.447665       -12.1816
  57   2.0000      -0.442206       -12.0330
  58   2.0000      -0.440943       -11.9987
  59   2.0000      -0.432529       -11.7697
  60   2.0000      -0.429078       -11.6758
  61   2.0000      -0.422133       -11.4868
  62   2.0000      -0.418545       -11.3892
  63   2.0000      -0.411230       -11.1901
  64   2.0000      -0.406022       -11.0484
  65   2.0000      -0.381448       -10.3797
  66   2.0000      -0.367516       -10.0006
  67   2.0000      -0.355573        -9.6756
  68   2.0000      -0.348223        -9.4756
  69   2.0000      -0.341141        -9.2829
  70   2.0000      -0.326094        -8.8735
  71   2.0000      -0.320209        -8.7133
  72   2.0000      -0.315065        -8.5734
  73   2.0000      -0.310710        -8.4548
  74   2.0000      -0.298390        -8.1196
  75   2.0000      -0.289663        -7.8821
  76   2.0000      -0.285291        -7.7632
  77   0.0000      -0.085570        -2.3285
  78   0.0000      -0.012948        -0.3523
  79   0.0000       0.001340         0.0365
  80   0.0000       0.057335         1.5602
  81   0.0000       0.066651         1.8137

MULLIKEN ATOMIC CHARGES
-----------------------
   0 Pd:    0.570925
   1 O :   -0.505757
   2 C :    0.594278
   3 O :   -0.470258
   4 C :   -0.756302
   5 H :    0.240875
   6 H :    0.250288
   7 H :    0.246014
   8 N :   -0.481913
   9 C :   -0.549698
  10 H :    0.320224
  11 H :    0.215527
  12 H :    0.260413
  13 C :   -0.559205
  14 H :    0.270619
  15 H :    0.231453
  16 H :    0.310893
  17 C :    0.133603
  18 C :   -0.285905
  19 C :   -0.195008
  20 C :   -0.235001
  21 C :   -0.187089
  22 C :   -0.295779
  23 H :    0.231381
  24 H :    0.235089
  25 H :    0.216466
  26 H :    0.228747
  27 H :    0.262526
  28 C :   -0.358414
  29 H :    0.260080
  30 H :    0.254167
  31 O :   -0.517099
  32 C :    0.560759
  33 O :   -0.465985
  34 C :   -0.739350
  35 H :    0.232225
  36 H :    0.239584
  37 H :    0.236625
Sum of atomic charges:   -0.0000000

LOEWDIN ATOMIC CHARGES
----------------------
   0 Pd:   -0.187191
   1 O :   -0.153620
   2 C :    0.156346
   3 O :   -0.244933
   4 C :   -0.383930
   5 H :    0.146086
   6 H :    0.156820
   7 H :    0.145850
   8 N :   -0.062559
   9 C :   -0.244174
  10 H :    0.173483
  11 H :    0.117310
  12 H :    0.146318
  13 C :   -0.234731
  14 H :    0.152029
  15 H :    0.124281
  16 H :    0.169999
  17 C :   -0.051669
  18 C :   -0.116181
  19 C :   -0.116369
  20 C :   -0.118084
  21 C :   -0.105751
  22 C :   -0.111636
  23 H :    0.139200
  24 H :    0.147953
  25 H :    0.135798
  26 H :    0.143997
  27 H :    0.148460
  28 C :   -0.101564
  29 H :    0.150570
  30 H :    0.146937
  31 O :   -0.170971
  32 C :    0.143082
  33 O :   -0.279535
  34 C :   -0.390255
  35 H :    0.144751
  36 H :    0.140390
  37 H :    0.143496

  Mayer bond orders larger than 0.100000
B(  0-Pd,  1-O ) :   0.6664 B(  0-Pd,  3-O ) :   0.2044 B(  0-Pd,  8-N ) :   0.4206
B(  0-Pd, 31-O ) :   0.6651 B(  1-O ,  2-C ) :   1.2727 B(  1-O ,  3-O ) :   0.1002
B(  2-C ,  3-O ) :   1.7802 B(  2-C ,  4-C ) :   0.9345 B(  4-C ,  5-H ) :   0.9155
B(  4-C ,  6-H ) :   0.9092 B(  4-C ,  7-H ) :   0.9117 B(  8-N ,  9-C ) :   0.9142
B(  8-N , 13-C ) :   0.9122 B(  8-N , 28-C ) :   0.8788 B(  9-C , 10-H ) :   0.8490
B(  9-C , 11-H ) :   0.9063 B(  9-C , 12-H ) :   0.9071 B( 13-C , 14-H ) :   0.8947
B( 13-C , 15-H ) :   0.9012 B( 13-C , 16-H ) :   0.8777 B( 17-C , 18-C ) :   1.3912
B( 17-C , 22-C ) :   1.3989 B( 17-C , 28-C ) :   0.9190 B( 18-C , 19-C ) :   1.4498
B( 18-C , 25-H ) :   0.9174 B( 19-C , 20-C ) :   1.4077 B( 19-C , 26-H ) :   0.9170
B( 20-C , 21-C ) :   1.4419 B( 20-C , 23-H ) :   0.9135 B( 21-C , 22-C ) :   1.4307
B( 21-C , 24-H ) :   0.9165 B( 22-C , 27-H ) :   0.8904 B( 28-C , 29-H ) :   0.9011
B( 28-C , 30-H ) :   0.9146 B( 31-O , 32-C ) :   1.2768 B( 32-C , 33-O ) :   1.8630
B( 32-C , 34-C ) :   0.9080 B( 34-C , 35-H ) :   0.9184 B( 34-C , 36-H ) :   0.9132
B( 34-C , 37-H ) :   0.9169

Dispersion correction           -0.026422015
FINAL SINGLE POINT ENERGY      -988.487455807476
Dispersion correction            ... done

DIPOLE MOMENT
-------------
                                X             Y             Z
Electronic contribution:     18.00835      10.28929     -12.63654
Nuclear contribution   :    -19.92865     -11.17554      13.95244
                        -----------------------------------------
Total Dipole Moment    :     -1.92030      -0.88625       1.31590
                        -----------------------------------------
Magnitude (a.u.)       :      2.49090
Magnitude (Debye)      :      6.33137

Rotational constants in cm-1:     0.014172     0.008688     0.006678
Rotational constants in MHz :   424.856687   260.450592   200.203928

                             ****ORCA TERMINATED NORMALLY****
TOTAL RUN TIME: 0 days 0 hours 7 minutes 55 seconds 85 msec
