                         Program Version 5.0.3 -  RELEASE  -
|  1> ! EnGrad PBEh-3c
|  2> %output
|  3> xyzfile=True
|  4> end
|  5> %scf
|  6> maxiter 250
|  7> end
|  8> %output
|  9> Print[P_Hirshfeld] = 1
| 10> end
| 11> % maxcore
| 12> 4000
| 13> *xyz 0 1
| 14> Pd   0.44586658   0.24953498  -0.28268184
| 15> O    1.88803383   1.30268692   0.51452810
| 16> C    1.60162141   2.54094016   0.28182631
| 17> O    0.53018893   2.87738557  -0.22737760
| 18> C    2.68902785   3.55098675   0.62610321
| 19> H    2.27824719   4.47012955   1.06239363
| 20> H    3.19595552   3.86141475  -0.30009399
| 21> H    3.45594451   3.15420959   1.30246370
| 22> N   -1.31369783  -0.72444947  -1.03966685
| 23> C   -1.08644049  -1.92696068  -1.85149429
| 24> H   -0.46307940  -1.69446931  -2.70519891
| 25> H   -2.04618915  -2.31724675  -2.17581664
| 26> H   -0.58748863  -2.68293082  -1.26228882
| 27> C   -1.96355287   0.29216791  -1.86759499
| 28> H   -2.12046977   1.20078618  -1.28999505
| 29> H   -2.93638881  -0.08950562  -2.18046798
| 30> H   -1.35188138   0.52468369  -2.72922143
| 31> C   -1.72310444  -0.83264853   1.46746591
| 32> C   -1.57031682  -1.91110857   2.26517459
| 33> C   -1.26578452  -1.82242207   3.59749797
| 34> C   -1.06493422  -0.58707404   4.17206655
| 35> C   -1.17722218   0.53977098   3.44808192
| 36> C   -1.48736036   0.36707774   2.11574080
| 37> H   -0.86133494  -0.49310307   5.20101911
| 38> H   -1.04458759   1.50413354   3.91544509
| 39> H   -1.74502375  -2.85041007   1.82571432
| 40> H   -1.19801994  -2.73530477   4.17288904
| 41> H   -1.63546403   1.18644341   1.56813123
| 42> C   -2.24554807  -1.02552859   0.08568799
| 43> H   -3.17828265  -0.47000509  -0.04954706
| 44> H   -2.52124826  -2.08169201   0.04584531
| 45> O    1.96317451  -0.64877002  -1.23803980
| 46> C    2.07517613  -0.47797060  -2.52407519
| 47> O    1.19398140  -0.38858746  -3.37720293
| 48> C    3.56469011  -0.47550272  -3.00375676
| 49> H    3.85405969  -1.45884217  -3.42331410
| 50> H    4.30807344  -0.18718010  -2.23109465
| 51> H    3.65060768   0.22372306  -3.85161553
| 52> *
| 53>
| 54>                          ****END OF INPUT****

CARTESIAN COORDINATES (ANGSTROEM)
---------------------------------
  Pd     0.445867    0.249535   -0.282682
  O      1.888034    1.302687    0.514528
  C      1.601621    2.540940    0.281826
  O      0.530189    2.877386   -0.227378
  C      2.689028    3.550987    0.626103
  H      2.278247    4.470130    1.062394
  H      3.195956    3.861415   -0.300094
  H      3.455945    3.154210    1.302464
  N     -1.313698   -0.724449   -1.039667
  C     -1.086440   -1.926961   -1.851494
  H     -0.463079   -1.694469   -2.705199
  H     -2.046189   -2.317247   -2.175817
  H     -0.587489   -2.682931   -1.262289
  C     -1.963553    0.292168   -1.867595
  H     -2.120470    1.200786   -1.289995
  H     -2.936389   -0.089506   -2.180468
  H     -1.351881    0.524684   -2.729221
  C     -1.723104   -0.832649    1.467466
  C     -1.570317   -1.911109    2.265175
  C     -1.265785   -1.822422    3.597498
  C     -1.064934   -0.587074    4.172067
  C     -1.177222    0.539771    3.448082
  C     -1.487360    0.367078    2.115741
  H     -0.861335   -0.493103    5.201019
  H     -1.044588    1.504134    3.915445
  H     -1.745024   -2.850410    1.825714
  H     -1.198020   -2.735305    4.172889
  H     -1.635464    1.186443    1.568131
  C     -2.245548   -1.025529    0.085688
  H     -3.178283   -0.470005   -0.049547
  H     -2.521248   -2.081692    0.045845
  O      1.963175   -0.648770   -1.238040
  C      2.075176   -0.477971   -2.524075
  O      1.193981   -0.388587   -3.377203
  C      3.564690   -0.475503   -3.003757
  H      3.854060   -1.458842   -3.423314
  H      4.308073   -0.187180   -2.231095
  H      3.650608    0.223723   -3.851616

 Total Charge           Charge          ....    0
 Multiplicity           Mult            ....    1
 Number of Electrons    NEL             ....  154
 Basis Dimension        Dim             ....  339

ORBITAL ENERGIES
----------------

  NO   OCC          E(Eh)            E(eV)
   0   2.0000     -19.493445      -530.4436
   1   2.0000     -19.484324      -530.1954
   2   2.0000     -19.457642      -529.4693
   3   2.0000     -19.440914      -529.0142
   4   2.0000     -14.723515      -400.6472
   5   2.0000     -10.552545      -287.1493
   6   2.0000     -10.542936      -286.8879
   7   2.0000     -10.510098      -285.9943
   8   2.0000     -10.482660      -285.2477
   9   2.0000     -10.477904      -285.1183
  10   2.0000     -10.472206      -284.9632
  11   2.0000     -10.463903      -284.7373
  12   2.0000     -10.463505      -284.7264
  13   2.0000     -10.460600      -284.6474
  14   2.0000     -10.459178      -284.6087
  15   2.0000     -10.458539      -284.5913
  16   2.0000     -10.430631      -283.8319
  17   2.0000     -10.418596      -283.5044
  18   2.0000      -3.668144       -99.8153
  19   2.0000      -2.321058       -63.1592
  20   2.0000      -2.307266       -62.7839
  21   2.0000      -2.279788       -62.0362
  22   2.0000      -1.173212       -31.9247
  23   2.0000      -1.145618       -31.1738
  24   2.0000      -1.084827       -29.5196
  25   2.0000      -1.068408       -29.0729
  26   2.0000      -1.058710       -28.8090
  27   2.0000      -0.997840       -27.1526
  28   2.0000      -0.903808       -24.5939
  29   2.0000      -0.865416       -23.5492
  30   2.0000      -0.825381       -22.4598
  31   2.0000      -0.815298       -22.1854
  32   2.0000      -0.807896       -21.9840
  33   2.0000      -0.780123       -21.2282
  34   2.0000      -0.729951       -19.8630
  35   2.0000      -0.713056       -19.4032
  36   2.0000      -0.689592       -18.7647
  37   2.0000      -0.625516       -17.0212
  38   2.0000      -0.607373       -16.5275
  39   2.0000      -0.589390       -16.0381
  40   2.0000      -0.581072       -15.8118
  41   2.0000      -0.576446       -15.6859
  42   2.0000      -0.572872       -15.5886
  43   2.0000      -0.544057       -14.8045
  44   2.0000      -0.534569       -14.5464
  45   2.0000      -0.527675       -14.3588
  46   2.0000      -0.515504       -14.0276
  47   2.0000      -0.511026       -13.9057
  48   2.0000      -0.507747       -13.8165
  49   2.0000      -0.503790       -13.7088
  50   2.0000      -0.500135       -13.6094
  51   2.0000      -0.493921       -13.4403
  52   2.0000      -0.492309       -13.3964
  53   2.0000      -0.481993       -13.1157
  54   2.0000      -0.465294       -12.6613
  55   2.0000      -0.452610       -12.3161
  56   2.0000      -0.446807       -12.1582
  57   2.0000      -0.443369       -12.0647
  58   2.0000      -0.441731       -12.0201
  59   2.0000      -0.433692       -11.8014
  60   2.0000      -0.426981       -11.6187
  61   2.0000      -0.424359       -11.5474
  62   2.0000      -0.413222       -11.2443
  63   2.0000      -0.410989       -11.1836
  64   2.0000      -0.406773       -11.0689
  65   2.0000      -0.381544       -10.3823
  66   2.0000      -0.367931       -10.0119
  67   2.0000      -0.356273        -9.6947
  68   2.0000      -0.348532        -9.4840
  69   2.0000      -0.342032        -9.3072
  70   2.0000      -0.327446        -8.9103
  71   2.0000      -0.322037        -8.7631
  72   2.0000      -0.315136        -8.5753
  73   2.0000      -0.310338        -8.4447
  74   2.0000      -0.299002        -8.1363
  75   2.0000      -0.289781        -7.8854
  76   2.0000      -0.285204        -7.7608
  77   0.0000      -0.083699        -2.2776
  78   0.0000      -0.010255        -0.2791
  79   0.0000       0.003163         0.0861
  80   0.0000       0.056395         1.5346
  81   0.0000       0.066157         1.8002

MULLIKEN ATOMIC CHARGES
-----------------------
   0 Pd:    0.576797
   1 O :   -0.504295
   2 C :    0.597769
   3 O :   -0.471776
   4 C :   -0.757490
   5 H :    0.241607
   6 H :    0.250897
   7 H :    0.245972
   8 N :   -0.480875
   9 C :   -0.551246
  10 H :    0.319331
  11 H :    0.216362
  12 H :    0.259925
  13 C :   -0.560298
  14 H :    0.270466
  15 H :    0.230738
  16 H :    0.311860
  17 C :    0.172195
  18 C :   -0.295714
  19 C :   -0.186762
  20 C :   -0.246827
  21 C :   -0.160650
  22 C :   -0.343270
  23 H :    0.230656
  24 H :    0.236662
  25 H :    0.214040
  26 H :    0.226486
  27 H :    0.254169
  28 C :   -0.354391
  29 H :    0.261203
  30 H :    0.252339
  31 O :   -0.515937
  32 C :    0.565520
  33 O :   -0.473686
  34 C :   -0.737486
  35 H :    0.232584
  36 H :    0.236678
  37 H :    0.236446
Sum of atomic charges:   -0.0000000

LOEWDIN ATOMIC CHARGES
----------------------
   0 Pd:   -0.189109
   1 O :   -0.147731
   2 C :    0.157773
   3 O :   -0.244237
   4 C :   -0.383328
   5 H :    0.146580
   6 H :    0.157457
   7 H :    0.146117
   8 N :   -0.063941
   9 C :   -0.244750
  10 H :    0.173352
  11 H :    0.117441
  12 H :    0.145715
  13 C :   -0.235365
  14 H :    0.151744
  15 H :    0.123755
  16 H :    0.170454
  17 C :   -0.061452
  18 C :   -0.113194
  19 C :   -0.119837
  20 C :   -0.114836
  21 C :   -0.112992
  22 C :   -0.106045
  23 H :    0.138735
  24 H :    0.149668
  25 H :    0.134095
  26 H :    0.143364
  27 H :    0.151472
  28 C :   -0.102075
  29 H :    0.151301
  30 H :    0.147270
  31 O :   -0.166381
  32 C :    0.149082
  33 O :   -0.288883
  34 C :   -0.388934
  35 H :    0.144867
  36 H :    0.139693
  37 H :    0.143152

  Mayer bond orders larger than 0.100000
B(  0-Pd,  1-O ) :   0.6678 B(  0-Pd,  3-O ) :   0.2106 B(  0-Pd,  8-N ) :   0.4154
B(  0-Pd, 31-O ) :   0.6630 B(  1-O ,  2-C ) :   1.2739 B(  1-O ,  3-O ) :   0.1001
B(  2-C ,  3-O ) :   1.7731 B(  2-C ,  4-C ) :   0.9349 B(  4-C ,  5-H ) :   0.9151
B(  4-C ,  6-H ) :   0.9089 B(  4-C ,  7-H ) :   0.9114 B(  8-N ,  9-C ) :   0.9150
B(  8-N , 13-C ) :   0.9126 B(  8-N , 28-C ) :   0.8814 B(  9-C , 10-H ) :   0.8498
B(  9-C , 11-H ) :   0.9064 B(  9-C , 12-H ) :   0.9071 B( 13-C , 14-H ) :   0.8950
B( 13-C , 15-H ) :   0.9013 B( 13-C , 16-H ) :   0.8767 B( 17-C , 18-C ) :   1.3981
B( 17-C , 22-C ) :   1.3696 B( 17-C , 28-C ) :   0.9198 B( 18-C , 19-C ) :   1.4473
B( 18-C , 25-H ) :   0.9162 B( 19-C , 20-C ) :   1.4151 B( 19-C , 26-H ) :   0.9191
B( 20-C , 21-C ) :   1.4276 B( 20-C , 23-H ) :   0.9138 B( 21-C , 22-C ) :   1.4221
B( 21-C , 24-H ) :   0.9158 B( 22-C , 27-H ) :   0.8975 B( 28-C , 29-H ) :   0.9007
B( 28-C , 30-H ) :   0.9137 B( 31-O , 32-C ) :   1.2798 B( 31-O , 33-O ) :   0.1002
B( 32-C , 33-O ) :   1.8516 B( 32-C , 34-C ) :   0.9091 B( 34-C , 35-H ) :   0.9173
B( 34-C , 36-H ) :   0.9141 B( 34-C , 37-H ) :   0.9172

Dispersion correction           -0.026384785
FINAL SINGLE POINT ENERGY      -988.499494797386
Dispersion correction            ... done

DIPOLE MOMENT
-------------
                                X             Y             Z
Electronic contribution:     18.66762      10.55975     -12.96478
Nuclear contribution   :    -20.52572     -11.40560      14.28839
                        -----------------------------------------
Total Dipole Moment    :     -1.85810      -0.84585       1.32361
                        -----------------------------------------
Magnitude (a.u.)       :      2.43310
Magnitude (Debye)      :      6.18444

Rotational constants in cm-1:     0.014234     0.008670     0.006673
Rotational constants in MHz :   426.725814   259.911961   200.058596

                             ****ORCA TERMINATED NORMALLY****
TOTAL RUN TIME: 0 days 0 hours 7 minutes 38 seconds 851 msec
