                         Program Version 5.0.3 -  RELEASE  -
|  1> ! EnGrad PBEh-3c
|  2> %output
|  3> xyzfile=True
|  4> end
|  5> %scf
|  6> maxiter 250
|  7> end
|  8> %output
|  9> Print[P_Hirshfeld] = 1
| 10> end
| 11> % maxcore
| 12> 4000
| 13> *xyz 0 1
| 14> Pd   0.46041292   0.25547011  -0.29300317
| 15> O    1.90620162   1.29035008   0.47829462
| 16> C    1.61512765   2.52604151   0.27388316
| 17> O    0.53173965   2.84605639  -0.23262371
| 18> C    2.68670241   3.54222954   0.62049907
| 19> H    2.26849786   4.45411941   1.05975021
| 20> H    3.20434598   3.85980306  -0.29788641
| 21> H    3.44931953   3.14743569   1.29987273
| 22> N   -1.30462025  -0.71133653  -1.03574446
| 23> C   -1.07907548  -1.92106795  -1.84706441
| 24> H   -0.45403863  -1.69409172  -2.70645119
| 25> H   -2.04117211  -2.32180706  -2.17640959
| 26> H   -0.57798319  -2.68132223  -1.25854143
| 27> C   -1.95643070   0.29794572  -1.87626185
| 28> H   -2.11663585   1.20488916  -1.29795508
| 29> H   -2.93088957  -0.08344398  -2.19341766
| 30> H   -1.34065848   0.52842242  -2.73685446
| 31> C   -1.72219903  -0.84970344   1.47833199
| 32> C   -1.56443498  -1.93151067   2.27356407
| 33> C   -1.26612613  -1.80897967   3.60312560
| 34> C   -1.06389149  -0.59605841   4.20708493
| 35> C   -1.16953726   0.54769687   3.48451008
| 36> C   -1.49512972   0.32554636   2.16598867
| 37> H   -0.84801533  -0.47462986   5.22669949
| 38> H   -1.05899259   1.53364735   3.92265527
| 39> H   -1.72407069  -2.85104254   1.79391331
| 40> H   -1.19488504  -2.70872269   4.14666902
| 41> H   -1.70171987   1.14874090   1.53219730
| 42> C   -2.24344538  -1.01261603   0.07960247
| 43> H   -3.18344556  -0.46674338  -0.07461382
| 44> H   -2.50252130  -2.06502623   0.05601758
| 45> O    1.95579926  -0.65642175  -1.25001426
| 46> C    2.07384303  -0.46016093  -2.52822498
| 47> O    1.17986691  -0.30781072  -3.37623822
| 48> C    3.54307775  -0.47718800  -2.99793537
| 49> H    3.80689265  -1.47114374  -3.38967967
| 50> H    4.30349055  -0.20951999  -2.22671305
| 51> H    3.67573659   0.21289905  -3.84796573
| 52> *
| 53>
| 54>                          ****END OF INPUT****

CARTESIAN COORDINATES (ANGSTROEM)
---------------------------------
  Pd     0.460413    0.255470   -0.293003
  O      1.906202    1.290350    0.478295
  C      1.615128    2.526042    0.273883
  O      0.531740    2.846056   -0.232624
  C      2.686702    3.542230    0.620499
  H      2.268498    4.454119    1.059750
  H      3.204346    3.859803   -0.297886
  H      3.449320    3.147436    1.299873
  N     -1.304620   -0.711337   -1.035744
  C     -1.079075   -1.921068   -1.847064
  H     -0.454039   -1.694092   -2.706451
  H     -2.041172   -2.321807   -2.176410
  H     -0.577983   -2.681322   -1.258541
  C     -1.956431    0.297946   -1.876262
  H     -2.116636    1.204889   -1.297955
  H     -2.930890   -0.083444   -2.193418
  H     -1.340658    0.528422   -2.736854
  C     -1.722199   -0.849703    1.478332
  C     -1.564435   -1.931511    2.273564
  C     -1.266126   -1.808980    3.603126
  C     -1.063891   -0.596058    4.207085
  C     -1.169537    0.547697    3.484510
  C     -1.495130    0.325546    2.165989
  H     -0.848015   -0.474630    5.226699
  H     -1.058993    1.533647    3.922655
  H     -1.724071   -2.851043    1.793913
  H     -1.194885   -2.708723    4.146669
  H     -1.701720    1.148741    1.532197
  C     -2.243445   -1.012616    0.079602
  H     -3.183446   -0.466743   -0.074614
  H     -2.502521   -2.065026    0.056018
  O      1.955799   -0.656422   -1.250014
  C      2.073843   -0.460161   -2.528225
  O      1.179867   -0.307811   -3.376238
  C      3.543078   -0.477188   -2.997935
  H      3.806893   -1.471144   -3.389680
  H      4.303491   -0.209520   -2.226713
  H      3.675737    0.212899   -3.847966

 Total Charge           Charge          ....    0
 Multiplicity           Mult            ....    1
 Number of Electrons    NEL             ....  154
 Basis Dimension        Dim             ....  339

ORBITAL ENERGIES
----------------

  NO   OCC          E(Eh)            E(eV)
   0   2.0000     -19.494987      -530.4856
   1   2.0000     -19.483868      -530.1830
   2   2.0000     -19.458009      -529.4793
   3   2.0000     -19.438486      -528.9481
   4   2.0000     -14.723203      -400.6387
   5   2.0000     -10.553513      -287.1757
   6   2.0000     -10.541967      -286.8615
   7   2.0000     -10.510419      -286.0030
   8   2.0000     -10.481614      -285.2192
   9   2.0000     -10.476106      -285.0693
  10   2.0000     -10.474007      -285.0122
  11   2.0000     -10.465856      -284.7904
  12   2.0000     -10.463566      -284.7281
  13   2.0000     -10.460312      -284.6396
  14   2.0000     -10.459384      -284.6143
  15   2.0000     -10.458677      -284.5951
  16   2.0000     -10.432120      -283.8724
  17   2.0000     -10.418134      -283.4918
  18   2.0000      -3.667409       -99.7953
  19   2.0000      -2.320763       -63.1512
  20   2.0000      -2.306555       -62.7646
  21   2.0000      -2.278830       -62.0101
  22   2.0000      -1.177069       -32.0297
  23   2.0000      -1.143564       -31.1180
  24   2.0000      -1.083303       -29.4782
  25   2.0000      -1.068289       -29.0696
  26   2.0000      -1.054695       -28.6997
  27   2.0000      -0.997420       -27.1412
  28   2.0000      -0.903074       -24.5739
  29   2.0000      -0.861834       -23.4517
  30   2.0000      -0.823084       -22.3973
  31   2.0000      -0.814742       -22.1702
  32   2.0000      -0.811731       -22.0883
  33   2.0000      -0.784628       -21.3508
  34   2.0000      -0.727926       -19.8079
  35   2.0000      -0.713013       -19.4021
  36   2.0000      -0.687978       -18.7208
  37   2.0000      -0.623608       -16.9692
  38   2.0000      -0.610227       -16.6051
  39   2.0000      -0.591220       -16.0879
  40   2.0000      -0.580441       -15.7946
  41   2.0000      -0.576810       -15.6958
  42   2.0000      -0.569611       -15.4999
  43   2.0000      -0.544236       -14.8094
  44   2.0000      -0.532912       -14.5013
  45   2.0000      -0.529880       -14.4188
  46   2.0000      -0.517645       -14.0858
  47   2.0000      -0.512625       -13.9492
  48   2.0000      -0.506861       -13.7924
  49   2.0000      -0.504551       -13.7295
  50   2.0000      -0.494118       -13.4456
  51   2.0000      -0.492849       -13.4111
  52   2.0000      -0.491666       -13.3789
  53   2.0000      -0.482332       -13.1249
  54   2.0000      -0.465022       -12.6539
  55   2.0000      -0.451061       -12.2740
  56   2.0000      -0.445881       -12.1330
  57   2.0000      -0.444148       -12.0859
  58   2.0000      -0.442120       -12.0307
  59   2.0000      -0.436253       -11.8711
  60   2.0000      -0.428914       -11.6713
  61   2.0000      -0.423350       -11.5199
  62   2.0000      -0.414306       -11.2738
  63   2.0000      -0.408312       -11.1107
  64   2.0000      -0.399638       -10.8747
  65   2.0000      -0.380948       -10.3661
  66   2.0000      -0.366751        -9.9798
  67   2.0000      -0.357043        -9.7156
  68   2.0000      -0.347557        -9.4575
  69   2.0000      -0.342173        -9.3110
  70   2.0000      -0.327781        -8.9194
  71   2.0000      -0.321370        -8.7449
  72   2.0000      -0.314646        -8.5619
  73   2.0000      -0.308802        -8.4029
  74   2.0000      -0.298714        -8.1284
  75   2.0000      -0.288896        -7.8613
  76   2.0000      -0.283241        -7.7074
  77   0.0000      -0.080371        -2.1870
  78   0.0000      -0.007482        -0.2036
  79   0.0000       0.001798         0.0489
  80   0.0000       0.055524         1.5109
  81   0.0000       0.066444         1.8080

MULLIKEN ATOMIC CHARGES
-----------------------
   0 Pd:    0.587638
   1 O :   -0.502643
   2 C :    0.602311
   3 O :   -0.476608
   4 C :   -0.760297
   5 H :    0.243808
   6 H :    0.252911
   7 H :    0.247037
   8 N :   -0.482000
   9 C :   -0.550475
  10 H :    0.316916
  11 H :    0.216255
  12 H :    0.259200
  13 C :   -0.560470
  14 H :    0.269822
  15 H :    0.229201
  16 H :    0.314253
  17 C :    0.167095
  18 C :   -0.285339
  19 C :   -0.185985
  20 C :   -0.248150
  21 C :   -0.164688
  22 C :   -0.342699
  23 H :    0.231257
  24 H :    0.238997
  25 H :    0.213294
  26 H :    0.223920
  27 H :    0.240126
  28 C :   -0.344569
  29 H :    0.261651
  30 H :    0.250647
  31 O :   -0.518057
  32 C :    0.569470
  33 O :   -0.485167
  34 C :   -0.738549
  35 H :    0.234577
  36 H :    0.236955
  37 H :    0.238355
Sum of atomic charges:   -0.0000000

LOEWDIN ATOMIC CHARGES
----------------------
   0 Pd:   -0.191767
   1 O :   -0.140079
   2 C :    0.159283
   3 O :   -0.244781
   4 C :   -0.382212
   5 H :    0.147747
   6 H :    0.158759
   7 H :    0.147006
   8 N :   -0.064628
   9 C :   -0.243953
  10 H :    0.173108
  11 H :    0.117583
  12 H :    0.145212
  13 C :   -0.235571
  14 H :    0.151336
  15 H :    0.123159
  16 H :    0.171821
  17 C :   -0.067463
  18 C :   -0.111280
  19 C :   -0.124328
  20 C :   -0.112597
  21 C :   -0.116077
  22 C :   -0.101438
  23 H :    0.139840
  24 H :    0.151155
  25 H :    0.133974
  26 H :    0.142095
  27 H :    0.149425
  28 C :   -0.103956
  29 H :    0.151642
  30 H :    0.147315
  31 O :   -0.164524
  32 C :    0.150546
  33 O :   -0.300994
  34 C :   -0.385796
  35 H :    0.146199
  36 H :    0.140543
  37 H :    0.143695

  Mayer bond orders larger than 0.100000
B(  0-Pd,  1-O ) :   0.6656 B(  0-Pd,  3-O ) :   0.2245 B(  0-Pd,  8-N ) :   0.4114
B(  0-Pd, 31-O ) :   0.6568 B(  1-O ,  2-C ) :   1.2807 B(  2-C ,  3-O ) :   1.7568
B(  2-C ,  4-C ) :   0.9381 B(  4-C ,  5-H ) :   0.9144 B(  4-C ,  6-H ) :   0.9080
B(  4-C ,  7-H ) :   0.9107 B(  8-N ,  9-C ) :   0.9143 B(  8-N , 13-C ) :   0.9114
B(  8-N , 28-C ) :   0.8828 B(  9-C , 10-H ) :   0.8524 B(  9-C , 11-H ) :   0.9065
B(  9-C , 12-H ) :   0.9068 B( 13-C , 14-H ) :   0.8955 B( 13-C , 15-H ) :   0.9016
B( 13-C , 16-H ) :   0.8744 B( 17-C , 18-C ) :   1.4085 B( 17-C , 22-C ) :   1.3558
B( 17-C , 28-C ) :   0.9264 B( 18-C , 19-C ) :   1.4474 B( 18-C , 25-H ) :   0.9143
B( 19-C , 20-C ) :   1.4248 B( 19-C , 26-H ) :   0.9212 B( 20-C , 21-C ) :   1.4091
B( 20-C , 23-H ) :   0.9152 B( 21-C , 22-C ) :   1.4181 B( 21-C , 24-H ) :   0.9152
B( 22-C , 27-H ) :   0.9052 B( 28-C , 29-H ) :   0.8999 B( 28-C , 30-H ) :   0.9119
B( 31-O , 32-C ) :   1.2842 B( 31-O , 33-O ) :   0.1007 B( 32-C , 33-O ) :   1.8379
B( 32-C , 34-C ) :   0.9164 B( 34-C , 35-H ) :   0.9150 B( 34-C , 36-H ) :   0.9142
B( 34-C , 37-H ) :   0.9171

Dispersion correction           -0.026347137
FINAL SINGLE POINT ENERGY      -988.496544766059
Dispersion correction            ... done

DIPOLE MOMENT
-------------
                                X             Y             Z
Electronic contribution:     19.52469      10.89194     -13.51844
Nuclear contribution   :    -21.27163     -11.70861      14.85204
                        -----------------------------------------
Total Dipole Moment    :     -1.74694      -0.81667       1.33359
                        -----------------------------------------
Magnitude (a.u.)       :      2.34461
Magnitude (Debye)      :      5.95953

Rotational constants in cm-1:     0.014342     0.008628     0.006665
Rotational constants in MHz :   429.954081   258.669186   199.814271

                             ****ORCA TERMINATED NORMALLY****
TOTAL RUN TIME: 0 days 0 hours 8 minutes 30 seconds 738 msec
