                         Program Version 5.0.3 -  RELEASE  -
|  1> ! EnGrad PBEh-3c
|  2> %output
|  3> xyzfile=True
|  4> end
|  5> %scf
|  6> maxiter 250
|  7> end
|  8> %output
|  9> Print[P_Hirshfeld] = 1
| 10> end
| 11> % maxcore
| 12> 4000
| 13> *xyz 0 1
| 14> Pd   0.47757201   0.25905529  -0.30710313
| 15> O    1.93998855   1.27736558   0.44254844
| 16> C    1.62379322   2.51685173   0.24969271
| 17> O    0.55632752   2.80609455  -0.24263787
| 18> C    2.69146069   3.53396937   0.61335805
| 19> H    2.25694963   4.43009473   1.05554124
| 20> H    3.21634879   3.85599094  -0.29199615
| 21> H    3.44076453   3.13828520   1.29419105
| 22> N   -1.28473194  -0.69517502  -1.02897203
| 23> C   -1.06656569  -1.92009982  -1.83612703
| 24> H   -0.44370632  -1.69543560  -2.70250378
| 25> H   -2.03096808  -2.33085471  -2.17666491
| 26> H   -0.56319157  -2.68439623  -1.24648724
| 27> C   -1.94550795   0.30408108  -1.88822076
| 28> H   -2.11234305   1.21037852  -1.31121143
| 29> H   -2.92317081  -0.07698513  -2.21208403
| 30> H   -1.32689218   0.52785232  -2.75151169
| 31> C   -1.72075267  -0.85860806   1.51131185
| 32> C   -1.56436738  -1.96815571   2.28397512
| 33> C   -1.26946869  -1.80924385   3.61550695
| 34> C   -1.06528306  -0.60182399   4.25951285
| 35> C   -1.17068276   0.54392951   3.51624469
| 36> C   -1.52859374   0.32712438   2.18708647
| 37> H   -0.82629350  -0.47156973   5.29148241
| 38> H   -1.08026040   1.56456278   3.92992952
| 39> H   -1.71003729  -2.88801769   1.76106450
| 40> H   -1.18799809  -2.70305064   4.13929664
| 41> H   -1.79953414   1.18519150   1.48619794
| 42> C   -2.23562451  -0.99802901   0.08626007
| 43> H   -3.18179659  -0.46032048  -0.10325730
| 44> H   -2.48471769  -2.04831872   0.05682228
| 45> O    1.94679785  -0.69506259  -1.27350724
| 46> C    2.06876319  -0.43576874  -2.55948986
| 47> O    1.17726935  -0.17923210  -3.35589415
| 48> C    3.52930521  -0.47816879  -2.99876812
| 49> H    3.75775204  -1.48113476  -3.35552321
| 50> H    4.27983220  -0.24440534  -2.23437100
| 51> H    3.70069452   0.19919126  -3.84088238
| 52> *
| 53>
| 54>                          ****END OF INPUT****

CARTESIAN COORDINATES (ANGSTROEM)
---------------------------------
  Pd     0.477572    0.259055   -0.307103
  O      1.939989    1.277366    0.442548
  C      1.623793    2.516852    0.249693
  O      0.556328    2.806095   -0.242638
  C      2.691461    3.533969    0.613358
  H      2.256950    4.430095    1.055541
  H      3.216349    3.855991   -0.291996
  H      3.440765    3.138285    1.294191
  N     -1.284732   -0.695175   -1.028972
  C     -1.066566   -1.920100   -1.836127
  H     -0.443706   -1.695436   -2.702504
  H     -2.030968   -2.330855   -2.176665
  H     -0.563192   -2.684396   -1.246487
  C     -1.945508    0.304081   -1.888221
  H     -2.112343    1.210379   -1.311211
  H     -2.923171   -0.076985   -2.212084
  H     -1.326892    0.527852   -2.751512
  C     -1.720753   -0.858608    1.511312
  C     -1.564367   -1.968156    2.283975
  C     -1.269469   -1.809244    3.615507
  C     -1.065283   -0.601824    4.259513
  C     -1.170683    0.543930    3.516245
  C     -1.528594    0.327124    2.187086
  H     -0.826294   -0.471570    5.291482
  H     -1.080260    1.564563    3.929930
  H     -1.710037   -2.888018    1.761065
  H     -1.187998   -2.703051    4.139297
  H     -1.799534    1.185191    1.486198
  C     -2.235625   -0.998029    0.086260
  H     -3.181797   -0.460320   -0.103257
  H     -2.484718   -2.048319    0.056822
  O      1.946798   -0.695063   -1.273507
  C      2.068763   -0.435769   -2.559490
  O      1.177269   -0.179232   -3.355894
  C      3.529305   -0.478169   -2.998768
  H      3.757752   -1.481135   -3.355523
  H      4.279832   -0.244405   -2.234371
  H      3.700695    0.199191   -3.840882

 Total Charge           Charge          ....    0
 Multiplicity           Mult            ....    1
 Number of Electrons    NEL             ....  154
 Basis Dimension        Dim             ....  339

ORBITAL ENERGIES
----------------

  NO   OCC          E(Eh)            E(eV)
   0   2.0000     -19.488669      -530.3136
   1   2.0000     -19.476571      -529.9845
   2   2.0000     -19.460673      -529.5518
   3   2.0000     -19.441159      -529.0208
   4   2.0000     -14.722689      -400.6247
   5   2.0000     -10.550227      -287.0863
   6   2.0000     -10.539119      -286.7840
   7   2.0000     -10.509897      -285.9888
   8   2.0000     -10.481476      -285.2155
   9   2.0000     -10.477506      -285.1074
  10   2.0000     -10.476920      -285.0915
  11   2.0000     -10.472614      -284.9743
  12   2.0000     -10.471859      -284.9538
  13   2.0000     -10.467257      -284.8286
  14   2.0000     -10.463635      -284.7300
  15   2.0000     -10.460898      -284.6555
  16   2.0000     -10.428874      -283.7841
  17   2.0000     -10.413741      -283.3723
  18   2.0000      -3.662268       -99.6554
  19   2.0000      -2.315769       -63.0153
  20   2.0000      -2.301301       -62.6216
  21   2.0000      -2.273798       -61.8732
  22   2.0000      -1.183088       -32.1934
  23   2.0000      -1.143361       -31.1124
  24   2.0000      -1.077861       -29.3301
  25   2.0000      -1.072260       -29.1777
  26   2.0000      -1.053304       -28.6619
  27   2.0000      -0.991542       -26.9812
  28   2.0000      -0.897392       -24.4193
  29   2.0000      -0.856875       -23.3168
  30   2.0000      -0.819628       -22.3032
  31   2.0000      -0.812070       -22.0975
  32   2.0000      -0.810093       -22.0438
  33   2.0000      -0.791072       -21.5262
  34   2.0000      -0.724817       -19.7233
  35   2.0000      -0.709846       -19.3159
  36   2.0000      -0.684276       -18.6201
  37   2.0000      -0.616796       -16.7839
  38   2.0000      -0.605430       -16.4746
  39   2.0000      -0.587366       -15.9830
  40   2.0000      -0.577518       -15.7151
  41   2.0000      -0.571952       -15.5636
  42   2.0000      -0.563946       -15.3458
  43   2.0000      -0.541711       -14.7407
  44   2.0000      -0.533152       -14.5078
  45   2.0000      -0.527317       -14.3490
  46   2.0000      -0.518987       -14.1224
  47   2.0000      -0.513296       -13.9675
  48   2.0000      -0.506652       -13.7867
  49   2.0000      -0.503438       -13.6992
  50   2.0000      -0.493607       -13.4317
  51   2.0000      -0.492432       -13.3998
  52   2.0000      -0.485053       -13.1990
  53   2.0000      -0.481933       -13.1141
  54   2.0000      -0.464737       -12.6461
  55   2.0000      -0.448152       -12.1948
  56   2.0000      -0.445409       -12.1202
  57   2.0000      -0.445070       -12.1110
  58   2.0000      -0.439019       -11.9463
  59   2.0000      -0.436457       -11.8766
  60   2.0000      -0.427809       -11.6413
  61   2.0000      -0.424335       -11.5467
  62   2.0000      -0.414652       -11.2832
  63   2.0000      -0.409278       -11.1370
  64   2.0000      -0.396695       -10.7946
  65   2.0000      -0.380185       -10.3453
  66   2.0000      -0.366026        -9.9601
  67   2.0000      -0.355848        -9.6831
  68   2.0000      -0.344554        -9.3758
  69   2.0000      -0.340654        -9.2697
  70   2.0000      -0.327254        -8.9050
  71   2.0000      -0.319827        -8.7029
  72   2.0000      -0.312633        -8.5072
  73   2.0000      -0.306789        -8.3482
  74   2.0000      -0.295964        -8.0536
  75   2.0000      -0.291498        -7.9321
  76   2.0000      -0.279965        -7.6182
  77   0.0000      -0.074170        -2.0183
  78   0.0000      -0.008195        -0.2230
  79   0.0000      -0.001016        -0.0277
  80   0.0000       0.057429         1.5627
  81   0.0000       0.068878         1.8743

MULLIKEN ATOMIC CHARGES
-----------------------
   0 Pd:    0.583677
   1 O :   -0.512064
   2 C :    0.598389
   3 O :   -0.454438
   4 C :   -0.763470
   5 H :    0.241536
   6 H :    0.252564
   7 H :    0.250187
   8 N :   -0.486895
   9 C :   -0.545143
  10 H :    0.309430
  11 H :    0.215794
  12 H :    0.260350
  13 C :   -0.558963
  14 H :    0.267717
  15 H :    0.227391
  16 H :    0.315091
  17 C :    0.156006
  18 C :   -0.265826
  19 C :   -0.211797
  20 C :   -0.230088
  21 C :   -0.190520
  22 C :   -0.320246
  23 H :    0.233670
  24 H :    0.239161
  25 H :    0.217562
  26 H :    0.224386
  27 H :    0.231378
  28 C :   -0.335072
  29 H :    0.259255
  30 H :    0.247314
  31 O :   -0.532897
  32 C :    0.564290
  33 O :   -0.465809
  34 C :   -0.743122
  35 H :    0.235490
  36 H :    0.247735
  37 H :    0.237977
Sum of atomic charges:   -0.0000000

LOEWDIN ATOMIC CHARGES
----------------------
   0 Pd:   -0.206961
   1 O :   -0.149455
   2 C :    0.148902
   3 O :   -0.212706
   4 C :   -0.383465
   5 H :    0.146392
   6 H :    0.157920
   7 H :    0.148011
   8 N :   -0.065810
   9 C :   -0.241039
  10 H :    0.170435
  11 H :    0.117646
  12 H :    0.145860
  13 C :   -0.235539
  14 H :    0.150273
  15 H :    0.122432
  16 H :    0.172423
  17 C :   -0.066340
  18 C :   -0.115292
  19 C :   -0.122080
  20 C :   -0.116001
  21 C :   -0.114890
  22 C :   -0.101271
  23 H :    0.143988
  24 H :    0.150919
  25 H :    0.138136
  26 H :    0.140496
  27 H :    0.149966
  28 C :   -0.104762
  29 H :    0.150587
  30 H :    0.145054
  31 O :   -0.183840
  32 C :    0.146014
  33 O :   -0.275592
  34 C :   -0.385212
  35 H :    0.147400
  36 H :    0.144603
  37 H :    0.142798

  Mayer bond orders larger than 0.100000
B(  0-Pd,  1-O ) :   0.6745 B(  0-Pd,  3-O ) :   0.2253 B(  0-Pd,  8-N ) :   0.4050
B(  0-Pd, 31-O ) :   0.6695 B(  1-O ,  2-C ) :   1.2613 B(  2-C ,  3-O ) :   1.7836
B(  2-C ,  4-C ) :   0.9387 B(  4-C ,  5-H ) :   0.9152 B(  4-C ,  6-H ) :   0.9088
B(  4-C ,  7-H ) :   0.9105 B(  8-N ,  9-C ) :   0.9142 B(  8-N , 13-C ) :   0.9102
B(  8-N , 28-C ) :   0.8792 B(  9-C , 10-H ) :   0.8618 B(  9-C , 11-H ) :   0.9063
B(  9-C , 12-H ) :   0.9061 B( 13-C , 14-H ) :   0.8969 B( 13-C , 15-H ) :   0.9018
B( 13-C , 16-H ) :   0.8730 B( 17-C , 18-C ) :   1.4029 B( 17-C , 22-C ) :   1.3611
B( 17-C , 28-C ) :   0.9354 B( 18-C , 19-C ) :   1.4552 B( 18-C , 25-H ) :   0.9143
B( 19-C , 20-C ) :   1.4141 B( 19-C , 26-H ) :   0.9212 B( 20-C , 21-C ) :   1.4144
B( 20-C , 23-H ) :   0.9167 B( 21-C , 22-C ) :   1.4083 B( 21-C , 24-H ) :   0.9143
B( 22-C , 27-H ) :   0.9112 B( 28-C , 29-H ) :   0.8994 B( 28-C , 30-H ) :   0.9115
B( 31-O , 32-C ) :   1.2519 B( 32-C , 33-O ) :   1.8694 B( 32-C , 34-C ) :   0.9252
B( 34-C , 35-H ) :   0.9137 B( 34-C , 36-H ) :   0.9115 B( 34-C , 37-H ) :   0.9178

Dispersion correction           -0.026306432
FINAL SINGLE POINT ENERGY      -988.498135869710
Dispersion correction            ... done

DIPOLE MOMENT
-------------
                                X             Y             Z
Electronic contribution:     20.35484      11.05418     -14.37599
Nuclear contribution   :    -22.10084     -11.86460      15.61359
                        -----------------------------------------
Total Dipole Moment    :     -1.74600      -0.81043       1.23760
                        -----------------------------------------
Magnitude (a.u.)       :      2.28844
Magnitude (Debye)      :      5.81675

Rotational constants in cm-1:     0.014464     0.008545     0.006641
Rotational constants in MHz :   433.628453   256.172598   199.098269

                             ****ORCA TERMINATED NORMALLY****
TOTAL RUN TIME: 0 days 0 hours 10 minutes 30 seconds 536 msec
