                         Program Version 5.0.3 -  RELEASE  -
|  1> ! EnGrad PBEh-3c
|  2> %output
|  3> xyzfile=True
|  4> end
|  5> %scf
|  6> maxiter 250
|  7> end
|  8> %output
|  9> Print[P_Hirshfeld] = 1
| 10> end
| 11> % maxcore
| 12> 4000
| 13> *xyz 0 1
| 14> Pd   0.38853836   0.26924512  -0.27543090
| 15> O    1.96467115   1.35895320   0.66175803
| 16> C    1.67375502   2.60062373   0.31143264
| 17> O    0.62296655   2.85922092  -0.17990734
| 18> C    2.71852304   3.65941795   0.60300150
| 19> H    2.24307061   4.54706289   1.02707990
| 20> H    3.16638360   3.95887636  -0.34152461
| 21> H    3.50435330   3.32717094   1.26841071
| 22> N   -1.37542221  -0.72542040  -1.03339059
| 23> C   -1.22281160  -1.80709592  -2.01485272
| 24> H   -0.74191848  -1.48556578  -2.92339753
| 25> H   -2.18799892  -2.18431324  -2.38123482
| 26> H   -0.64818978  -2.61261237  -1.58845907
| 27> C   -2.11983507   0.33163173  -1.73559736
| 28> H   -2.26084569   1.19432331  -1.11198027
| 29> H   -3.10505724  -0.02016374  -2.06338496
| 30> H   -1.58372677   0.65252981  -2.62242169
| 31> C   -1.55166459  -1.06891119   1.41737411
| 32> C   -1.16354758  -2.14827209   2.25157444
| 33> C   -1.00404239  -1.98327434   3.61144124
| 34> C   -1.05355458  -0.72872834   4.16402268
| 35> C   -1.45884638   0.35331777   3.36712066
| 36> C   -1.64176971   0.16314034   2.02693373
| 37> H   -0.89085615  -0.59026170   5.22633350
| 38> H   -1.64766674   1.26571036   3.89348838
| 39> H   -1.29128274  -3.15459134   1.90803766
| 40> H   -0.89652502  -2.84949848   4.25549764
| 41> H   -2.02281334   3.46027405   1.38789865
| 42> C   -2.20390597  -1.27268454   0.09793314
| 43> H   -3.19561147  -0.80798693   0.14806470
| 44> H   -2.46243924  -2.32615862  -0.01111956
| 45> O    1.91184834  -0.44877380  -1.25513275
| 46> C    2.25495042  -0.41694045  -2.49430707
| 47> O    1.45289518  -0.40151149  -3.34220472
| 48> C    3.68887838  -0.67676121  -2.95399647
| 49> H    3.79797957  -1.73902923  -3.20050430
| 50> H    4.43028200  -0.44011991  -2.23131206
| 51> H    3.91240013  -0.11292114  -3.86574587
| 52> *
| 53>
| 54>                          ****END OF INPUT****

CARTESIAN COORDINATES (ANGSTROEM)
---------------------------------
  Pd     0.388538    0.269245   -0.275431
  O      1.964671    1.358953    0.661758
  C      1.673755    2.600624    0.311433
  O      0.622967    2.859221   -0.179907
  C      2.718523    3.659418    0.603001
  H      2.243071    4.547063    1.027080
  H      3.166384    3.958876   -0.341525
  H      3.504353    3.327171    1.268411
  N     -1.375422   -0.725420   -1.033391
  C     -1.222812   -1.807096   -2.014853
  H     -0.741918   -1.485566   -2.923398
  H     -2.187999   -2.184313   -2.381235
  H     -0.648190   -2.612612   -1.588459
  C     -2.119835    0.331632   -1.735597
  H     -2.260846    1.194323   -1.111980
  H     -3.105057   -0.020164   -2.063385
  H     -1.583727    0.652530   -2.622422
  C     -1.551665   -1.068911    1.417374
  C     -1.163548   -2.148272    2.251574
  C     -1.004042   -1.983274    3.611441
  C     -1.053555   -0.728728    4.164023
  C     -1.458846    0.353318    3.367121
  C     -1.641770    0.163140    2.026934
  H     -0.890856   -0.590262    5.226333
  H     -1.647667    1.265710    3.893488
  H     -1.291283   -3.154591    1.908038
  H     -0.896525   -2.849498    4.255498
  H     -2.022813    3.460274    1.387899
  C     -2.203906   -1.272685    0.097933
  H     -3.195611   -0.807987    0.148065
  H     -2.462439   -2.326159   -0.011120
  O      1.911848   -0.448774   -1.255133
  C      2.254950   -0.416940   -2.494307
  O      1.452895   -0.401511   -3.342205
  C      3.688878   -0.676761   -2.953996
  H      3.797980   -1.739029   -3.200504
  H      4.430282   -0.440120   -2.231312
  H      3.912400   -0.112921   -3.865746

 Total Charge           Charge          ....    0
 Multiplicity           Mult            ....    1
 Number of Electrons    NEL             ....  154
 Basis Dimension        Dim             ....  339

ORBITAL ENERGIES
----------------

  NO   OCC          E(Eh)            E(eV)
   0   2.0000     -19.466020      -529.6973
   1   2.0000     -19.463927      -529.6404
   2   2.0000     -19.442941      -529.0693
   3   2.0000     -19.416397      -528.3470
   4   2.0000     -14.730408      -400.8348
   5   2.0000     -10.530342      -286.5452
   6   2.0000     -10.523259      -286.3524
   7   2.0000     -10.518908      -286.2340
   8   2.0000     -10.516865      -286.1784
   9   2.0000     -10.507342      -285.9193
  10   2.0000     -10.488737      -285.4130
  11   2.0000     -10.485549      -285.3263
  12   2.0000     -10.484118      -285.2874
  13   2.0000     -10.482699      -285.2487
  14   2.0000     -10.478274      -285.1283
  15   2.0000     -10.475899      -285.0637
  16   2.0000     -10.415827      -283.4291
  17   2.0000     -10.409260      -283.2504
  18   2.0000      -3.663557       -99.6905
  19   2.0000      -2.312600       -62.9290
  20   2.0000      -2.305943       -62.7479
  21   2.0000      -2.273847       -61.8745
  22   2.0000      -1.163194       -31.6521
  23   2.0000      -1.161209       -31.5981
  24   2.0000      -1.084387       -29.5077
  25   2.0000      -1.051960       -28.6253
  26   2.0000      -1.042117       -28.3574
  27   2.0000      -1.000772       -27.2324
  28   2.0000      -0.907500       -24.6943
  29   2.0000      -0.870438       -23.6858
  30   2.0000      -0.822825       -22.3902
  31   2.0000      -0.815831       -22.1999
  32   2.0000      -0.799167       -21.7465
  33   2.0000      -0.788746       -21.4629
  34   2.0000      -0.731368       -19.9015
  35   2.0000      -0.717139       -19.5143
  36   2.0000      -0.686762       -18.6877
  37   2.0000      -0.614117       -16.7110
  38   2.0000      -0.592836       -16.1319
  39   2.0000      -0.583512       -15.8782
  40   2.0000      -0.581613       -15.8265
  41   2.0000      -0.573807       -15.6141
  42   2.0000      -0.567194       -15.4341
  43   2.0000      -0.547260       -14.8917
  44   2.0000      -0.535595       -14.5743
  45   2.0000      -0.519564       -14.1381
  46   2.0000      -0.511648       -13.9227
  47   2.0000      -0.506083       -13.7712
  48   2.0000      -0.497169       -13.5287
  49   2.0000      -0.494476       -13.4554
  50   2.0000      -0.490510       -13.3475
  51   2.0000      -0.487752       -13.2724
  52   2.0000      -0.482672       -13.1342
  53   2.0000      -0.480214       -13.0673
  54   2.0000      -0.463903       -12.6235
  55   2.0000      -0.451195       -12.2776
  56   2.0000      -0.444932       -12.1072
  57   2.0000      -0.440681       -11.9915
  58   2.0000      -0.432898       -11.7798
  59   2.0000      -0.431411       -11.7393
  60   2.0000      -0.429037       -11.6747
  61   2.0000      -0.422700       -11.5022
  62   2.0000      -0.409561       -11.1447
  63   2.0000      -0.403988       -10.9931
  64   2.0000      -0.378072       -10.2879
  65   2.0000      -0.366834        -9.9821
  66   2.0000      -0.345043        -9.3891
  67   2.0000      -0.340239        -9.2584
  68   2.0000      -0.334933        -9.1140
  69   2.0000      -0.329388        -8.9631
  70   2.0000      -0.321593        -8.7510
  71   2.0000      -0.308731        -8.4010
  72   2.0000      -0.301556        -8.2058
  73   2.0000      -0.289971        -7.8905
  74   2.0000      -0.272859        -7.4249
  75   2.0000      -0.269266        -7.3271
  76   2.0000      -0.260595        -7.0911
  77   0.0000      -0.169181        -4.6036
  78   0.0000      -0.084718        -2.3053
  79   0.0000      -0.028740        -0.7820
  80   0.0000      -0.010014        -0.2725
  81   0.0000       0.063823         1.7367

MULLIKEN ATOMIC CHARGES
-----------------------
   0 Pd:    0.481627
   1 O :   -0.504824
   2 C :    0.585628
   3 O :   -0.432469
   4 C :   -0.754359
   5 H :    0.236418
   6 H :    0.245607
   7 H :    0.245022
   8 N :   -0.479252
   9 C :   -0.548412
  10 H :    0.315917
  11 H :    0.215810
  12 H :    0.260944
  13 C :   -0.562956
  14 H :    0.291241
  15 H :    0.230742
  16 H :    0.301131
  17 C :   -0.058623
  18 C :   -0.203039
  19 C :   -0.229435
  20 C :   -0.196843
  21 C :   -0.277673
  22 C :    0.060904
  23 H :    0.246522
  24 H :    0.265374
  25 H :    0.225477
  26 H :    0.244671
  27 H :    0.040594
  28 C :   -0.314557
  29 H :    0.270570
  30 H :    0.260467
  31 O :   -0.533113
  32 C :    0.528585
  33 O :   -0.427724
  34 C :   -0.743485
  35 H :    0.234795
  36 H :    0.238868
  37 H :    0.239849
Sum of atomic charges:    0.0000000

LOEWDIN ATOMIC CHARGES
----------------------
   0 Pd:   -0.249600
   1 O :   -0.202170
   2 C :    0.132532
   3 O :   -0.196771
   4 C :   -0.384414
   5 H :    0.145669
   6 H :    0.153946
   7 H :    0.143540
   8 N :   -0.055914
   9 C :   -0.244246
  10 H :    0.166828
  11 H :    0.117548
  12 H :    0.145608
  13 C :   -0.239475
  14 H :    0.157768
  15 H :    0.123656
  16 H :    0.165731
  17 C :   -0.059067
  18 C :   -0.099448
  19 C :   -0.123022
  20 C :   -0.108217
  21 C :   -0.123007
  22 C :    0.035687
  23 H :    0.148779
  24 H :    0.159759
  25 H :    0.147468
  26 H :    0.148244
  27 H :    0.042585
  28 C :   -0.098611
  29 H :    0.156498
  30 H :    0.148016
  31 O :   -0.154272
  32 C :    0.089869
  33 O :   -0.237034
  34 C :   -0.383334
  35 H :    0.148401
  36 H :    0.134028
  37 H :    0.146440

  Mayer bond orders larger than 0.100000
B(  0-Pd,  1-O ) :   0.6767 B(  0-Pd,  3-O ) :   0.1882 B(  0-Pd,  8-N ) :   0.4027
B(  0-Pd, 22-C ) :   0.1359 B(  0-Pd, 27-H ) :   0.1103 B(  0-Pd, 31-O ) :   0.6775
B(  1-O ,  2-C ) :   1.2584 B(  2-C ,  3-O ) :   1.8207 B(  2-C ,  4-C ) :   0.9329
B(  4-C ,  5-H ) :   0.9176 B(  4-C ,  6-H ) :   0.9126 B(  4-C ,  7-H ) :   0.9133
B(  8-N ,  9-C ) :   0.9206 B(  8-N , 13-C ) :   0.9134 B(  8-N , 28-C ) :   0.8833
B(  9-C , 10-H ) :   0.8686 B(  9-C , 11-H ) :   0.9032 B(  9-C , 12-H ) :   0.9105
B( 13-C , 14-H ) :   0.8865 B( 13-C , 15-H ) :   0.9025 B( 13-C , 16-H ) :   0.8859
B( 17-C , 18-C ) :   1.3739 B( 17-C , 22-C ) :   1.4074 B( 17-C , 28-C ) :   0.9433
B( 18-C , 19-C ) :   1.4520 B( 18-C , 25-H ) :   0.9091 B( 19-C , 20-C ) :   1.4260
B( 19-C , 26-H ) :   0.9068 B( 20-C , 21-C ) :   1.3899 B( 20-C , 23-H ) :   0.9035
B( 21-C , 22-C ) :   1.4647 B( 21-C , 24-H ) :   0.9003 B( 22-C , 27-H ) :   0.6820
B( 28-C , 29-H ) :   0.8966 B( 28-C , 30-H ) :   0.9107 B( 31-O , 32-C ) :   1.2587
B( 32-C , 33-O ) :   1.9195 B( 32-C , 34-C ) :   0.9279 B( 34-C , 35-H ) :   0.9185
B( 34-C , 36-H ) :   0.9088 B( 34-C , 37-H ) :   0.9208

Dispersion correction           -0.025556665
FINAL SINGLE POINT ENERGY      -988.203569460174
Dispersion correction            ... done

DIPOLE MOMENT
-------------
                                X             Y             Z
Electronic contribution:     14.54829      11.34208     -12.46950
Nuclear contribution   :    -16.91780     -12.83830      13.99397
                        -----------------------------------------
Total Dipole Moment    :     -2.36951      -1.49623       1.52448
                        -----------------------------------------
Magnitude (a.u.)       :      3.19019
Magnitude (Debye)      :      8.10882

Rotational constants in cm-1:     0.013469     0.008423     0.006595
Rotational constants in MHz :   403.777443   252.520119   197.704896

                             ****ORCA TERMINATED NORMALLY****
TOTAL RUN TIME: 0 days 0 hours 20 minutes 7 seconds 325 msec
