                         Program Version 5.0.3 -  RELEASE  -
|  1> ! EnGrad PBEh-3c
|  2> %output
|  3> xyzfile=True
|  4> end
|  5> %scf
|  6> maxiter 250
|  7> end
|  8> %output
|  9> Print[P_Hirshfeld] = 1
| 10> end
| 11> % maxcore
| 12> 4000
| 13> *xyz 0 1
| 14> Pd   0.49577402   0.25379688  -0.31856468
| 15> O    1.97349919   1.27535287   0.42592038
| 16> C    1.66605095   2.50171395   0.23673717
| 17> O    0.56120055   2.79163982  -0.27372944
| 18> C    2.69771397   3.53038740   0.60574540
| 19> H    2.24935017   4.41039985   1.05242660
| 20> H    3.22916329   3.85243663  -0.28690685
| 21> H    3.43630262   3.12784360   1.28970849
| 22> N   -1.26575872  -0.68735268  -1.02213495
| 23> C   -1.05287246  -1.92623701  -1.82105614
| 24> H   -0.43758813  -1.70010662  -2.69104304
| 25> H   -2.01582306  -2.33965124  -2.17407869
| 26> H   -0.54881127  -2.69178222  -1.22776765
| 27> C   -1.93388115   0.30454675  -1.89817938
| 28> H   -2.10926080   1.21550943  -1.32614287
| 29> H   -2.91343118  -0.07397605  -2.22773709
| 30> H   -1.31735963   0.52095432  -2.76763216
| 31> C   -1.72787614  -0.84564341   1.53862018
| 32> C   -1.57146436  -2.00295431   2.29447171
| 33> C   -1.27436441  -1.82843037   3.63860202
| 34> C   -1.07026090  -0.60954389   4.30155279
| 35> C   -1.19042812   0.54415312   3.51407703
| 36> C   -1.57979192   0.39015471   2.16976161
| 37> H   -0.80795694  -0.49618254   5.36367193
| 38> H   -1.09848233   1.56663452   3.92999420
| 39> H   -1.71463800  -2.94635673   1.75437755
| 40> H   -1.17928482  -2.73387438   4.16738214
| 41> H   -1.88204496   1.30339059   1.46059566
| 42> C   -2.22355272  -0.99031452   0.10691055
| 43> H   -3.16654930  -0.45320225  -0.11715483
| 44> H   -2.47910680  -2.03985089   0.04246437
| 45> O    1.93573637  -0.75759760  -1.31485012
| 46> C    2.08051079  -0.41812361  -2.56911411
| 47> O    1.17522562  -0.04846119  -3.34102305
| 48> C    3.52361150  -0.48184674  -3.02024857
| 49> H    3.73772188  -1.48456803  -3.34446655
| 50> H    4.24675942  -0.27375091  -2.24573655
| 51> H    3.71190419   0.19252078  -3.83745569
| 52> *
| 53>
| 54>                          ****END OF INPUT****

CARTESIAN COORDINATES (ANGSTROEM)
---------------------------------
  Pd     0.495774    0.253797   -0.318565
  O      1.973499    1.275353    0.425920
  C      1.666051    2.501714    0.236737
  O      0.561201    2.791640   -0.273729
  C      2.697714    3.530387    0.605745
  H      2.249350    4.410400    1.052427
  H      3.229163    3.852437   -0.286907
  H      3.436303    3.127844    1.289708
  N     -1.265759   -0.687353   -1.022135
  C     -1.052872   -1.926237   -1.821056
  H     -0.437588   -1.700107   -2.691043
  H     -2.015823   -2.339651   -2.174079
  H     -0.548811   -2.691782   -1.227768
  C     -1.933881    0.304547   -1.898179
  H     -2.109261    1.215509   -1.326143
  H     -2.913431   -0.073976   -2.227737
  H     -1.317360    0.520954   -2.767632
  C     -1.727876   -0.845643    1.538620
  C     -1.571464   -2.002954    2.294472
  C     -1.274364   -1.828430    3.638602
  C     -1.070261   -0.609544    4.301553
  C     -1.190428    0.544153    3.514077
  C     -1.579792    0.390155    2.169762
  H     -0.807957   -0.496183    5.363672
  H     -1.098482    1.566635    3.929994
  H     -1.714638   -2.946357    1.754378
  H     -1.179285   -2.733874    4.167382
  H     -1.882045    1.303391    1.460596
  C     -2.223553   -0.990315    0.106911
  H     -3.166549   -0.453202   -0.117155
  H     -2.479107   -2.039851    0.042464
  O      1.935736   -0.757598   -1.314850
  C      2.080511   -0.418124   -2.569114
  O      1.175226   -0.048461   -3.341023
  C      3.523611   -0.481847   -3.020249
  H      3.737722   -1.484568   -3.344467
  H      4.246759   -0.273751   -2.245737
  H      3.711904    0.192521   -3.837456

 Total Charge           Charge          ....    0
 Multiplicity           Mult            ....    1
 Number of Electrons    NEL             ....  154
 Basis Dimension        Dim             ....  339

ORBITAL ENERGIES
----------------

  NO   OCC          E(Eh)            E(eV)
   0   2.0000     -19.493945      -530.4572
   1   2.0000     -19.475275      -529.9492
   2   2.0000     -19.457188      -529.4570
   3   2.0000     -19.434907      -528.8507
   4   2.0000     -14.724496      -400.6739
   5   2.0000     -10.552677      -287.1529
   6   2.0000     -10.536785      -286.7205
   7   2.0000     -10.508914      -285.9621
   8   2.0000     -10.484792      -285.3057
   9   2.0000     -10.483842      -285.2798
  10   2.0000     -10.480960      -285.2014
  11   2.0000     -10.478871      -285.1446
  12   2.0000     -10.478427      -285.1325
  13   2.0000     -10.478303      -285.1291
  14   2.0000     -10.474117      -285.0152
  15   2.0000     -10.469172      -284.8806
  16   2.0000     -10.428906      -283.7850
  17   2.0000     -10.408928      -283.2413
  18   2.0000      -3.663183       -99.6803
  19   2.0000      -2.317200       -63.0542
  20   2.0000      -2.301327       -62.6223
  21   2.0000      -2.274579       -61.8944
  22   2.0000      -1.176986       -32.0274
  23   2.0000      -1.136403       -30.9231
  24   2.0000      -1.071979       -29.1700
  25   2.0000      -1.063410       -28.9369
  26   2.0000      -1.044474       -28.4216
  27   2.0000      -0.980399       -26.6780
  28   2.0000      -0.888960       -24.1898
  29   2.0000      -0.854359       -23.2483
  30   2.0000      -0.818401       -22.2698
  31   2.0000      -0.816702       -22.2236
  32   2.0000      -0.804099       -21.8806
  33   2.0000      -0.796928       -21.6855
  34   2.0000      -0.721922       -19.6445
  35   2.0000      -0.705187       -19.1891
  36   2.0000      -0.680576       -18.5194
  37   2.0000      -0.612518       -16.6675
  38   2.0000      -0.603580       -16.4242
  39   2.0000      -0.586822       -15.9682
  40   2.0000      -0.572594       -15.5811
  41   2.0000      -0.567216       -15.4347
  42   2.0000      -0.560373       -15.2485
  43   2.0000      -0.537843       -14.6355
  44   2.0000      -0.530490       -14.4354
  45   2.0000      -0.524691       -14.2776
  46   2.0000      -0.517904       -14.0929
  47   2.0000      -0.512757       -13.9528
  48   2.0000      -0.504133       -13.7182
  49   2.0000      -0.500868       -13.6293
  50   2.0000      -0.491351       -13.3703
  51   2.0000      -0.490533       -13.3481
  52   2.0000      -0.485389       -13.2081
  53   2.0000      -0.480047       -13.0628
  54   2.0000      -0.464471       -12.6389
  55   2.0000      -0.446498       -12.1498
  56   2.0000      -0.445004       -12.1092
  57   2.0000      -0.442114       -12.0305
  58   2.0000      -0.438328       -11.9275
  59   2.0000      -0.435852       -11.8601
  60   2.0000      -0.428495       -11.6599
  61   2.0000      -0.422498       -11.4968
  62   2.0000      -0.413954       -11.2643
  63   2.0000      -0.408188       -11.1074
  64   2.0000      -0.401047       -10.9130
  65   2.0000      -0.377416       -10.2700
  66   2.0000      -0.362926        -9.8757
  67   2.0000      -0.355739        -9.6802
  68   2.0000      -0.343549        -9.3484
  69   2.0000      -0.340627        -9.2689
  70   2.0000      -0.323526        -8.8036
  71   2.0000      -0.316875        -8.6226
  72   2.0000      -0.313075        -8.5192
  73   2.0000      -0.304109        -8.2752
  74   2.0000      -0.297151        -8.0859
  75   2.0000      -0.286782        -7.8037
  76   2.0000      -0.277681        -7.5561
  77   0.0000      -0.076556        -2.0832
  78   0.0000      -0.014496        -0.3945
  79   0.0000      -0.006112        -0.1663
  80   0.0000       0.055014         1.4970
  81   0.0000       0.068353         1.8600

MULLIKEN ATOMIC CHARGES
-----------------------
   0 Pd:    0.591756
   1 O :   -0.501555
   2 C :    0.608328
   3 O :   -0.489095
   4 C :   -0.762368
   5 H :    0.246711
   6 H :    0.256860
   7 H :    0.249639
   8 N :   -0.490315
   9 C :   -0.541994
  10 H :    0.306856
  11 H :    0.216417
  12 H :    0.260677
  13 C :   -0.559459
  14 H :    0.266672
  15 H :    0.226663
  16 H :    0.319343
  17 C :    0.124387
  18 C :   -0.247643
  19 C :   -0.233152
  20 C :   -0.210664
  21 C :   -0.217598
  22 C :   -0.290243
  23 H :    0.236934
  24 H :    0.237819
  25 H :    0.225496
  26 H :    0.226331
  27 H :    0.240704
  28 C :   -0.332804
  29 H :    0.257086
  30 H :    0.245849
  31 O :   -0.530929
  32 C :    0.562389
  33 O :   -0.487323
  34 C :   -0.744209
  35 H :    0.238177
  36 H :    0.250568
  37 H :    0.243692
Sum of atomic charges:   -0.0000000

LOEWDIN ATOMIC CHARGES
----------------------
   0 Pd:   -0.201640
   1 O :   -0.138385
   2 C :    0.163870
   3 O :   -0.251048
   4 C :   -0.380533
   5 H :    0.149428
   6 H :    0.160253
   7 H :    0.148785
   8 N :   -0.063351
   9 C :   -0.239360
  10 H :    0.169494
  11 H :    0.118194
  12 H :    0.146509
  13 C :   -0.236362
  14 H :    0.150261
  15 H :    0.122161
  16 H :    0.174668
  17 C :   -0.058145
  18 C :   -0.121402
  19 C :   -0.118308
  20 C :   -0.121621
  21 C :   -0.111547
  22 C :   -0.108964
  23 H :    0.148748
  24 H :    0.148087
  25 H :    0.143690
  26 H :    0.139508
  27 H :    0.158732
  28 C :   -0.104773
  29 H :    0.149398
  30 H :    0.142776
  31 O :   -0.185792
  32 C :    0.151162
  33 O :   -0.299647
  34 C :   -0.383927
  35 H :    0.148798
  36 H :    0.146037
  37 H :    0.144244

  Mayer bond orders larger than 0.100000
B(  0-Pd,  1-O ) :   0.6502 B(  0-Pd,  3-O ) :   0.2525 B(  0-Pd,  8-N ) :   0.4185
B(  0-Pd, 31-O ) :   0.6503 B(  1-O ,  2-C ) :   1.3019 B(  1-O ,  3-O ) :   0.1002
B(  2-C ,  3-O ) :   1.7208 B(  2-C ,  4-C ) :   0.9459 B(  4-C ,  5-H ) :   0.9139
B(  4-C ,  6-H ) :   0.9065 B(  4-C ,  7-H ) :   0.9099 B(  8-N ,  9-C ) :   0.9129
B(  8-N , 13-C ) :   0.9076 B(  8-N , 28-C ) :   0.8694 B(  9-C , 10-H ) :   0.8658
B(  9-C , 11-H ) :   0.9055 B(  9-C , 12-H ) :   0.9058 B( 13-C , 14-H ) :   0.8980
B( 13-C , 15-H ) :   0.9014 B( 13-C , 16-H ) :   0.8690 B( 17-C , 18-C ) :   1.3909
B( 17-C , 22-C ) :   1.3577 B( 17-C , 28-C ) :   0.9448 B( 18-C , 19-C ) :   1.4447
B( 18-C , 25-H ) :   0.9141 B( 19-C , 20-C ) :   1.4066 B( 19-C , 26-H ) :   0.9190
B( 20-C , 21-C ) :   1.4138 B( 20-C , 23-H ) :   0.9155 B( 21-C , 22-C ) :   1.4122
B( 21-C , 24-H ) :   0.9133 B( 22-C , 27-H ) :   0.9091 B( 28-C , 29-H ) :   0.8989
B( 28-C , 30-H ) :   0.9123 B( 31-O , 32-C ) :   1.2725 B( 32-C , 33-O ) :   1.8387
B( 32-C , 34-C ) :   0.9347 B( 34-C , 35-H ) :   0.9126 B( 34-C , 36-H ) :   0.9100
B( 34-C , 37-H ) :   0.9170

Dispersion correction           -0.026224765
FINAL SINGLE POINT ENERGY      -988.502118976084
Dispersion correction            ... done

DIPOLE MOMENT
-------------
                                X             Y             Z
Electronic contribution:     21.33845      10.61597     -14.82257
Nuclear contribution   :    -23.00626     -11.52023      16.18376
                        -----------------------------------------
Total Dipole Moment    :     -1.66781      -0.90426       1.36119
                        -----------------------------------------
Magnitude (a.u.)       :      2.33498
Magnitude (Debye)      :      5.93504

Rotational constants in cm-1:     0.014510     0.008442     0.006608
Rotational constants in MHz :   434.998064   253.089590   198.094372

                             ****ORCA TERMINATED NORMALLY****
TOTAL RUN TIME: 0 days 0 hours 11 minutes 28 seconds 452 msec
