                         Program Version 5.0.3 -  RELEASE  -
|  1> ! EnGrad PBEh-3c
|  2> %output
|  3> xyzfile=True
|  4> end
|  5> %scf
|  6> maxiter 250
|  7> end
|  8> %output
|  9> Print[P_Hirshfeld] = 1
| 10> end
| 11> % maxcore
| 12> 4000
| 13> *xyz 0 1
| 14> Pd   0.41085037   0.29598112  -0.22952961
| 15> O    1.95201124   1.30976144   0.63957773
| 16> C    1.63810806   2.61378592   0.32661766
| 17> O    0.62497961   2.87180813  -0.19091978
| 18> C    2.73236222   3.65711552   0.60357036
| 19> H    2.24883379   4.54186170   1.02826554
| 20> H    3.17679267   3.95901002  -0.33843575
| 21> H    3.51357988   3.32035623   1.27282061
| 22> N   -1.40031794  -0.74967864  -1.07364591
| 23> C   -1.21103557  -1.84362052  -2.01545385
| 24> H   -0.70995102  -1.50026923  -2.89514043
| 25> H   -2.18829980  -2.19856583  -2.34228960
| 26> H   -0.65179767  -2.63228640  -1.55157215
| 27> C   -2.11911798   0.34104256  -1.75035281
| 28> H   -2.24947695   1.19959222  -1.12477457
| 29> H   -3.09115369  -0.03696771  -2.07034232
| 30> H   -1.55778487   0.62146474  -2.63573437
| 31> C   -1.57113897  -1.04411885   1.42932213
| 32> C   -1.24067431  -2.16288344   2.27057389
| 33> C   -1.00831049  -1.98966103   3.61026663
| 34> C   -1.06955974  -0.73833380   4.16453483
| 35> C   -1.42419469   0.37254962   3.36918115
| 36> C   -1.60263817   0.15978840   2.05801060
| 37> H   -0.88369779  -0.59081728   5.22684644
| 38> H   -1.59431824   1.28204471   3.87892040
| 39> H   -1.35417213  -3.15638775   1.90681249
| 40> H   -0.94250082  -2.84885617   4.26290780
| 41> H   -1.98949032   3.43649139   1.37168641
| 42> C   -2.21409075  -1.26655203   0.12021770
| 43> H   -3.18082602  -0.76345978   0.14072532
| 44> H   -2.47449473  -2.30801579  -0.02542626
| 45> O    1.96202664  -0.40084889  -1.25139079
| 46> C    2.23853684  -0.48462243  -2.50262573
| 47> O    1.41809002  -0.48679531  -3.37518514
| 48> C    3.70653232  -0.63369281  -2.93968671
| 49> H    3.81709173  -1.68618340  -3.24118996
| 50> H    4.43407980  -0.39266854  -2.24516510
| 51> H    3.85896494  -0.06767247  -3.87725981
| 52> *
| 53>
| 54>                          ****END OF INPUT****

CARTESIAN COORDINATES (ANGSTROEM)
---------------------------------
  Pd     0.410850    0.295981   -0.229530
  O      1.952011    1.309761    0.639578
  C      1.638108    2.613786    0.326618
  O      0.624980    2.871808   -0.190920
  C      2.732362    3.657116    0.603570
  H      2.248834    4.541862    1.028266
  H      3.176793    3.959010   -0.338436
  H      3.513580    3.320356    1.272821
  N     -1.400318   -0.749679   -1.073646
  C     -1.211036   -1.843621   -2.015454
  H     -0.709951   -1.500269   -2.895140
  H     -2.188300   -2.198566   -2.342290
  H     -0.651798   -2.632286   -1.551572
  C     -2.119118    0.341043   -1.750353
  H     -2.249477    1.199592   -1.124775
  H     -3.091154   -0.036968   -2.070342
  H     -1.557785    0.621465   -2.635734
  C     -1.571139   -1.044119    1.429322
  C     -1.240674   -2.162883    2.270574
  C     -1.008310   -1.989661    3.610267
  C     -1.069560   -0.738334    4.164535
  C     -1.424195    0.372550    3.369181
  C     -1.602638    0.159788    2.058011
  H     -0.883698   -0.590817    5.226846
  H     -1.594318    1.282045    3.878920
  H     -1.354172   -3.156388    1.906812
  H     -0.942501   -2.848856    4.262908
  H     -1.989490    3.436491    1.371686
  C     -2.214091   -1.266552    0.120218
  H     -3.180826   -0.763460    0.140725
  H     -2.474495   -2.308016   -0.025426
  O      1.962027   -0.400849   -1.251391
  C      2.238537   -0.484622   -2.502626
  O      1.418090   -0.486795   -3.375185
  C      3.706532   -0.633693   -2.939687
  H      3.817092   -1.686183   -3.241190
  H      4.434080   -0.392669   -2.245165
  H      3.858965   -0.067672   -3.877260

 Total Charge           Charge          ....    0
 Multiplicity           Mult            ....    1
 Number of Electrons    NEL             ....  154
 Basis Dimension        Dim             ....  339

ORBITAL ENERGIES
----------------

  NO   OCC          E(Eh)            E(eV)
   0   2.0000     -19.475257      -529.9487
   1   2.0000     -19.463251      -529.6220
   2   2.0000     -19.461403      -529.5717
   3   2.0000     -19.415248      -528.3158
   4   2.0000     -14.718061      -400.4988
   5   2.0000     -10.543654      -286.9074
   6   2.0000     -10.525261      -286.4069
   7   2.0000     -10.520258      -286.2708
   8   2.0000     -10.514325      -286.1093
   9   2.0000     -10.509711      -285.9838
  10   2.0000     -10.492675      -285.5202
  11   2.0000     -10.488827      -285.4155
  12   2.0000     -10.486564      -285.3539
  13   2.0000     -10.479352      -285.1577
  14   2.0000     -10.478351      -285.1304
  15   2.0000     -10.468502      -284.8624
  16   2.0000     -10.424087      -283.6538
  17   2.0000     -10.405039      -283.1355
  18   2.0000      -3.660019       -99.5942
  19   2.0000      -2.310146       -62.8623
  20   2.0000      -2.300686       -62.6048
  21   2.0000      -2.271486       -61.8103
  22   2.0000      -1.179071       -32.0841
  23   2.0000      -1.145056       -31.1586
  24   2.0000      -1.072065       -29.1724
  25   2.0000      -1.047050       -28.4917
  26   2.0000      -1.040737       -28.3199
  27   2.0000      -1.006864       -27.3982
  28   2.0000      -0.909464       -24.7478
  29   2.0000      -0.878840       -23.9144
  30   2.0000      -0.821314       -22.3491
  31   2.0000      -0.815485       -22.1905
  32   2.0000      -0.803138       -21.8545
  33   2.0000      -0.784973       -21.3602
  34   2.0000      -0.727651       -19.8004
  35   2.0000      -0.719708       -19.5842
  36   2.0000      -0.686114       -18.6701
  37   2.0000      -0.617023       -16.7900
  38   2.0000      -0.591915       -16.1068
  39   2.0000      -0.582130       -15.8406
  40   2.0000      -0.578379       -15.7385
  41   2.0000      -0.575697       -15.6655
  42   2.0000      -0.566954       -15.4276
  43   2.0000      -0.547245       -14.8913
  44   2.0000      -0.537036       -14.6135
  45   2.0000      -0.521601       -14.1935
  46   2.0000      -0.511855       -13.9283
  47   2.0000      -0.508617       -13.8402
  48   2.0000      -0.503932       -13.7127
  49   2.0000      -0.499312       -13.5870
  50   2.0000      -0.492041       -13.3891
  51   2.0000      -0.483219       -13.1490
  52   2.0000      -0.481111       -13.0917
  53   2.0000      -0.476863       -12.9761
  54   2.0000      -0.467735       -12.7277
  55   2.0000      -0.454604       -12.3704
  56   2.0000      -0.450134       -12.2488
  57   2.0000      -0.440778       -11.9942
  58   2.0000      -0.439785       -11.9672
  59   2.0000      -0.439173       -11.9505
  60   2.0000      -0.431957       -11.7541
  61   2.0000      -0.425979       -11.5915
  62   2.0000      -0.405394       -11.0313
  63   2.0000      -0.394780       -10.7425
  64   2.0000      -0.377251       -10.2655
  65   2.0000      -0.359913        -9.7937
  66   2.0000      -0.342618        -9.3231
  67   2.0000      -0.342481        -9.3194
  68   2.0000      -0.335414        -9.1271
  69   2.0000      -0.333278        -9.0689
  70   2.0000      -0.322803        -8.7839
  71   2.0000      -0.312135        -8.4936
  72   2.0000      -0.306537        -8.3413
  73   2.0000      -0.288398        -7.8477
  74   2.0000      -0.275237        -7.4896
  75   2.0000      -0.270830        -7.3697
  76   2.0000      -0.258710        -7.0399
  77   0.0000      -0.165536        -4.5045
  78   0.0000      -0.080786        -2.1983
  79   0.0000      -0.033491        -0.9113
  80   0.0000      -0.009284        -0.2526
  81   0.0000       0.061730         1.6798

MULLIKEN ATOMIC CHARGES
-----------------------
   0 Pd:    0.455832
   1 O :   -0.521956
   2 C :    0.583613
   3 O :   -0.388715
   4 C :   -0.751983
   5 H :    0.235286
   6 H :    0.252741
   7 H :    0.248519
   8 N :   -0.465460
   9 C :   -0.538705
  10 H :    0.316517
  11 H :    0.206836
  12 H :    0.255251
  13 C :   -0.553108
  14 H :    0.287336
  15 H :    0.224016
  16 H :    0.295541
  17 C :   -0.029871
  18 C :   -0.230271
  19 C :   -0.201720
  20 C :   -0.224373
  21 C :   -0.261618
  22 C :    0.061743
  23 H :    0.248713
  24 H :    0.271280
  25 H :    0.236439
  26 H :    0.241908
  27 H :    0.019135
  28 C :   -0.323287
  29 H :    0.266232
  30 H :    0.258925
  31 O :   -0.522534
  32 C :    0.537264
  33 O :   -0.462772
  34 C :   -0.740350
  35 H :    0.228138
  36 H :    0.248708
  37 H :    0.236751
Sum of atomic charges:   -0.0000000

LOEWDIN ATOMIC CHARGES
----------------------
   0 Pd:   -0.263405
   1 O :   -0.209930
   2 C :    0.157666
   3 O :   -0.152998
   4 C :   -0.384986
   5 H :    0.145953
   6 H :    0.156211
   7 H :    0.145445
   8 N :   -0.076601
   9 C :   -0.244912
  10 H :    0.167731
  11 H :    0.112947
  12 H :    0.144003
  13 C :   -0.239353
  14 H :    0.157202
  15 H :    0.119927
  16 H :    0.164438
  17 C :   -0.057720
  18 C :   -0.093431
  19 C :   -0.126232
  20 C :   -0.102830
  21 C :   -0.123744
  22 C :    0.049941
  23 H :    0.149486
  24 H :    0.163018
  25 H :    0.148824
  26 H :    0.149867
  27 H :    0.020880
  28 C :   -0.096650
  29 H :    0.154943
  30 H :    0.146693
  31 O :   -0.156191
  32 C :    0.107899
  33 O :   -0.276676
  34 C :   -0.386051
  35 H :    0.146667
  36 H :    0.135221
  37 H :    0.146747

  Mayer bond orders larger than 0.100000
B(  0-Pd,  1-O ) :   0.7439 B(  0-Pd,  3-O ) :   0.1698 B(  0-Pd,  8-N ) :   0.3817
B(  0-Pd, 22-C ) :   0.1376 B(  0-Pd, 27-H ) :   0.1246 B(  0-Pd, 31-O ) :   0.6534
B(  1-O ,  2-C ) :   1.1632 B(  2-C ,  3-O ) :   1.8840 B(  2-C ,  4-C ) :   0.9327
B(  4-C ,  5-H ) :   0.9164 B(  4-C ,  6-H ) :   0.9101 B(  4-C ,  7-H ) :   0.9119
B(  8-N ,  9-C ) :   0.9267 B(  8-N , 13-C ) :   0.9186 B(  8-N , 28-C ) :   0.8833
B(  9-C , 10-H ) :   0.8636 B(  9-C , 11-H ) :   0.9059 B(  9-C , 12-H ) :   0.9129
B( 13-C , 14-H ) :   0.8882 B( 13-C , 15-H ) :   0.9052 B( 13-C , 16-H ) :   0.8884
B( 17-C , 18-C ) :   1.3653 B( 17-C , 22-C ) :   1.4183 B( 17-C , 28-C ) :   0.9423
B( 18-C , 19-C ) :   1.4614 B( 18-C , 21-C ) :   0.1020 B( 18-C , 25-H ) :   0.9044
B( 19-C , 20-C ) :   1.4227 B( 19-C , 26-H ) :   0.9087 B( 20-C , 21-C ) :   1.3864
B( 20-C , 23-H ) :   0.9019 B( 21-C , 22-C ) :   1.4715 B( 21-C , 24-H ) :   0.8973
B( 22-C , 27-H ) :   0.6654 B( 28-C , 29-H ) :   0.8981 B( 28-C , 30-H ) :   0.9117
B( 31-O , 32-C ) :   1.2946 B( 32-C , 33-O ) :   1.8830 B( 32-C , 34-C ) :   0.9224
B( 34-C , 35-H ) :   0.9204 B( 34-C , 36-H ) :   0.9047 B( 34-C , 37-H ) :   0.9224

Dispersion correction           -0.025511932
FINAL SINGLE POINT ENERGY      -988.211358309852
Dispersion correction            ... done

DIPOLE MOMENT
-------------
                                X             Y             Z
Electronic contribution:     15.88754      13.06405      -9.66722
Nuclear contribution   :    -18.14948     -14.37409      11.50673
                        -----------------------------------------
Total Dipole Moment    :     -2.26194      -1.31004       1.83951
                        -----------------------------------------
Magnitude (a.u.)       :      3.19631
Magnitude (Debye)      :      8.12437

Rotational constants in cm-1:     0.013391     0.008404     0.006559
Rotational constants in MHz :   401.447664   251.958726   196.620882

                             ****ORCA TERMINATED NORMALLY****
TOTAL RUN TIME: 0 days 0 hours 10 minutes 51 seconds 761 msec
