                         Program Version 5.0.3 -  RELEASE  -
|  1> ! EnGrad PBEh-3c
|  2> %output
|  3> xyzfile=True
|  4> end
|  5> %scf
|  6> maxiter 250
|  7> end
|  8> %output
|  9> Print[P_Hirshfeld] = 1
| 10> end
| 11> % maxcore
| 12> 4000
| 13> *xyz 0 1
| 14> Pd   0.45237401   0.33837471  -0.15379615
| 15> O    1.91356255   1.23734457   0.60471084
| 16> C    1.60283525   2.62661621   0.35097067
| 17> O    0.60991768   2.90030173  -0.21738992
| 18> C    2.74471555   3.64315049   0.61362166
| 19> H    2.26118561   4.53105427   1.03017647
| 20> H    3.19560204   3.95684083  -0.33577691
| 21> H    3.53085648   3.30695927   1.28096298
| 22> N   -1.43372214  -0.77786226  -1.10599184
| 23> C   -1.19908824  -1.90337275  -2.01197001
| 24> H   -0.64155036  -1.52676240  -2.85119573
| 25> H   -2.19296812  -2.23341762  -2.27502332
| 26> H   -0.65399464  -2.67521175  -1.48223813
| 27> C   -2.11313832   0.33947988  -1.78504855
| 28> H   -2.22899661   1.21432652  -1.14285022
| 29> H   -3.07282218  -0.06267768  -2.08696005
| 30> H   -1.51032407   0.56831184  -2.66118551
| 31> C   -1.60768294  -1.02861324   1.45925451
| 32> C   -1.38347581  -2.17064936   2.29477497
| 33> C   -1.02675890  -2.00027018   3.61265888
| 34> C   -1.09508361  -0.74396555   4.17307164
| 35> C   -1.35189205   0.39455847   3.40036722
| 36> C   -1.53121538   0.17237689   2.09297029
| 37> H   -0.87372357  -0.59243609   5.22340693
| 38> H   -1.49368603   1.33105761   3.85683833
| 39> H   -1.47022253  -3.16728749   1.89613765
| 40> H   -1.01940962  -2.85216631   4.27698931
| 41> H   -1.92569462   3.37511054   1.34259056
| 42> C   -2.22894632  -1.24174933   0.12918179
| 43> H   -3.15597948  -0.67892499   0.12597921
| 44> H   -2.49382682  -2.28020197  -0.04972569
| 45> O    2.06247833  -0.31983299  -1.23995883
| 46> C    2.14553353  -0.58400428  -2.59061347
| 47> O    1.40904944  -0.65833751  -3.37035038
| 48> C    3.70216211  -0.57363307  -2.95193185
| 49> H    3.85787044  -1.58657743  -3.31181723
| 50> H    4.46565172  -0.29473933  -2.24386443
| 51> H    3.75975769   0.01563944  -3.88592461
| 52> *
| 53>
| 54>                          ****END OF INPUT****

CARTESIAN COORDINATES (ANGSTROEM)
---------------------------------
  Pd     0.452374    0.338375   -0.153796
  O      1.913563    1.237345    0.604711
  C      1.602835    2.626616    0.350971
  O      0.609918    2.900302   -0.217390
  C      2.744716    3.643150    0.613622
  H      2.261186    4.531054    1.030176
  H      3.195602    3.956841   -0.335777
  H      3.530856    3.306959    1.280963
  N     -1.433722   -0.777862   -1.105992
  C     -1.199088   -1.903373   -2.011970
  H     -0.641550   -1.526762   -2.851196
  H     -2.192968   -2.233418   -2.275023
  H     -0.653995   -2.675212   -1.482238
  C     -2.113138    0.339480   -1.785049
  H     -2.228997    1.214327   -1.142850
  H     -3.072822   -0.062678   -2.086960
  H     -1.510324    0.568312   -2.661186
  C     -1.607683   -1.028613    1.459255
  C     -1.383476   -2.170649    2.294775
  C     -1.026759   -2.000270    3.612659
  C     -1.095084   -0.743966    4.173072
  C     -1.351892    0.394558    3.400367
  C     -1.531215    0.172377    2.092970
  H     -0.873724   -0.592436    5.223407
  H     -1.493686    1.331058    3.856838
  H     -1.470223   -3.167287    1.896138
  H     -1.019410   -2.852166    4.276989
  H     -1.925695    3.375111    1.342591
  C     -2.228946   -1.241749    0.129182
  H     -3.155979   -0.678925    0.125979
  H     -2.493827   -2.280202   -0.049726
  O      2.062478   -0.319833   -1.239959
  C      2.145534   -0.584004   -2.590613
  O      1.409049   -0.658338   -3.370350
  C      3.702162   -0.573633   -2.951932
  H      3.857870   -1.586577   -3.311817
  H      4.465652   -0.294739   -2.243864
  H      3.759758    0.015639   -3.885925

 Total Charge           Charge          ....    0
 Multiplicity           Mult            ....    1
 Number of Electrons    NEL             ....  154
 Basis Dimension        Dim             ....  339

ORBITAL ENERGIES
----------------

  NO   OCC          E(Eh)            E(eV)
   0   2.0000     -19.483600      -530.1757
   1   2.0000     -19.477878      -530.0200
   2   2.0000     -19.458246      -529.4858
   3   2.0000     -19.451701      -529.3077
   4   2.0000     -14.697667      -399.9439
   5   2.0000     -10.559791      -287.3465
   6   2.0000     -10.526883      -286.4510
   7   2.0000     -10.525849      -286.4229
   8   2.0000     -10.507992      -285.9370
   9   2.0000     -10.506717      -285.9023
  10   2.0000     -10.491654      -285.4924
  11   2.0000     -10.485987      -285.3382
  12   2.0000     -10.483889      -285.2811
  13   2.0000     -10.478004      -285.1210
  14   2.0000     -10.475260      -285.0463
  15   2.0000     -10.467948      -284.8473
  16   2.0000     -10.435875      -283.9746
  17   2.0000     -10.402097      -283.0554
  18   2.0000      -3.645035       -99.1865
  19   2.0000      -2.298959       -62.5579
  20   2.0000      -2.282546       -62.1112
  21   2.0000      -2.258445       -61.4554
  22   2.0000      -1.219271       -33.1781
  23   2.0000      -1.181030       -32.1375
  24   2.0000      -1.055984       -28.7348
  25   2.0000      -1.042114       -28.3574
  26   2.0000      -1.028535       -27.9879
  27   2.0000      -1.005180       -27.3523
  28   2.0000      -0.904506       -24.6129
  29   2.0000      -0.877266       -23.8716
  30   2.0000      -0.815631       -22.1945
  31   2.0000      -0.810238       -22.0477
  32   2.0000      -0.808702       -22.0059
  33   2.0000      -0.770264       -20.9600
  34   2.0000      -0.723673       -19.6921
  35   2.0000      -0.710741       -19.3403
  36   2.0000      -0.679071       -18.4785
  37   2.0000      -0.613700       -16.6996
  38   2.0000      -0.598095       -16.2750
  39   2.0000      -0.576314       -15.6823
  40   2.0000      -0.570483       -15.5236
  41   2.0000      -0.563623       -15.3370
  42   2.0000      -0.562032       -15.2937
  43   2.0000      -0.543581       -14.7916
  44   2.0000      -0.533334       -14.5128
  45   2.0000      -0.530026       -14.4227
  46   2.0000      -0.518091       -14.0980
  47   2.0000      -0.509586       -13.8666
  48   2.0000      -0.505964       -13.7680
  49   2.0000      -0.504890       -13.7387
  50   2.0000      -0.503020       -13.6879
  51   2.0000      -0.498262       -13.5584
  52   2.0000      -0.486348       -13.2342
  53   2.0000      -0.480494       -13.0749
  54   2.0000      -0.469100       -12.7648
  55   2.0000      -0.450883       -12.2691
  56   2.0000      -0.449720       -12.2375
  57   2.0000      -0.447681       -12.1820
  58   2.0000      -0.440980       -11.9997
  59   2.0000      -0.434274       -11.8172
  60   2.0000      -0.433279       -11.7901
  61   2.0000      -0.426358       -11.6018
  62   2.0000      -0.402726       -10.9587
  63   2.0000      -0.397836       -10.8257
  64   2.0000      -0.381357       -10.3772
  65   2.0000      -0.359776        -9.7900
  66   2.0000      -0.339749        -9.2450
  67   2.0000      -0.334152        -9.0927
  68   2.0000      -0.330102        -8.9825
  69   2.0000      -0.324521        -8.8307
  70   2.0000      -0.323328        -8.7982
  71   2.0000      -0.315322        -8.5803
  72   2.0000      -0.295121        -8.0307
  73   2.0000      -0.289978        -7.8907
  74   2.0000      -0.279862        -7.6154
  75   2.0000      -0.264132        -7.1874
  76   2.0000      -0.256266        -6.9734
  77   0.0000      -0.158991        -4.3264
  78   0.0000      -0.060422        -1.6442
  79   0.0000      -0.028124        -0.7653
  80   0.0000      -0.008553        -0.2327
  81   0.0000       0.056988         1.5507

MULLIKEN ATOMIC CHARGES
-----------------------
   0 Pd:    0.414097
   1 O :   -0.542902
   2 C :    0.583090
   3 O :   -0.369934
   4 C :   -0.746419
   5 H :    0.238150
   6 H :    0.258533
   7 H :    0.253353
   8 N :   -0.459727
   9 C :   -0.524053
  10 H :    0.299198
  11 H :    0.203455
  12 H :    0.249687
  13 C :   -0.534894
  14 H :    0.279513
  15 H :    0.216677
  16 H :    0.276283
  17 C :    0.015884
  18 C :   -0.261177
  19 C :   -0.180724
  20 C :   -0.243205
  21 C :   -0.248373
  22 C :    0.047473
  23 H :    0.246937
  24 H :    0.274504
  25 H :    0.242990
  26 H :    0.233077
  27 H :    0.004341
  28 C :   -0.324719
  29 H :    0.259265
  30 H :    0.248748
  31 O :   -0.549873
  32 C :    0.500971
  33 O :   -0.296760
  34 C :   -0.748753
  35 H :    0.218166
  36 H :    0.248498
  37 H :    0.218624
Sum of atomic charges:    0.0000000

LOEWDIN ATOMIC CHARGES
----------------------
   0 Pd:   -0.321558
   1 O :   -0.199107
   2 C :    0.204950
   3 O :   -0.139456
   4 C :   -0.381495
   5 H :    0.147901
   6 H :    0.160102
   7 H :    0.148196
   8 N :   -0.116427
   9 C :   -0.243105
  10 H :    0.162261
  11 H :    0.111442
  12 H :    0.142743
  13 C :   -0.239064
  14 H :    0.157818
  15 H :    0.115266
  16 H :    0.157049
  17 C :   -0.055147
  18 C :   -0.095223
  19 C :   -0.126242
  20 C :   -0.104483
  21 C :   -0.125215
  22 C :    0.062829
  23 H :    0.148482
  24 H :    0.164784
  25 H :    0.149290
  26 H :    0.149700
  27 H :    0.007317
  28 C :   -0.099249
  29 H :    0.152264
  30 H :    0.142499
  31 O :   -0.228071
  32 C :    0.079772
  33 O :   -0.097164
  34 C :   -0.405199
  35 H :    0.135678
  36 H :    0.140256
  37 H :    0.135605

  Mayer bond orders larger than 0.100000
B(  0-Pd,  1-O ) :   0.7929 B(  0-Pd,  3-O ) :   0.1506 B(  0-Pd,  8-N ) :   0.3284
B(  0-Pd, 22-C ) :   0.1474 B(  0-Pd, 27-H ) :   0.1431 B(  0-Pd, 31-O ) :   0.7174
B(  1-O ,  2-C ) :   1.0772 B(  2-C ,  3-O ) :   1.9092 B(  2-C ,  4-C ) :   0.9362
B(  4-C ,  5-H ) :   0.9125 B(  4-C ,  6-H ) :   0.9071 B(  4-C ,  7-H ) :   0.9088
B(  8-N ,  9-C ) :   0.9315 B(  8-N , 13-C ) :   0.9259 B(  8-N , 28-C ) :   0.8910
B(  9-C , 10-H ) :   0.8723 B(  9-C , 11-H ) :   0.9091 B(  9-C , 12-H ) :   0.9149
B( 13-C , 14-H ) :   0.8921 B( 13-C , 15-H ) :   0.9076 B( 13-C , 16-H ) :   0.8981
B( 17-C , 18-C ) :   1.3653 B( 17-C , 22-C ) :   1.4173 B( 17-C , 28-C ) :   0.9422
B( 18-C , 19-C ) :   1.4498 B( 18-C , 21-C ) :   0.1003 B( 18-C , 25-H ) :   0.9014
B( 19-C , 20-C ) :   1.4151 B( 19-C , 26-H ) :   0.9137 B( 20-C , 21-C ) :   1.3866
B( 20-C , 23-H ) :   0.9027 B( 21-C , 22-C ) :   1.4647 B( 21-C , 24-H ) :   0.8964
B( 22-C , 27-H ) :   0.6561 B( 28-C , 29-H ) :   0.8996 B( 28-C , 30-H ) :   0.9143
B( 31-O , 32-C ) :   1.1691 B( 32-C , 33-O ) :   2.0947 B( 32-C , 34-C ) :   0.8844
B( 34-C , 35-H ) :   0.9202 B( 34-C , 36-H ) :   0.9145 B( 34-C , 37-H ) :   0.9233

Dispersion correction           -0.025449234
FINAL SINGLE POINT ENERGY      -988.151087104230
Dispersion correction            ... done

DIPOLE MOMENT
-------------
                                X             Y             Z
Electronic contribution:     18.35432      15.79695      -5.87621
Nuclear contribution   :    -20.44355     -16.82675       7.43625
                        -----------------------------------------
Total Dipole Moment    :     -2.08923      -1.02980       1.56004
                        -----------------------------------------
Magnitude (a.u.)       :      2.80341
Magnitude (Debye)      :      7.12570

Rotational constants in cm-1:     0.013265     0.008381     0.006490
Rotational constants in MHz :   397.670902   251.265362   194.567598

                             ****ORCA TERMINATED NORMALLY****
TOTAL RUN TIME: 0 days 0 hours 13 minutes 35 seconds 691 msec
