                         Program Version 5.0.3 -  RELEASE  -
|  1> ! EnGrad PBEh-3c
|  2> %output
|  3> xyzfile=True
|  4> end
|  5> %scf
|  6> maxiter 250
|  7> end
|  8> %output
|  9> Print[P_Hirshfeld] = 1
| 10> end
| 11> % maxcore
| 12> 4000
| 13> *xyz 0 1
| 14> Pd   0.42280264   0.30818380  -0.20773030
| 15> O    1.94094407   1.28891679   0.62954155
| 16> C    1.62795504   2.61747903   0.33362749
| 17> O    0.62064415   2.88000980  -0.19853902
| 18> C    2.73591804   3.65309579   0.60646355
| 19> H    2.25238917   4.53875086   1.02881559
| 20> H    3.18220681   3.95838563  -0.33767042
| 21> H    3.51855282   3.31650002   1.27516433
| 22> N   -1.40993309  -0.75779109  -1.08295645
| 23> C   -1.20759662  -1.86081976  -2.01445105
| 24> H   -0.69026240  -1.50789509  -2.88249128
| 25> H   -2.18964354  -2.20859766  -2.32292750
| 26> H   -0.65243005  -2.64464215  -1.53161486
| 27> C   -2.11739678   0.34059276  -1.76033972
| 28> H   -2.24358184   1.20383338  -1.12997751
| 29> H   -3.08587710  -0.04436813  -2.07512561
| 30> H   -1.54412363   0.60616507  -2.64306030
| 31> C   -1.58165788  -1.03965568   1.43793795
| 32> C   -1.28177865  -2.16511880   2.27753999
| 33> C   -1.01362073  -1.99271480   3.61095522
| 34> C   -1.07690659  -0.73995486   4.16699209
| 35> C   -1.40338292   0.37888470   3.37815783
| 36> C   -1.58207965   0.16341190   2.06807349
| 37> H   -0.88082679  -0.59128324   5.22585640
| 38> H   -1.56535201   1.29615271   3.87256424
| 39> H   -1.38757638  -3.15952516   1.90373982
| 40> H   -0.96463845  -2.84980897   4.26696106
| 41> H   -1.97112720   3.41882337   1.36331139
| 42> C   -2.21836682  -1.25941276   0.12279795
| 43> H   -3.17367413  -0.73912707   0.13648076
| 44> H   -2.48005933  -2.30000979  -0.03242067
| 45> O    1.99094091  -0.37752907  -1.24810018
| 46> C    2.21176653  -0.51322875  -2.52795235
| 47> O    1.41548775  -0.53617246  -3.37379349
| 48> C    3.70527439  -0.61640506  -2.94321139
| 49> H    3.82882958  -1.65751256  -3.26151950
| 50> H    4.44316754  -0.36448034  -2.24479071
| 51> H    3.83040887  -0.04369176  -3.87975391
| 52> *
| 53>
| 54>                          ****END OF INPUT****

CARTESIAN COORDINATES (ANGSTROEM)
---------------------------------
  Pd     0.422803    0.308184   -0.207730
  O      1.940944    1.288917    0.629542
  C      1.627955    2.617479    0.333627
  O      0.620644    2.880010   -0.198539
  C      2.735918    3.653096    0.606464
  H      2.252389    4.538751    1.028816
  H      3.182207    3.958386   -0.337670
  H      3.518553    3.316500    1.275164
  N     -1.409933   -0.757791   -1.082956
  C     -1.207597   -1.860820   -2.014451
  H     -0.690262   -1.507895   -2.882491
  H     -2.189644   -2.208598   -2.322927
  H     -0.652430   -2.644642   -1.531615
  C     -2.117397    0.340593   -1.760340
  H     -2.243582    1.203833   -1.129978
  H     -3.085877   -0.044368   -2.075126
  H     -1.544124    0.606165   -2.643060
  C     -1.581658   -1.039656    1.437938
  C     -1.281779   -2.165119    2.277540
  C     -1.013621   -1.992715    3.610955
  C     -1.076907   -0.739955    4.166992
  C     -1.403383    0.378885    3.378158
  C     -1.582080    0.163412    2.068073
  H     -0.880827   -0.591283    5.225856
  H     -1.565352    1.296153    3.872564
  H     -1.387576   -3.159525    1.903740
  H     -0.964638   -2.849809    4.266961
  H     -1.971127    3.418823    1.363311
  C     -2.218367   -1.259413    0.122798
  H     -3.173674   -0.739127    0.136481
  H     -2.480059   -2.300010   -0.032421
  O      1.990941   -0.377529   -1.248100
  C      2.211767   -0.513229   -2.527952
  O      1.415488   -0.536172   -3.373793
  C      3.705274   -0.616405   -2.943211
  H      3.828830   -1.657513   -3.261519
  H      4.443168   -0.364480   -2.244791
  H      3.830409   -0.043692   -3.879754

 Total Charge           Charge          ....    0
 Multiplicity           Mult            ....    1
 Number of Electrons    NEL             ....  154
 Basis Dimension        Dim             ....  339

ORBITAL ENERGIES
----------------

  NO   OCC          E(Eh)            E(eV)
   0   2.0000     -19.478227      -530.0295
   1   2.0000     -19.466384      -529.7072
   2   2.0000     -19.459537      -529.5209
   3   2.0000     -19.425906      -528.6058
   4   2.0000     -14.712268      -400.3412
   5   2.0000     -10.548641      -287.0431
   6   2.0000     -10.525592      -286.4159
   7   2.0000     -10.520848      -286.2868
   8   2.0000     -10.512448      -286.0583
   9   2.0000     -10.508847      -285.9603
  10   2.0000     -10.492326      -285.5107
  11   2.0000     -10.488026      -285.3937
  12   2.0000     -10.485779      -285.3325
  13   2.0000     -10.478920      -285.1459
  14   2.0000     -10.477369      -285.1037
  15   2.0000     -10.467954      -284.8475
  16   2.0000     -10.427676      -283.7515
  17   2.0000     -10.403490      -283.0933
  18   2.0000      -3.655959       -99.4837
  19   2.0000      -2.306881       -62.7734
  20   2.0000      -2.295781       -62.4714
  21   2.0000      -2.267958       -61.7143
  22   2.0000      -1.179880       -32.1062
  23   2.0000      -1.156970       -31.4827
  24   2.0000      -1.067412       -29.0458
  25   2.0000      -1.051201       -28.6046
  26   2.0000      -1.040206       -28.3054
  27   2.0000      -1.006772       -27.3956
  28   2.0000      -0.908204       -24.7135
  29   2.0000      -0.878717       -23.9111
  30   2.0000      -0.819632       -22.3033
  31   2.0000      -0.814219       -22.1560
  32   2.0000      -0.804982       -21.9047
  33   2.0000      -0.780489       -21.2382
  34   2.0000      -0.726493       -19.7689
  35   2.0000      -0.717205       -19.5161
  36   2.0000      -0.684531       -18.6270
  37   2.0000      -0.616277       -16.7697
  38   2.0000      -0.591775       -16.1030
  39   2.0000      -0.580607       -15.7991
  40   2.0000      -0.575972       -15.6730
  41   2.0000      -0.572313       -15.5734
  42   2.0000      -0.565801       -15.3962
  43   2.0000      -0.545666       -14.8483
  44   2.0000      -0.535490       -14.5714
  45   2.0000      -0.524350       -14.2683
  46   2.0000      -0.511243       -13.9116
  47   2.0000      -0.508868       -13.8470
  48   2.0000      -0.505580       -13.7575
  49   2.0000      -0.499486       -13.5917
  50   2.0000      -0.490983       -13.3603
  51   2.0000      -0.484618       -13.1871
  52   2.0000      -0.482776       -13.1370
  53   2.0000      -0.480679       -13.0799
  54   2.0000      -0.468240       -12.7415
  55   2.0000      -0.453815       -12.3489
  56   2.0000      -0.450031       -12.2460
  57   2.0000      -0.442903       -12.0520
  58   2.0000      -0.440280       -11.9806
  59   2.0000      -0.438208       -11.9243
  60   2.0000      -0.432947       -11.7811
  61   2.0000      -0.426214       -11.5979
  62   2.0000      -0.402829       -10.9615
  63   2.0000      -0.393721       -10.7137
  64   2.0000      -0.376849       -10.2546
  65   2.0000      -0.361220        -9.8293
  66   2.0000      -0.341892        -9.3033
  67   2.0000      -0.339316        -9.2333
  68   2.0000      -0.335658        -9.1337
  69   2.0000      -0.332248        -9.0409
  70   2.0000      -0.323835        -8.8120
  71   2.0000      -0.314824        -8.5668
  72   2.0000      -0.304268        -8.2796
  73   2.0000      -0.288040        -7.8380
  74   2.0000      -0.278418        -7.5761
  75   2.0000      -0.274048        -7.4572
  76   2.0000      -0.258263        -7.0277
  77   0.0000      -0.163787        -4.4569
  78   0.0000      -0.075545        -2.0557
  79   0.0000      -0.031803        -0.8654
  80   0.0000      -0.009110        -0.2479
  81   0.0000       0.062252         1.6940

MULLIKEN ATOMIC CHARGES
-----------------------
   0 Pd:    0.442277
   1 O :   -0.527337
   2 C :    0.585520
   3 O :   -0.383303
   4 C :   -0.750573
   5 H :    0.236200
   6 H :    0.254560
   7 H :    0.250026
   8 N :   -0.462432
   9 C :   -0.534342
  10 H :    0.312182
  11 H :    0.205416
  12 H :    0.253430
  13 C :   -0.547901
  14 H :    0.284831
  15 H :    0.221742
  16 H :    0.290315
  17 C :   -0.013595
  18 C :   -0.242987
  19 C :   -0.192552
  20 C :   -0.231816
  21 C :   -0.256624
  22 C :    0.056028
  23 H :    0.248378
  24 H :    0.272129
  25 H :    0.239211
  26 H :    0.239169
  27 H :    0.014989
  28 C :   -0.324418
  29 H :    0.264190
  30 H :    0.256190
  31 O :   -0.531974
  32 C :    0.530478
  33 O :   -0.420013
  34 C :   -0.743136
  35 H :    0.225420
  36 H :    0.248630
  37 H :    0.231694
Sum of atomic charges:    0.0000000

LOEWDIN ATOMIC CHARGES
----------------------
   0 Pd:   -0.278551
   1 O :   -0.207208
   2 C :    0.172156
   3 O :   -0.148923
   4 C :   -0.384037
   5 H :    0.146581
   6 H :    0.157408
   7 H :    0.146290
   8 N :   -0.087452
   9 C :   -0.244122
  10 H :    0.166375
  11 H :    0.112141
  12 H :    0.143586
  13 C :   -0.239201
  14 H :    0.157311
  15 H :    0.118449
  16 H :    0.162406
  17 C :   -0.057074
  18 C :   -0.093848
  19 C :   -0.126243
  20 C :   -0.103223
  21 C :   -0.124253
  22 C :    0.053967
  23 H :    0.149217
  24 H :    0.163498
  25 H :    0.149019
  26 H :    0.149918
  27 H :    0.017067
  28 C :   -0.097333
  29 H :    0.154084
  30 H :    0.145509
  31 O :   -0.175270
  32 C :    0.098014
  33 O :   -0.229049
  34 C :   -0.390987
  35 H :    0.143727
  36 H :    0.136484
  37 H :    0.143567

  Mayer bond orders larger than 0.100000
B(  0-Pd,  1-O ) :   0.7617 B(  0-Pd,  3-O ) :   0.1642 B(  0-Pd,  8-N ) :   0.3673
B(  0-Pd, 22-C ) :   0.1398 B(  0-Pd, 27-H ) :   0.1297 B(  0-Pd, 31-O ) :   0.6699
B(  1-O ,  2-C ) :   1.1363 B(  2-C ,  3-O ) :   1.8919 B(  2-C ,  4-C ) :   0.9341
B(  4-C ,  5-H ) :   0.9153 B(  4-C ,  6-H ) :   0.9092 B(  4-C ,  7-H ) :   0.9110
B(  8-N ,  9-C ) :   0.9282 B(  8-N , 13-C ) :   0.9210 B(  8-N , 28-C ) :   0.8855
B(  9-C , 10-H ) :   0.8657 B(  9-C , 11-H ) :   0.9068 B(  9-C , 12-H ) :   0.9136
B( 13-C , 14-H ) :   0.8894 B( 13-C , 15-H ) :   0.9059 B( 13-C , 16-H ) :   0.8911
B( 17-C , 18-C ) :   1.3665 B( 17-C , 22-C ) :   1.4182 B( 17-C , 28-C ) :   0.9416
B( 18-C , 19-C ) :   1.4601 B( 18-C , 21-C ) :   0.1015 B( 18-C , 25-H ) :   0.9030
B( 19-C , 20-C ) :   1.4199 B( 19-C , 26-H ) :   0.9104 B( 20-C , 21-C ) :   1.3882
B( 20-C , 23-H ) :   0.9019 B( 21-C , 22-C ) :   1.4685 B( 21-C , 24-H ) :   0.8972
B( 22-C , 27-H ) :   0.6634 B( 28-C , 29-H ) :   0.8986 B( 28-C , 30-H ) :   0.9125
B( 31-O , 32-C ) :   1.2634 B( 32-C , 33-O ) :   1.9406 B( 32-C , 34-C ) :   0.9121
B( 34-C , 35-H ) :   0.9207 B( 34-C , 36-H ) :   0.9079 B( 34-C , 37-H ) :   0.9228

Dispersion correction           -0.025496334
FINAL SINGLE POINT ENERGY      -988.208983355630
Dispersion correction            ... done

DIPOLE MOMENT
-------------
                                X             Y             Z
Electronic contribution:     16.59340      13.86470      -8.55629
Nuclear contribution   :    -18.80981     -15.08007      10.33507
                        -----------------------------------------
Total Dipole Moment    :     -2.21641      -1.21537       1.77879
                        -----------------------------------------
Magnitude (a.u.)       :      3.09090
Magnitude (Debye)      :      7.85646

Rotational constants in cm-1:     0.013359     0.008399     0.006540
Rotational constants in MHz :   400.506764   251.783728   196.060498

                             ****ORCA TERMINATED NORMALLY****
TOTAL RUN TIME: 0 days 0 hours 11 minutes 24 seconds 612 msec
