                         Program Version 5.0.3 -  RELEASE  -
|  1> ! EnGrad PBEh-3c
|  2> %output
|  3> xyzfile=True
|  4> end
|  5> %scf
|  6> maxiter 250
|  7> end
|  8> %output
|  9> Print[P_Hirshfeld] = 1
| 10> end
| 11> % maxcore
| 12> 4000
| 13> *xyz 0 1
| 14> Pd   0.41372470   0.29891567  -0.22428723
| 15> O    1.94934977   1.30474864   0.63716419
| 16> C    1.63566642   2.61467405   0.32830341
| 17> O    0.62393701   2.87378050  -0.19275208
| 18> C    2.73321734   3.65614884   0.60426613
| 19> H    2.24968880   4.54111359   1.02839782
| 20> H    3.17809469   3.95885986  -0.33825170
| 21> H    3.51477579   3.31942887   1.27338424
| 22> N   -1.40263023  -0.75162955  -1.07588494
| 23> C   -1.21020856  -1.84775666  -2.01521269
| 24> H   -0.70521623  -1.50210312  -2.89209852
| 25> H   -2.18862295  -2.20097832  -2.33763333
| 26> H   -0.65194974  -2.63525776  -1.54677274
| 27> C   -2.11870406   0.34093439  -1.75275450
| 28> H   -2.24805927   1.20061215  -1.12602579
| 29> H   -3.08988475  -0.03874739  -2.07149263
| 30> H   -1.55449956   0.61778542  -2.63749614
| 31> C   -1.57366860  -1.04304553   1.43139409
| 32> C   -1.25055923  -2.16342101   2.27224912
| 33> C   -1.00958752  -1.99039541   3.61043223
| 34> C   -1.07132654  -0.73872364   4.16512576
| 35> C   -1.41918980   0.37407311   3.37133990
| 36> C   -1.59769418   0.16065980   2.06043056
| 37> H   -0.88300736  -0.59092933   5.22660835
| 38> H   -1.58735233   1.28543745   3.87739185
| 39> H   -1.36220531  -3.15714224   1.90607356
| 40> H   -0.94782456  -2.84908531   4.26388254
| 41> H   -1.98507429   3.43224252   1.36967236
| 42> C   -2.21511908  -1.26483515   0.12083821
| 43> H   -3.17910610  -0.75760816   0.13970457
| 44> H   -2.47583292  -2.30609047  -0.02710830
| 45> O    1.96898005  -0.39524085  -1.25059945
| 46> C    2.23209902  -0.49150178  -2.50871637
| 47> O    1.41746422  -0.49866971  -3.37485047
| 48> C    3.70622981  -0.62953539  -2.94053434
| 49> H    3.81991449  -1.67928853  -3.24607889
| 50> H    4.43626525  -0.38588974  -2.24507507
| 51> H    3.85209767  -0.06190550  -3.87785960
| 52> *
| 53>
| 54>                          ****END OF INPUT****

CARTESIAN COORDINATES (ANGSTROEM)
---------------------------------
  Pd     0.413725    0.298916   -0.224287
  O      1.949350    1.304749    0.637164
  C      1.635666    2.614674    0.328303
  O      0.623937    2.873781   -0.192752
  C      2.733217    3.656149    0.604266
  H      2.249689    4.541114    1.028398
  H      3.178095    3.958860   -0.338252
  H      3.514776    3.319429    1.273384
  N     -1.402630   -0.751630   -1.075885
  C     -1.210209   -1.847757   -2.015213
  H     -0.705216   -1.502103   -2.892099
  H     -2.188623   -2.200978   -2.337633
  H     -0.651950   -2.635258   -1.546773
  C     -2.118704    0.340934   -1.752754
  H     -2.248059    1.200612   -1.126026
  H     -3.089885   -0.038747   -2.071493
  H     -1.554500    0.617785   -2.637496
  C     -1.573669   -1.043046    1.431394
  C     -1.250559   -2.163421    2.272249
  C     -1.009588   -1.990395    3.610432
  C     -1.071327   -0.738724    4.165126
  C     -1.419190    0.374073    3.371340
  C     -1.597694    0.160660    2.060431
  H     -0.883007   -0.590929    5.226608
  H     -1.587352    1.285437    3.877392
  H     -1.362205   -3.157142    1.906074
  H     -0.947825   -2.849085    4.263883
  H     -1.985074    3.432243    1.369672
  C     -2.215119   -1.264835    0.120838
  H     -3.179106   -0.757608    0.139705
  H     -2.475833   -2.306090   -0.027108
  O      1.968980   -0.395241   -1.250599
  C      2.232099   -0.491502   -2.508716
  O      1.417464   -0.498670   -3.374850
  C      3.706230   -0.629535   -2.940534
  H      3.819914   -1.679289   -3.246079
  H      4.436265   -0.385890   -2.245075
  H      3.852098   -0.061905   -3.877860

 Total Charge           Charge          ....    0
 Multiplicity           Mult            ....    1
 Number of Electrons    NEL             ....  154
 Basis Dimension        Dim             ....  339

ORBITAL ENERGIES
----------------

  NO   OCC          E(Eh)            E(eV)
   0   2.0000     -19.476022      -529.9695
   1   2.0000     -19.462621      -529.6048
   2   2.0000     -19.462321      -529.5967
   3   2.0000     -19.417664      -528.3815
   4   2.0000     -14.716679      -400.4612
   5   2.0000     -10.544879      -286.9408
   6   2.0000     -10.525354      -286.4094
   7   2.0000     -10.520292      -286.2717
   8   2.0000     -10.513872      -286.0970
   9   2.0000     -10.509504      -285.9781
  10   2.0000     -10.492588      -285.5178
  11   2.0000     -10.488638      -285.4103
  12   2.0000     -10.486375      -285.3488
  13   2.0000     -10.479246      -285.1548
  14   2.0000     -10.478110      -285.1239
  15   2.0000     -10.468342      -284.8581
  16   2.0000     -10.424966      -283.6777
  17   2.0000     -10.404612      -283.1239
  18   2.0000      -3.659070       -99.5684
  19   2.0000      -2.309369       -62.8411
  20   2.0000      -2.299538       -62.5736
  21   2.0000      -2.270663       -61.7879
  22   2.0000      -1.179284       -32.0900
  23   2.0000      -1.147048       -31.2128
  24   2.0000      -1.070947       -29.1419
  25   2.0000      -1.048643       -28.5350
  26   2.0000      -1.040831       -28.3224
  27   2.0000      -1.006873       -27.3984
  28   2.0000      -0.909175       -24.7399
  29   2.0000      -0.878835       -23.9143
  30   2.0000      -0.820911       -22.3381
  31   2.0000      -0.815198       -22.1827
  32   2.0000      -0.803601       -21.8671
  33   2.0000      -0.783877       -21.3304
  34   2.0000      -0.727353       -19.7923
  35   2.0000      -0.719131       -19.5685
  36   2.0000      -0.685770       -18.6608
  37   2.0000      -0.616859       -16.7856
  38   2.0000      -0.591567       -16.0974
  39   2.0000      -0.581795       -15.8314
  40   2.0000      -0.577964       -15.7272
  41   2.0000      -0.574953       -15.6453
  42   2.0000      -0.566685       -15.4203
  43   2.0000      -0.546828       -14.8799
  44   2.0000      -0.536695       -14.6042
  45   2.0000      -0.522243       -14.2109
  46   2.0000      -0.511597       -13.9213
  47   2.0000      -0.508718       -13.8429
  48   2.0000      -0.504328       -13.7235
  49   2.0000      -0.499361       -13.5883
  50   2.0000      -0.491806       -13.3827
  51   2.0000      -0.483141       -13.1469
  52   2.0000      -0.481613       -13.1053
  53   2.0000      -0.477672       -12.9981
  54   2.0000      -0.467863       -12.7312
  55   2.0000      -0.454439       -12.3659
  56   2.0000      -0.450114       -12.2482
  57   2.0000      -0.441205       -12.0058
  58   2.0000      -0.439851       -11.9689
  59   2.0000      -0.439146       -11.9498
  60   2.0000      -0.432204       -11.7609
  61   2.0000      -0.426062       -11.5937
  62   2.0000      -0.404695       -11.0123
  63   2.0000      -0.394367       -10.7313
  64   2.0000      -0.377042       -10.2598
  65   2.0000      -0.360267        -9.8034
  66   2.0000      -0.342386        -9.3168
  67   2.0000      -0.341873        -9.3028
  68   2.0000      -0.335560        -9.1311
  69   2.0000      -0.333106        -9.0643
  70   2.0000      -0.323086        -8.7916
  71   2.0000      -0.312815        -8.5121
  72   2.0000      -0.306132        -8.3303
  73   2.0000      -0.288416        -7.8482
  74   2.0000      -0.275169        -7.4877
  75   2.0000      -0.272736        -7.4215
  76   2.0000      -0.258619        -7.0374
  77   0.0000      -0.165126        -4.4933
  78   0.0000      -0.079582        -2.1655
  79   0.0000      -0.033076        -0.9001
  80   0.0000      -0.009243        -0.2515
  81   0.0000       0.061850         1.6830

MULLIKEN ATOMIC CHARGES
-----------------------
   0 Pd:    0.452505
   1 O :   -0.523207
   2 C :    0.584217
   3 O :   -0.387412
   4 C :   -0.751659
   5 H :    0.235514
   6 H :    0.253190
   7 H :    0.248891
   8 N :   -0.464623
   9 C :   -0.537648
  10 H :    0.315524
  11 H :    0.206465
  12 H :    0.254798
  13 C :   -0.551861
  14 H :    0.286716
  15 H :    0.223461
  16 H :    0.294312
  17 C :   -0.025784
  18 C :   -0.233529
  19 C :   -0.199366
  20 C :   -0.226272
  21 C :   -0.260365
  22 C :    0.060278
  23 H :    0.248649
  24 H :    0.271480
  25 H :    0.237147
  26 H :    0.241271
  27 H :    0.018146
  28 C :   -0.323608
  29 H :    0.265740
  30 H :    0.258281
  31 O :   -0.524835
  32 C :    0.535842
  33 O :   -0.452937
  34 C :   -0.741050
  35 H :    0.227497
  36 H :    0.248678
  37 H :    0.235554
Sum of atomic charges:    0.0000000

LOEWDIN ATOMIC CHARGES
----------------------
   0 Pd:   -0.266885
   1 O :   -0.209306
   2 C :    0.161205
   3 O :   -0.152003
   4 C :   -0.384762
   5 H :    0.146110
   6 H :    0.156505
   7 H :    0.145652
   8 N :   -0.079156
   9 C :   -0.244703
  10 H :    0.167423
  11 H :    0.112729
  12 H :    0.143899
  13 C :   -0.239312
  14 H :    0.157224
  15 H :    0.119564
  16 H :    0.163959
  17 C :   -0.057576
  18 C :   -0.093523
  19 C :   -0.126239
  20 C :   -0.102918
  21 C :   -0.123875
  22 C :    0.050931
  23 H :    0.149424
  24 H :    0.163132
  25 H :    0.148876
  26 H :    0.149889
  27 H :    0.019970
  28 C :   -0.096809
  29 H :    0.154730
  30 H :    0.146411
  31 O :   -0.160600
  32 C :    0.105357
  33 O :   -0.265600
  34 C :   -0.387195
  35 H :    0.145979
  36 H :    0.135508
  37 H :    0.145987

  Mayer bond orders larger than 0.100000
B(  0-Pd,  1-O ) :   0.7484 B(  0-Pd,  3-O ) :   0.1685 B(  0-Pd,  8-N ) :   0.3783
B(  0-Pd, 22-C ) :   0.1381 B(  0-Pd, 27-H ) :   0.1258 B(  0-Pd, 31-O ) :   0.6571
B(  1-O ,  2-C ) :   1.1566 B(  2-C ,  3-O ) :   1.8860 B(  2-C ,  4-C ) :   0.9330
B(  4-C ,  5-H ) :   0.9161 B(  4-C ,  6-H ) :   0.9098 B(  4-C ,  7-H ) :   0.9117
B(  8-N ,  9-C ) :   0.9271 B(  8-N , 13-C ) :   0.9192 B(  8-N , 28-C ) :   0.8838
B(  9-C , 10-H ) :   0.8641 B(  9-C , 11-H ) :   0.9061 B(  9-C , 12-H ) :   0.9131
B( 13-C , 14-H ) :   0.8885 B( 13-C , 15-H ) :   0.9054 B( 13-C , 16-H ) :   0.8891
B( 17-C , 18-C ) :   1.3657 B( 17-C , 22-C ) :   1.4183 B( 17-C , 28-C ) :   0.9421
B( 18-C , 19-C ) :   1.4613 B( 18-C , 21-C ) :   0.1018 B( 18-C , 25-H ) :   0.9040
B( 19-C , 20-C ) :   1.4220 B( 19-C , 26-H ) :   0.9091 B( 20-C , 21-C ) :   1.3870
B( 20-C , 23-H ) :   0.9019 B( 21-C , 22-C ) :   1.4707 B( 21-C , 24-H ) :   0.8973
B( 22-C , 27-H ) :   0.6650 B( 28-C , 29-H ) :   0.8983 B( 28-C , 30-H ) :   0.9119
B( 31-O , 32-C ) :   1.2876 B( 32-C , 33-O ) :   1.8966 B( 32-C , 34-C ) :   0.9200
B( 34-C , 35-H ) :   0.9205 B( 34-C , 36-H ) :   0.9055 B( 34-C , 37-H ) :   0.9225

Dispersion correction           -0.025508332
FINAL SINGLE POINT ENERGY      -988.211761014605
Dispersion correction            ... done

DIPOLE MOMENT
-------------
                                X             Y             Z
Electronic contribution:     16.05692      13.25762      -9.39836
Nuclear contribution   :    -18.30828     -14.54387      11.22497
                        -----------------------------------------
Total Dipole Moment    :     -2.25136      -1.28624       1.82661
                        -----------------------------------------
Magnitude (a.u.)       :      3.17168
Magnitude (Debye)      :      8.06178

Rotational constants in cm-1:     0.013384     0.008403     0.006554
Rotational constants in MHz :   401.232359   251.918467   196.488428

                             ****ORCA TERMINATED NORMALLY****
TOTAL RUN TIME: 0 days 0 hours 11 minutes 23 seconds 613 msec
