                         Program Version 5.0.3 -  RELEASE  -
|  1> ! EnGrad PBEh-3c
|  2> %output
|  3> xyzfile=True
|  4> end
|  5> %scf
|  6> maxiter 250
|  7> end
|  8> %output
|  9> Print[P_Hirshfeld] = 1
| 10> end
| 11> % maxcore
| 12> 4000
| 13> *xyz 0 1
| 14> Pd   0.41971614   0.30503264  -0.21335966
| 15> O    1.94380201   1.29429962   0.63213325
| 16> C    1.63057691   2.61652534   0.33181730
| 17> O    0.62176372   2.87789184  -0.19657146
| 18> C    2.73499980   3.65413382   0.60571643
| 19> H    2.25147105   4.53955419   1.02867355
| 20> H    3.18080869   3.95854687  -0.33786805
| 21> H    3.51726863   3.31749583   1.27455910
| 22> N   -1.40745012  -0.75569616  -1.08055213
| 23> C   -1.20848468  -1.85637830  -2.01471001
| 24> H   -0.69534670  -1.50592582  -2.88575774
| 25> H   -2.18929654  -2.20600708  -2.32792749
| 26> H   -0.65226675  -2.64145145  -1.53676854
| 27> C   -2.11784125   0.34070891  -1.75776075
| 28> H   -2.24510417   1.20273816  -1.12863393
| 29> H   -3.08723970  -0.04245708  -2.07389040
| 30> H   -1.54765145   0.61011599  -2.64116848
| 31> C   -1.57894152  -1.04080823   1.43571304
| 32> C   -1.27116405  -2.16454155   2.27574110
| 33> C   -1.01224944  -1.99192621   3.61077740
| 34> C   -1.07500937  -0.73953624   4.16635754
| 35> C   -1.40875726   0.37724876   3.37583973
| 36> C   -1.58738859   0.16247619   2.06547489
| 37> H   -0.88156818  -0.59116291   5.22611206
| 38> H   -1.57283212   1.29250952   3.87420563
| 39> H   -1.37895021  -3.15871497   1.90453329
| 40> H   -0.95892172  -2.84956292   4.26591436
| 41> H   -1.97586921   3.42338588   1.36547412
| 42> C   -2.21726259  -1.26125637   0.12213164
| 43> H   -3.17552100  -0.74541064   0.13757686
| 44> H   -2.47862235  -2.30207722  -0.03061447
| 45> O    1.98347422  -0.38355108  -1.24894993
| 46> C    2.21867958  -0.50584158  -2.52141212
| 47> O    1.41615975  -0.52342152  -3.37415287
| 48> C    3.70559923  -0.62086937  -2.94230119
| 49> H    3.82579845  -1.66491639  -3.25626969
| 50> H    4.44082076  -0.37175954  -2.24488739
| 51> H    3.83778306  -0.04988443  -3.87910984
| 52> *
| 53>
| 54>                          ****END OF INPUT****

CARTESIAN COORDINATES (ANGSTROEM)
---------------------------------
  Pd     0.419716    0.305033   -0.213360
  O      1.943802    1.294300    0.632133
  C      1.630577    2.616525    0.331817
  O      0.621764    2.877892   -0.196571
  C      2.735000    3.654134    0.605716
  H      2.251471    4.539554    1.028674
  H      3.180809    3.958547   -0.337868
  H      3.517269    3.317496    1.274559
  N     -1.407450   -0.755696   -1.080552
  C     -1.208485   -1.856378   -2.014710
  H     -0.695347   -1.505926   -2.885758
  H     -2.189297   -2.206007   -2.327927
  H     -0.652267   -2.641451   -1.536769
  C     -2.117841    0.340709   -1.757761
  H     -2.245104    1.202738   -1.128634
  H     -3.087240   -0.042457   -2.073890
  H     -1.547651    0.610116   -2.641168
  C     -1.578942   -1.040808    1.435713
  C     -1.271164   -2.164542    2.275741
  C     -1.012249   -1.991926    3.610777
  C     -1.075009   -0.739536    4.166358
  C     -1.408757    0.377249    3.375840
  C     -1.587389    0.162476    2.065475
  H     -0.881568   -0.591163    5.226112
  H     -1.572832    1.292510    3.874206
  H     -1.378950   -3.158715    1.904533
  H     -0.958922   -2.849563    4.265914
  H     -1.975869    3.423386    1.365474
  C     -2.217263   -1.261256    0.122132
  H     -3.175521   -0.745411    0.137577
  H     -2.478622   -2.302077   -0.030614
  O      1.983474   -0.383551   -1.248950
  C      2.218680   -0.505842   -2.521412
  O      1.416160   -0.523422   -3.374153
  C      3.705599   -0.620869   -2.942301
  H      3.825798   -1.664916   -3.256270
  H      4.440821   -0.371760   -2.244887
  H      3.837783   -0.049884   -3.879110

 Total Charge           Charge          ....    0
 Multiplicity           Mult            ....    1
 Number of Electrons    NEL             ....  154
 Basis Dimension        Dim             ....  339

ORBITAL ENERGIES
----------------

  NO   OCC          E(Eh)            E(eV)
   0   2.0000     -19.477511      -530.0100
   1   2.0000     -19.465118      -529.6728
   2   2.0000     -19.460459      -529.5460
   3   2.0000     -19.423002      -528.5268
   4   2.0000     -14.713775      -400.3822
   5   2.0000     -10.547380      -287.0088
   6   2.0000     -10.525521      -286.4140
   7   2.0000     -10.520584      -286.2797
   8   2.0000     -10.512931      -286.0714
   9   2.0000     -10.509071      -285.9664
  10   2.0000     -10.492413      -285.5131
  11   2.0000     -10.488236      -285.3994
  12   2.0000     -10.485981      -285.3381
  13   2.0000     -10.479029      -285.1489
  14   2.0000     -10.477617      -285.1105
  15   2.0000     -10.468066      -284.8506
  16   2.0000     -10.426766      -283.7267
  17   2.0000     -10.403833      -283.1027
  18   2.0000      -3.657036       -99.5130
  19   2.0000      -2.307732       -62.7966
  20   2.0000      -2.297081       -62.5067
  21   2.0000      -2.268895       -61.7398
  22   2.0000      -1.179690       -32.1010
  23   2.0000      -1.152972       -31.3740
  24   2.0000      -1.068614       -29.0785
  25   2.0000      -1.050832       -28.5946
  26   2.0000      -1.040500       -28.3134
  27   2.0000      -1.006827       -27.3972
  28   2.0000      -0.908544       -24.7227
  29   2.0000      -0.878775       -23.9127
  30   2.0000      -0.820067       -22.3152
  31   2.0000      -0.814564       -22.1654
  32   2.0000      -0.804526       -21.8923
  33   2.0000      -0.781628       -21.2692
  34   2.0000      -0.726776       -19.7766
  35   2.0000      -0.717873       -19.5343
  36   2.0000      -0.684977       -18.6392
  37   2.0000      -0.616486       -16.7755
  38   2.0000      -0.591514       -16.0959
  39   2.0000      -0.581025       -15.8105
  40   2.0000      -0.576758       -15.6944
  41   2.0000      -0.573235       -15.5985
  42   2.0000      -0.566107       -15.4046
  43   2.0000      -0.546033       -14.8583
  44   2.0000      -0.535922       -14.5832
  45   2.0000      -0.523619       -14.2484
  46   2.0000      -0.511235       -13.9114
  47   2.0000      -0.508891       -13.8476
  48   2.0000      -0.505156       -13.7460
  49   2.0000      -0.499445       -13.5906
  50   2.0000      -0.491273       -13.3682
  51   2.0000      -0.483463       -13.1557
  52   2.0000      -0.482775       -13.1370
  53   2.0000      -0.479607       -13.0508
  54   2.0000      -0.468115       -12.7381
  55   2.0000      -0.454045       -12.3552
  56   2.0000      -0.450062       -12.2468
  57   2.0000      -0.442321       -12.0362
  58   2.0000      -0.440119       -11.9762
  59   2.0000      -0.438598       -11.9349
  60   2.0000      -0.432708       -11.7746
  61   2.0000      -0.426178       -11.5969
  62   2.0000      -0.403391       -10.9768
  63   2.0000      -0.393828       -10.7166
  64   2.0000      -0.376817       -10.2537
  65   2.0000      -0.360947        -9.8219
  66   2.0000      -0.342088        -9.3087
  67   2.0000      -0.340224        -9.2580
  68   2.0000      -0.335679        -9.1343
  69   2.0000      -0.332604        -9.0506
  70   2.0000      -0.323606        -8.8058
  71   2.0000      -0.314188        -8.5495
  72   2.0000      -0.304994        -8.2993
  73   2.0000      -0.288225        -7.8430
  74   2.0000      -0.276642        -7.5278
  75   2.0000      -0.274507        -7.4697
  76   2.0000      -0.258395        -7.0313
  77   0.0000      -0.164250        -4.4695
  78   0.0000      -0.076956        -2.0941
  79   0.0000      -0.032230        -0.8770
  80   0.0000      -0.009156        -0.2491
  81   0.0000       0.062113         1.6902

MULLIKEN ATOMIC CHARGES
-----------------------
   0 Pd:    0.445699
   1 O :   -0.525900
   2 C :    0.585180
   3 O :   -0.384699
   4 C :   -0.750952
   5 H :    0.235972
   6 H :    0.254103
   7 H :    0.249647
   8 N :   -0.463101
   9 C :   -0.535460
  10 H :    0.313353
  11 H :    0.205751
  12 H :    0.253884
  13 C :   -0.549251
  14 H :    0.285459
  15 H :    0.222320
  16 H :    0.291694
  17 C :   -0.017604
  18 C :   -0.239936
  19 C :   -0.194741
  20 C :   -0.230021
  21 C :   -0.257848
  22 C :    0.057401
  23 H :    0.248482
  24 H :    0.271904
  25 H :    0.238544
  26 H :    0.239892
  27 H :    0.016069
  28 C :   -0.324178
  29 H :    0.264717
  30 H :    0.256910
  31 O :   -0.529583
  32 C :    0.532458
  33 O :   -0.431512
  34 C :   -0.742448
  35 H :    0.226135
  36 H :    0.248641
  37 H :    0.233019
Sum of atomic charges:    0.0000000

LOEWDIN ATOMIC CHARGES
----------------------
   0 Pd:   -0.274476
   1 O :   -0.207942
   2 C :    0.168472
   3 O :   -0.149960
   4 C :   -0.384287
   5 H :    0.146425
   6 H :    0.157105
   7 H :    0.146076
   8 N :   -0.084594
   9 C :   -0.244306
  10 H :    0.166744
  11 H :    0.112323
  12 H :    0.143690
  13 C :   -0.239235
  14 H :    0.157278
  15 H :    0.118823
  16 H :    0.162940
  17 C :   -0.057252
  18 C :   -0.093732
  19 C :   -0.126244
  20 C :   -0.103114
  21 C :   -0.124130
  22 C :    0.052951
  23 H :    0.149289
  24 H :    0.163373
  25 H :    0.148973
  26 H :    0.149914
  27 H :    0.018059
  28 C :   -0.097151
  29 H :    0.154299
  30 H :    0.145817
  31 O :   -0.170165
  32 C :    0.100398
  33 O :   -0.241732
  34 C :   -0.389667
  35 H :    0.144506
  36 H :    0.136141
  37 H :    0.144393

  Mayer bond orders larger than 0.100000
B(  0-Pd,  1-O ) :   0.7574 B(  0-Pd,  3-O ) :   0.1657 B(  0-Pd,  8-N ) :   0.3711
B(  0-Pd, 22-C ) :   0.1392 B(  0-Pd, 27-H ) :   0.1283 B(  0-Pd, 31-O ) :   0.6654
B(  1-O ,  2-C ) :   1.1431 B(  2-C ,  3-O ) :   1.8899 B(  2-C ,  4-C ) :   0.9338
B(  4-C ,  5-H ) :   0.9155 B(  4-C ,  6-H ) :   0.9094 B(  4-C ,  7-H ) :   0.9112
B(  8-N ,  9-C ) :   0.9278 B(  8-N , 13-C ) :   0.9204 B(  8-N , 28-C ) :   0.8849
B(  9-C , 10-H ) :   0.8652 B(  9-C , 11-H ) :   0.9065 B(  9-C , 12-H ) :   0.9134
B( 13-C , 14-H ) :   0.8891 B( 13-C , 15-H ) :   0.9057 B( 13-C , 16-H ) :   0.8904
B( 17-C , 18-C ) :   1.3663 B( 17-C , 22-C ) :   1.4183 B( 17-C , 28-C ) :   0.9417
B( 18-C , 19-C ) :   1.4606 B( 18-C , 21-C ) :   0.1016 B( 18-C , 25-H ) :   0.9033
B( 19-C , 20-C ) :   1.4206 B( 19-C , 26-H ) :   0.9100 B( 20-C , 21-C ) :   1.3879
B( 20-C , 23-H ) :   0.9019 B( 21-C , 22-C ) :   1.4692 B( 21-C , 24-H ) :   0.8973
B( 22-C , 27-H ) :   0.6639 B( 28-C , 29-H ) :   0.8985 B( 28-C , 30-H ) :   0.9123
B( 31-O , 32-C ) :   1.2719 B( 32-C , 33-O ) :   1.9255 B( 32-C , 34-C ) :   0.9148
B( 34-C , 35-H ) :   0.9207 B( 34-C , 36-H ) :   0.9071 B( 34-C , 37-H ) :   0.9227

Dispersion correction           -0.025500528
FINAL SINGLE POINT ENERGY      -988.210638479572
Dispersion correction            ... done

DIPOLE MOMENT
-------------
                                X             Y             Z
Electronic contribution:     16.41075      13.65904      -8.84142
Nuclear contribution   :    -18.63929     -14.89776      10.63764
                        -----------------------------------------
Total Dipole Moment    :     -2.22855      -1.23872       1.79622
                        -----------------------------------------
Magnitude (a.u.)       :      3.11886
Magnitude (Debye)      :      7.92750

Rotational constants in cm-1:     0.013368     0.008400     0.006545
Rotational constants in MHz :   400.761213   251.830831   196.207623

                             ****ORCA TERMINATED NORMALLY****
TOTAL RUN TIME: 0 days 0 hours 11 minutes 58 seconds 41 msec
