                         Program Version 5.0.3 -  RELEASE  -
|  1> ! EnGrad PBEh-3c
|  2> %output
|  3> xyzfile=True
|  4> end
|  5> %scf
|  6> maxiter 250
|  7> end
|  8> %output
|  9> Print[P_Hirshfeld] = 1
| 10> end
| 11> % maxcore
| 12> 4000
| 13> *xyz 0 1
| 14> Pd   0.50000019   0.36946361  -0.08370809
| 15> O    1.86058941   1.19863519   0.57344834
| 16> C    1.58243745   2.61293220   0.37111613
| 17> O    0.59095789   2.93680965  -0.24466408
| 18> C    2.74949251   3.62203918   0.62665405
| 19> H    2.27760675   4.51796869   1.03324565
| 20> H    3.21419508   3.94949243  -0.32970734
| 21> H    3.55001466   3.28944703   1.29076609
| 22> N   -1.45549009  -0.79790710  -1.11139356
| 23> C   -1.18780421  -1.96143958  -1.99462157
| 24> H   -0.56063397  -1.56292475  -2.80355291
| 25> H   -2.20136972  -2.28293361  -2.20538187
| 26> H   -0.65628137  -2.72650561  -1.40261645
| 27> C   -2.10083577   0.32701985  -1.82173704
| 28> H   -2.20396670   1.22665693  -1.16828252
| 29> H   -3.05894154  -0.08730140  -2.11187526
| 30> H   -1.45680159   0.50999410  -2.69204210
| 31> C   -1.65553859  -1.02410720   1.49353190
| 32> C   -1.54226184  -2.17546637   2.31732272
| 33> C   -1.06555532  -2.01049198   3.62025116
| 34> C   -1.11463355  -0.74748492   4.18958521
| 35> C   -1.26667138   0.41406200   3.43985295
| 36> C   -1.44728771   0.19692432   2.12085876
| 37> H   -0.86401061  -0.59565781   5.22080347
| 38> H   -1.37188363   1.39993411   3.83638412
| 39> H   -1.60834177  -3.17833047   1.88160094
| 40> H   -1.10358563  -2.85884731   4.29308282
| 41> H   -1.84856358   3.28947861   1.30923185
| 42> C   -2.24281775  -1.20537454   0.11809439
| 43> H   -3.13126956  -0.57936332   0.10839153
| 44> H   -2.51712120  -2.24814238  -0.07414241
| 45> O    2.16499815  -0.22934386  -1.26474398
| 46> C    2.16548268  -0.67101863  -2.54708956
| 47> O    1.28713434  -0.87712928  -3.46398541
| 48> C    3.68527544  -0.50620543  -2.97388207
| 49> H    3.91241777  -1.47597617  -3.39433885
| 50> H    4.49027620  -0.17869015  -2.24704048
| 51> H    3.64697547   0.11667214  -3.89191976
| 52> *
| 53>
| 54>                          ****END OF INPUT****

CARTESIAN COORDINATES (ANGSTROEM)
---------------------------------
  Pd     0.500000    0.369464   -0.083708
  O      1.860589    1.198635    0.573448
  C      1.582437    2.612932    0.371116
  O      0.590958    2.936810   -0.244664
  C      2.749493    3.622039    0.626654
  H      2.277607    4.517969    1.033246
  H      3.214195    3.949492   -0.329707
  H      3.550015    3.289447    1.290766
  N     -1.455490   -0.797907   -1.111394
  C     -1.187804   -1.961440   -1.994622
  H     -0.560634   -1.562925   -2.803553
  H     -2.201370   -2.282934   -2.205382
  H     -0.656281   -2.726506   -1.402616
  C     -2.100836    0.327020   -1.821737
  H     -2.203967    1.226657   -1.168283
  H     -3.058942   -0.087301   -2.111875
  H     -1.456802    0.509994   -2.692042
  C     -1.655539   -1.024107    1.493532
  C     -1.542262   -2.175466    2.317323
  C     -1.065555   -2.010492    3.620251
  C     -1.114634   -0.747485    4.189585
  C     -1.266671    0.414062    3.439853
  C     -1.447288    0.196924    2.120859
  H     -0.864011   -0.595658    5.220803
  H     -1.371884    1.399934    3.836384
  H     -1.608342   -3.178330    1.881601
  H     -1.103586   -2.858847    4.293083
  H     -1.848564    3.289479    1.309232
  C     -2.242818   -1.205375    0.118094
  H     -3.131270   -0.579363    0.108392
  H     -2.517121   -2.248142   -0.074142
  O      2.164998   -0.229344   -1.264744
  C      2.165483   -0.671019   -2.547090
  O      1.287134   -0.877129   -3.463985
  C      3.685275   -0.506205   -2.973882
  H      3.912418   -1.475976   -3.394339
  H      4.490276   -0.178690   -2.247040
  H      3.646975    0.116672   -3.891920

 Total Charge           Charge          ....    0
 Multiplicity           Mult            ....    1
 Number of Electrons    NEL             ....  154
 Basis Dimension        Dim             ....  339

ORBITAL ENERGIES
----------------

  NO   OCC          E(Eh)            E(eV)
   0   2.0000     -19.514263      -531.0101
   1   2.0000     -19.496851      -530.5363
   2   2.0000     -19.474682      -529.9330
   3   2.0000     -19.444039      -529.0992
   4   2.0000     -14.683471      -399.5576
   5   2.0000     -10.584413      -288.0165
   6   2.0000     -10.547566      -287.0139
   7   2.0000     -10.533574      -286.6331
   8   2.0000     -10.510156      -285.9959
   9   2.0000     -10.503641      -285.8186
  10   2.0000     -10.495822      -285.6058
  11   2.0000     -10.489804      -285.4421
  12   2.0000     -10.487501      -285.3794
  13   2.0000     -10.483903      -285.2815
  14   2.0000     -10.472658      -284.9755
  15   2.0000     -10.460828      -284.6536
  16   2.0000     -10.453358      -284.4503
  17   2.0000     -10.412043      -283.3261
  18   2.0000      -3.660006       -99.5938
  19   2.0000      -2.322366       -63.1948
  20   2.0000      -2.292301       -62.3767
  21   2.0000      -2.274809       -61.9007
  22   2.0000      -1.182578       -32.1796
  23   2.0000      -1.101102       -29.9625
  24   2.0000      -1.075604       -29.2687
  25   2.0000      -1.044248       -28.4154
  26   2.0000      -1.031818       -28.0772
  27   2.0000      -1.002797       -27.2875
  28   2.0000      -0.900726       -24.5100
  29   2.0000      -0.875066       -23.8118
  30   2.0000      -0.819965       -22.3124
  31   2.0000      -0.806105       -21.9352
  32   2.0000      -0.801812       -21.8184
  33   2.0000      -0.768451       -20.9106
  34   2.0000      -0.719480       -19.5780
  35   2.0000      -0.706166       -19.2158
  36   2.0000      -0.671364       -18.2687
  37   2.0000      -0.630907       -17.1679
  38   2.0000      -0.609552       -16.5868
  39   2.0000      -0.579960       -15.7815
  40   2.0000      -0.570846       -15.5335
  41   2.0000      -0.558665       -15.2021
  42   2.0000      -0.550274       -14.9737
  43   2.0000      -0.549462       -14.9516
  44   2.0000      -0.542119       -14.7518
  45   2.0000      -0.526364       -14.3231
  46   2.0000      -0.524423       -14.2703
  47   2.0000      -0.515497       -14.0274
  48   2.0000      -0.497152       -13.5282
  49   2.0000      -0.489843       -13.3293
  50   2.0000      -0.479918       -13.0592
  51   2.0000      -0.475497       -12.9389
  52   2.0000      -0.467411       -12.7189
  53   2.0000      -0.465525       -12.6676
  54   2.0000      -0.462080       -12.5738
  55   2.0000      -0.459848       -12.5131
  56   2.0000      -0.448038       -12.1917
  57   2.0000      -0.446696       -12.1552
  58   2.0000      -0.438607       -11.9351
  59   2.0000      -0.434374       -11.8199
  60   2.0000      -0.430673       -11.7192
  61   2.0000      -0.426645       -11.6096
  62   2.0000      -0.418746       -11.3947
  63   2.0000      -0.398311       -10.8386
  64   2.0000      -0.385104       -10.4792
  65   2.0000      -0.364159        -9.9093
  66   2.0000      -0.346366        -9.4251
  67   2.0000      -0.344305        -9.3690
  68   2.0000      -0.333013        -9.0617
  69   2.0000      -0.329366        -8.9625
  70   2.0000      -0.320532        -8.7221
  71   2.0000      -0.309125        -8.4117
  72   2.0000      -0.298430        -8.1207
  73   2.0000      -0.292730        -7.9656
  74   2.0000      -0.287269        -7.8170
  75   2.0000      -0.270559        -7.3623
  76   2.0000      -0.264667        -7.2020
  77   0.0000      -0.160963        -4.3800
  78   0.0000      -0.064403        -1.7525
  79   0.0000      -0.027531        -0.7491
  80   0.0000      -0.017014        -0.4630
  81   0.0000       0.026510         0.7214

MULLIKEN ATOMIC CHARGES
-----------------------
   0 Pd:    0.501032
   1 O :   -0.558880
   2 C :    0.584415
   3 O :   -0.380118
   4 C :   -0.743000
   5 H :    0.247718
   6 H :    0.265938
   7 H :    0.253914
   8 N :   -0.459054
   9 C :   -0.530262
  10 H :    0.319350
  11 H :    0.196561
  12 H :    0.233736
  13 C :   -0.527797
  14 H :    0.264581
  15 H :    0.214894
  16 H :    0.276645
  17 C :    0.021698
  18 C :   -0.256131
  19 C :   -0.192056
  20 C :   -0.239405
  21 C :   -0.249598
  22 C :    0.029192
  23 H :    0.246992
  24 H :    0.277229
  25 H :    0.244787
  26 H :    0.232602
  27 H :    0.014377
  28 C :   -0.309400
  29 H :    0.253775
  30 H :    0.238841
  31 O :   -0.511378
  32 C :    0.573851
  33 O :   -0.503814
  34 C :   -0.723489
  35 H :    0.226081
  36 H :    0.232562
  37 H :    0.233612
Sum of atomic charges:    0.0000000

LOEWDIN ATOMIC CHARGES
----------------------
   0 Pd:   -0.274298
   1 O :   -0.160366
   2 C :    0.238752
   3 O :   -0.156773
   4 C :   -0.378120
   5 H :    0.152210
   6 H :    0.165333
   7 H :    0.149212
   8 N :   -0.145200
   9 C :   -0.250901
  10 H :    0.175941
  11 H :    0.109578
  12 H :    0.136660
  13 C :   -0.240886
  14 H :    0.154328
  15 H :    0.114776
  16 H :    0.159088
  17 C :   -0.051892
  18 C :   -0.101239
  19 C :   -0.122726
  20 C :   -0.110177
  21 C :   -0.126234
  22 C :    0.061274
  23 H :    0.148508
  24 H :    0.167893
  25 H :    0.151514
  26 H :    0.149545
  27 H :    0.019796
  28 C :   -0.106979
  29 H :    0.150901
  30 H :    0.139581
  31 O :   -0.210737
  32 C :    0.201583
  33 O :   -0.338356
  34 C :   -0.394165
  35 H :    0.137117
  36 H :    0.140670
  37 H :    0.144788

  Mayer bond orders larger than 0.100000
B(  0-Pd,  1-O ) :   0.8141 B(  0-Pd,  3-O ) :   0.1517 B(  0-Pd,  8-N ) :   0.3079
B(  0-Pd, 22-C ) :   0.1732 B(  0-Pd, 27-H ) :   0.1563 B(  0-Pd, 31-O ) :   0.6233
B(  1-O ,  2-C ) :   1.0485 B(  2-C ,  3-O ) :   1.8851 B(  2-C ,  4-C ) :   0.9390
B(  4-C ,  5-H ) :   0.9071 B(  4-C ,  6-H ) :   0.9027 B(  4-C ,  7-H ) :   0.9061
B(  8-N ,  9-C ) :   0.9192 B(  8-N , 13-C ) :   0.9270 B(  8-N , 28-C ) :   0.9045
B(  9-C , 10-H ) :   0.8374 B(  9-C , 11-H ) :   0.9099 B(  9-C , 12-H ) :   0.9194
B( 13-C , 14-H ) :   0.8973 B( 13-C , 15-H ) :   0.9085 B( 13-C , 16-H ) :   0.8972
B( 17-C , 18-C ) :   1.3793 B( 17-C , 22-C ) :   1.3947 B( 17-C , 28-C ) :   0.9415
B( 18-C , 19-C ) :   1.4144 B( 18-C , 25-H ) :   0.9023 B( 19-C , 20-C ) :   1.4227
B( 19-C , 26-H ) :   0.9145 B( 20-C , 21-C ) :   1.3771 B( 20-C , 23-H ) :   0.9038
B( 21-C , 22-C ) :   1.4565 B( 21-C , 24-H ) :   0.8955 B( 22-C , 27-H ) :   0.6519
B( 28-C , 29-H ) :   0.9001 B( 28-C , 30-H ) :   0.9151 B( 31-O , 32-C ) :   1.2946
B( 31-O , 33-O ) :   0.1184 B( 32-C , 33-O ) :   1.8033 B( 32-C , 34-C ) :   0.9050
B( 34-C , 35-H ) :   0.9127 B( 34-C , 36-H ) :   0.9173 B( 34-C , 37-H ) :   0.9142

Dispersion correction           -0.025363006
FINAL SINGLE POINT ENERGY      -988.132846425108
Dispersion correction            ... done

DIPOLE MOMENT
-------------
                                X             Y             Z
Electronic contribution:     21.53543      18.21647      -1.28547
Nuclear contribution   :    -23.13944     -18.67291       3.61382
                        -----------------------------------------
Total Dipole Moment    :     -1.60401      -0.45645       2.32834
                        -----------------------------------------
Magnitude (a.u.)       :      2.86398
Magnitude (Debye)      :      7.27966

Rotational constants in cm-1:     0.013066     0.008352     0.006399
Rotational constants in MHz :   391.720363   250.395013   191.825893

                             ****ORCA TERMINATED NORMALLY****
TOTAL RUN TIME: 0 days 0 hours 11 minutes 55 seconds 786 msec
