                         Program Version 5.0.3 -  RELEASE  -
|  1> ! EnGrad PBEh-3c
|  2> %output
|  3> xyzfile=True
|  4> end
|  5> %scf
|  6> maxiter 250
|  7> end
|  8> %output
|  9> Print[P_Hirshfeld] = 1
| 10> end
| 11> % maxcore
| 12> 4000
| 13> *xyz 0 1
| 14> Pd   0.44552757   0.32574728  -0.17167651
| 15> O    1.91704905   1.26354338   0.61326598
| 16> C    1.61510001   2.61537014   0.34445193
| 17> O    0.61185961   2.89683399  -0.21203330
| 18> C    2.73965922   3.64381535   0.61244790
| 19> H    2.25987371   4.53261442   1.03014348
| 20> H    3.19154246   3.95563586  -0.33524437
| 21> H    3.52779652   3.30847810   1.27976967
| 22> N   -1.42289503  -0.76926703  -1.09046769
| 23> C   -1.20183588  -1.89015564  -2.00825155
| 24> H   -0.65203638  -1.52425105  -2.85932878
| 25> H   -2.19317808  -2.23073906  -2.28852891
| 26> H   -0.65355745  -2.66879648  -1.49363847
| 27> C   -2.11237397   0.33630786  -1.77832921
| 28> H   -2.23187842   1.21042807  -1.14138100
| 29> H   -3.07814181  -0.05687459  -2.08610258
| 30> H   -1.51844310   0.57792667  -2.65752442
| 31> C   -1.60356758  -1.03543883   1.45430188
| 32> C   -1.35832235  -2.16805389   2.28910964
| 33> C   -1.02938735  -1.99789513   3.61382323
| 34> C   -1.08774860  -0.74209175   4.17382526
| 35> C   -1.36307646   0.38908426   3.39642007
| 36> C   -1.54234597   0.17355131   2.08328088
| 37> H   -0.87592340  -0.59260803   5.22440534
| 38> H   -1.50822692   1.32704667   3.86204596
| 39> H   -1.45269990  -3.16502138   1.89716051
| 40> H   -1.00543136  -2.85254787   4.27464906
| 41> H   -1.93494029   3.38033452   1.34739215
| 42> C   -2.22547861  -1.24329029   0.12083366
| 43> H   -3.16129410  -0.69202621   0.12819374
| 44> H   -2.49099978  -2.28473710  -0.04460876
| 45> O    2.04183440  -0.33397325  -1.25402774
| 46> C    2.20157671  -0.55894622  -2.52966745
| 47> O    1.37467791  -0.63713903  -3.40303415
| 48> C    3.69906511  -0.58400477  -2.95245448
| 49> H    3.85364667  -1.60417186  -3.30065910
| 50> H    4.45672075  -0.30968748  -2.24557961
| 51> H    3.77643817   0.00366373  -3.88322825
| 52> *
| 53>
| 54>                          ****END OF INPUT****

CARTESIAN COORDINATES (ANGSTROEM)
---------------------------------
  Pd     0.445528    0.325747   -0.171677
  O      1.917049    1.263543    0.613266
  C      1.615100    2.615370    0.344452
  O      0.611860    2.896834   -0.212033
  C      2.739659    3.643815    0.612448
  H      2.259874    4.532614    1.030143
  H      3.191542    3.955636   -0.335244
  H      3.527797    3.308478    1.279770
  N     -1.422895   -0.769267   -1.090468
  C     -1.201836   -1.890156   -2.008252
  H     -0.652036   -1.524251   -2.859329
  H     -2.193178   -2.230739   -2.288529
  H     -0.653557   -2.668796   -1.493638
  C     -2.112374    0.336308   -1.778329
  H     -2.231878    1.210428   -1.141381
  H     -3.078142   -0.056875   -2.086103
  H     -1.518443    0.577927   -2.657524
  C     -1.603568   -1.035439    1.454302
  C     -1.358322   -2.168054    2.289110
  C     -1.029387   -1.997895    3.613823
  C     -1.087749   -0.742092    4.173825
  C     -1.363076    0.389084    3.396420
  C     -1.542346    0.173551    2.083281
  H     -0.875923   -0.592608    5.224405
  H     -1.508227    1.327047    3.862046
  H     -1.452700   -3.165021    1.897161
  H     -1.005431   -2.852548    4.274649
  H     -1.934940    3.380335    1.347392
  C     -2.225479   -1.243290    0.120834
  H     -3.161294   -0.692026    0.128194
  H     -2.491000   -2.284737   -0.044609
  O      2.041834   -0.333973   -1.254028
  C      2.201577   -0.558946   -2.529667
  O      1.374678   -0.637139   -3.403034
  C      3.699065   -0.584005   -2.952454
  H      3.853647   -1.604172   -3.300659
  H      4.456721   -0.309687   -2.245580
  H      3.776438    0.003664   -3.883228

 Total Charge           Charge          ....    0
 Multiplicity           Mult            ....    1
 Number of Electrons    NEL             ....  154
 Basis Dimension        Dim             ....  339

ORBITAL ENERGIES
----------------

  NO   OCC          E(Eh)            E(eV)
   0   2.0000     -19.490038      -530.3509
   1   2.0000     -19.475427      -529.9533
   2   2.0000     -19.464342      -529.6517
   3   2.0000     -19.426590      -528.6244
   4   2.0000     -14.704710      -400.1355
   5   2.0000     -10.559717      -287.3445
   6   2.0000     -10.528358      -286.4912
   7   2.0000     -10.526203      -286.4326
   8   2.0000     -10.510091      -285.9941
   9   2.0000     -10.509161      -285.9688
  10   2.0000     -10.493170      -285.5337
  11   2.0000     -10.487852      -285.3890
  12   2.0000     -10.486734      -285.3585
  13   2.0000     -10.480273      -285.1827
  14   2.0000     -10.476062      -285.0681
  15   2.0000     -10.465651      -284.7848
  16   2.0000     -10.435421      -283.9623
  17   2.0000     -10.404182      -283.1122
  18   2.0000      -3.657590       -99.5281
  19   2.0000      -2.310895       -62.8827
  20   2.0000      -2.295230       -62.4564
  21   2.0000      -2.270404       -61.7808
  22   2.0000      -1.180953       -32.1354
  23   2.0000      -1.136114       -30.9152
  24   2.0000      -1.061459       -28.8838
  25   2.0000      -1.053169       -28.6582
  26   2.0000      -1.044529       -28.4231
  27   2.0000      -1.006732       -27.3946
  28   2.0000      -0.906473       -24.6664
  29   2.0000      -0.878566       -23.9070
  30   2.0000      -0.815753       -22.1978
  31   2.0000      -0.811743       -22.0886
  32   2.0000      -0.809665       -22.0321
  33   2.0000      -0.777283       -21.1509
  34   2.0000      -0.724898       -19.7255
  35   2.0000      -0.713657       -19.4196
  36   2.0000      -0.682289       -18.5660
  37   2.0000      -0.615441       -16.7470
  38   2.0000      -0.601497       -16.3676
  39   2.0000      -0.578990       -15.7551
  40   2.0000      -0.577007       -15.7012
  41   2.0000      -0.566378       -15.4119
  42   2.0000      -0.563903       -15.3446
  43   2.0000      -0.544010       -14.8033
  44   2.0000      -0.533071       -14.5056
  45   2.0000      -0.531088       -14.4516
  46   2.0000      -0.512438       -13.9441
  47   2.0000      -0.509009       -13.8508
  48   2.0000      -0.505263       -13.7489
  49   2.0000      -0.497978       -13.5507
  50   2.0000      -0.487734       -13.2719
  51   2.0000      -0.482150       -13.1200
  52   2.0000      -0.478448       -13.0192
  53   2.0000      -0.475050       -12.9268
  54   2.0000      -0.467700       -12.7268
  55   2.0000      -0.452755       -12.3201
  56   2.0000      -0.448879       -12.2146
  57   2.0000      -0.446576       -12.1520
  58   2.0000      -0.439981       -11.9725
  59   2.0000      -0.435743       -11.8572
  60   2.0000      -0.434598       -11.8260
  61   2.0000      -0.425786       -11.5862
  62   2.0000      -0.400745       -10.9048
  63   2.0000      -0.399174       -10.8621
  64   2.0000      -0.379408       -10.3242
  65   2.0000      -0.358965        -9.7679
  66   2.0000      -0.343468        -9.3462
  67   2.0000      -0.339642        -9.2421
  68   2.0000      -0.336693        -9.1619
  69   2.0000      -0.329993        -8.9796
  70   2.0000      -0.326808        -8.8929
  71   2.0000      -0.318211        -8.6589
  72   2.0000      -0.305641        -8.3169
  73   2.0000      -0.289763        -7.8848
  74   2.0000      -0.279739        -7.6121
  75   2.0000      -0.274955        -7.4819
  76   2.0000      -0.260562        -7.0903
  77   0.0000      -0.163237        -4.4419
  78   0.0000      -0.074327        -2.0225
  79   0.0000      -0.030011        -0.8166
  80   0.0000      -0.011585        -0.3152
  81   0.0000       0.058354         1.5879

MULLIKEN ATOMIC CHARGES
-----------------------
   0 Pd:    0.453005
   1 O :   -0.533248
   2 C :    0.590644
   3 O :   -0.383674
   4 C :   -0.748932
   5 H :    0.239839
   6 H :    0.258278
   7 H :    0.251010
   8 N :   -0.458601
   9 C :   -0.532348
  10 H :    0.315267
  11 H :    0.202225
  12 H :    0.247421
  13 C :   -0.542279
  14 H :    0.278697
  15 H :    0.219631
  16 H :    0.287520
  17 C :    0.004266
  18 C :   -0.256035
  19 C :   -0.185550
  20 C :   -0.237288
  21 C :   -0.253084
  22 C :    0.045369
  23 H :    0.248160
  24 H :    0.273678
  25 H :    0.242978
  26 H :    0.235776
  27 H :    0.015457
  28 C :   -0.321581
  29 H :    0.261384
  30 H :    0.251892
  31 O :   -0.519512
  32 C :    0.547755
  33 O :   -0.462191
  34 C :   -0.739030
  35 H :    0.226883
  36 H :    0.242476
  37 H :    0.233743
Sum of atomic charges:    0.0000000

LOEWDIN ATOMIC CHARGES
----------------------
   0 Pd:   -0.276826
   1 O :   -0.191142
   2 C :    0.193144
   3 O :   -0.151927
   4 C :   -0.382439
   5 H :    0.148381
   6 H :    0.159896
   7 H :    0.147050
   8 N :   -0.102562
   9 C :   -0.244951
  10 H :    0.169435
  11 H :    0.110948
  12 H :    0.141631
  13 C :   -0.239548
  14 H :    0.156523
  15 H :    0.117290
  16 H :    0.161889
  17 C :   -0.056111
  18 C :   -0.096222
  19 C :   -0.125020
  20 C :   -0.105112
  21 C :   -0.124967
  22 C :    0.057413
  23 H :    0.149005
  24 H :    0.164529
  25 H :    0.149731
  26 H :    0.149978
  27 H :    0.018439
  28 C :   -0.100057
  29 H :    0.153131
  30 H :    0.143940
  31 O :   -0.175611
  32 C :    0.125736
  33 O :   -0.278031
  34 C :   -0.391975
  35 H :    0.142766
  36 H :    0.137169
  37 H :    0.144478

  Mayer bond orders larger than 0.100000
B(  0-Pd,  1-O ) :   0.7833 B(  0-Pd,  3-O ) :   0.1613 B(  0-Pd,  8-N ) :   0.3532
B(  0-Pd, 22-C ) :   0.1484 B(  0-Pd, 27-H ) :   0.1368 B(  0-Pd, 31-O ) :   0.6475
B(  1-O ,  2-C ) :   1.1086 B(  2-C ,  3-O ) :   1.8894 B(  2-C ,  4-C ) :   0.9363
B(  4-C ,  5-H ) :   0.9129 B(  4-C ,  6-H ) :   0.9073 B(  4-C ,  7-H ) :   0.9095
B(  8-N ,  9-C ) :   0.9256 B(  8-N , 13-C ) :   0.9229 B(  8-N , 28-C ) :   0.8904
B(  9-C , 10-H ) :   0.8577 B(  9-C , 11-H ) :   0.9075 B(  9-C , 12-H ) :   0.9156
B( 13-C , 14-H ) :   0.8919 B( 13-C , 15-H ) :   0.9066 B( 13-C , 16-H ) :   0.8924
B( 17-C , 18-C ) :   1.3713 B( 17-C , 22-C ) :   1.4123 B( 17-C , 28-C ) :   0.9403
B( 18-C , 19-C ) :   1.4509 B( 18-C , 21-C ) :   0.1003 B( 18-C , 25-H ) :   0.9015
B( 19-C , 20-C ) :   1.4177 B( 19-C , 26-H ) :   0.9127 B( 20-C , 21-C ) :   1.3889
B( 20-C , 23-H ) :   0.9023 B( 21-C , 22-C ) :   1.4633 B( 21-C , 24-H ) :   0.8969
B( 22-C , 27-H ) :   0.6623 B( 28-C , 29-H ) :   0.8991 B( 28-C , 30-H ) :   0.9134
B( 31-O , 32-C ) :   1.2957 B( 31-O , 33-O ) :   0.1051 B( 32-C , 33-O ) :   1.8853
B( 32-C , 34-C ) :   0.9096 B( 34-C , 35-H ) :   0.9184 B( 34-C , 36-H ) :   0.9112
B( 34-C , 37-H ) :   0.9202

Dispersion correction           -0.025468719
FINAL SINGLE POINT ENERGY      -988.212936476512
Dispersion correction            ... done

DIPOLE MOMENT
-------------
                                X             Y             Z
Electronic contribution:     18.03193      15.12094      -6.37901
Nuclear contribution   :    -20.08610     -16.11148       8.37947
                        -----------------------------------------
Total Dipole Moment    :     -2.05416      -0.99054       2.00046
                        -----------------------------------------
Magnitude (a.u.)       :      3.03358
Magnitude (Debye)      :      7.71074

Rotational constants in cm-1:     0.013287     0.008388     0.006501
Rotational constants in MHz :   398.326955   251.457674   194.902155

                             ****ORCA TERMINATED NORMALLY****
TOTAL RUN TIME: 0 days 0 hours 13 minutes 42 seconds 166 msec
