                         Program Version 5.0.3 -  RELEASE  -
|  1> ! EnGrad PBEh-3c
|  2> %output
|  3> xyzfile=True
|  4> end
|  5> %scf
|  6> maxiter 250
|  7> end
|  8> %output
|  9> Print[P_Hirshfeld] = 1
| 10> end
| 11> % maxcore
| 12> 4000
| 13> *xyz 1 1
| 14> Sc   1.75051552  -1.44287071  -1.40452833
| 15> C    0.38758206  -0.64524094   0.20830225
| 16> N   -0.48918322  -1.37856707   0.91936634
| 17> C   -0.83900870  -0.73671702   2.07474537
| 18> C   -0.18221673   0.44826425   2.06654728
| 19> N    0.59202462   0.47042075   0.93998113
| 20> C    1.47030313   1.57350903   0.59651105
| 21> H    1.71883441   2.21304569   1.44127342
| 22> H    0.99974946   2.20576502  -0.15194124
| 23> H    2.41665702   1.21232491   0.19927934
| 24> C   -1.00806288  -2.69060555   0.56495363
| 25> H   -0.54739604  -3.04470890  -0.35451079
| 26> H   -2.08292313  -2.63713697   0.40685003
| 27> H   -0.79133060  -3.40672374   1.35478930
| 28> H   -1.51662400  -1.15439163   2.80048993
| 29> H   -0.21750561   1.24040890   2.79506422
| 30> C   -0.37673924   1.65116408  -2.82368458
| 31> H   -1.12699299   1.50065419  -3.60473075
| 32> H   -0.05624709   2.68848736  -2.91317023
| 33> H   -0.87144628   1.47612927  -1.86919273
| 34> H    0.77003349   0.45680268  -3.24640146
| 35> *
| 36>
| 37>                          ****END OF INPUT****

CARTESIAN COORDINATES (ANGSTROEM)
---------------------------------
  Sc     1.750516   -1.442871   -1.404528
  C      0.387582   -0.645241    0.208302
  N     -0.489183   -1.378567    0.919366
  C     -0.839009   -0.736717    2.074745
  C     -0.182217    0.448264    2.066547
  N      0.592025    0.470421    0.939981
  C      1.470303    1.573509    0.596511
  H      1.718834    2.213046    1.441273
  H      0.999749    2.205765   -0.151941
  H      2.416657    1.212325    0.199279
  C     -1.008063   -2.690606    0.564954
  H     -0.547396   -3.044709   -0.354511
  H     -2.082923   -2.637137    0.406850
  H     -0.791331   -3.406724    1.354789
  H     -1.516624   -1.154392    2.800490
  H     -0.217506    1.240409    2.795064
  C     -0.376739    1.651164   -2.823685
  H     -1.126993    1.500654   -3.604731
  H     -0.056247    2.688487   -2.913170
  H     -0.871446    1.476129   -1.869193
  H      0.770033    0.456803   -3.246401

 Total Charge           Charge          ....    1
 Multiplicity           Mult            ....    1
 Number of Electrons    NEL             ....   82
 Basis Dimension        Dim             ....  175

ORBITAL ENERGIES
----------------

  NO   OCC          E(Eh)            E(eV)
   0   2.0000    -162.910274     -4433.0139
   1   2.0000     -18.220546      -495.8062
   2   2.0000     -15.061561      -409.8459
   3   2.0000     -15.059379      -409.7865
   4   2.0000     -15.045238      -409.4017
   5   2.0000     -14.870166      -404.6378
   6   2.0000     -14.869682      -404.6246
   7   2.0000     -10.650455      -289.8136
   8   2.0000     -10.632276      -289.3189
   9   2.0000     -10.630188      -289.2621
  10   2.0000     -10.622451      -289.0516
  11   2.0000     -10.622390      -289.0499
  12   2.0000     -10.588480      -288.1272
  13   2.0000      -2.427702       -66.0611
  14   2.0000      -1.574781       -42.8520
  15   2.0000      -1.568946       -42.6932
  16   2.0000      -1.558282       -42.4030
  17   2.0000      -1.316085       -35.8125
  18   2.0000      -1.193589       -32.4792
  19   2.0000      -1.027362       -27.9559
  20   2.0000      -0.985563       -26.8185
  21   2.0000      -0.929995       -25.3065
  22   2.0000      -0.879515       -23.9328
  23   2.0000      -0.847839       -23.0709
  24   2.0000      -0.808983       -22.0135
  25   2.0000      -0.755836       -20.5673
  26   2.0000      -0.707247       -19.2452
  27   2.0000      -0.679316       -18.4851
  28   2.0000      -0.664319       -18.0770
  29   2.0000      -0.659207       -17.9379
  30   2.0000      -0.652493       -17.7552
  31   2.0000      -0.603821       -16.4308
  32   2.0000      -0.600178       -16.3317
  33   2.0000      -0.593444       -16.1484
  34   2.0000      -0.579911       -15.7802
  35   2.0000      -0.565492       -15.3878
  36   2.0000      -0.522462       -14.2169
  37   2.0000      -0.491140       -13.3646
  38   2.0000      -0.487478       -13.2650
  39   2.0000      -0.439415       -11.9571
  40   2.0000      -0.325382        -8.8541
  41   0.0000      -0.189034        -5.1439
  42   0.0000      -0.184353        -5.0165
  43   0.0000      -0.182323        -4.9613
  44   0.0000      -0.171842        -4.6761
  45   0.0000      -0.167402        -4.5553

MULLIKEN ATOMIC CHARGES
-----------------------
   0 Sc:    0.497465
   1 C :    0.214901
   2 N :   -0.411299
   3 C :   -0.062966
   4 C :   -0.065248
   5 N :   -0.420012
   6 C :   -0.528872
   7 H :    0.283422
   8 H :    0.280008
   9 H :    0.260920
  10 C :   -0.518074
  11 H :    0.253832
  12 H :    0.283081
  13 H :    0.277204
  14 H :    0.306124
  15 H :    0.305936
  16 C :   -0.769428
  17 H :    0.271973
  18 H :    0.259248
  19 H :    0.227753
  20 H :    0.054032
Sum of atomic charges:    1.0000000

LOEWDIN ATOMIC CHARGES
----------------------
   0 Sc:    0.339895
   1 C :   -0.045438
   2 N :    0.011032
   3 C :   -0.081081
   4 C :   -0.075655
   5 N :    0.008301
   6 C :   -0.241325
   7 H :    0.159587
   8 H :    0.152858
   9 H :    0.151175
  10 C :   -0.237306
  11 H :    0.150045
  12 H :    0.156731
  13 H :    0.155467
  14 H :    0.170219
  15 H :    0.169247
  16 C :   -0.453801
  17 H :    0.150585
  18 H :    0.148829
  19 H :    0.132442
  20 H :    0.078193

  Mayer bond orders larger than 0.100000
B(  0-Sc,  1-C ) :   0.7008 B(  0-Sc, 16-C ) :   0.1139 B(  0-Sc, 20-H ) :   0.1251
B(  1-C ,  2-N ) :   1.2265 B(  1-C ,  5-N ) :   1.2180 B(  2-N ,  3-C ) :   1.1581
B(  2-N , 10-C ) :   0.9085 B(  3-C ,  4-C ) :   1.6249 B(  3-C , 14-H ) :   0.8768
B(  4-C ,  5-N ) :   1.1549 B(  4-C , 15-H ) :   0.8772 B(  5-N ,  6-C ) :   0.9103
B(  6-C ,  7-H ) :   0.8997 B(  6-C ,  8-H ) :   0.8883 B(  6-C ,  9-H ) :   0.8936
B( 10-C , 11-H ) :   0.8934 B( 10-C , 12-H ) :   0.8916 B( 10-C , 13-H ) :   0.8955
B( 16-C , 17-H ) :   0.9041 B( 16-C , 18-H ) :   0.9077 B( 16-C , 19-H ) :   0.9112
B( 16-C , 20-H ) :   0.8573

Dispersion correction           -0.011238317
FINAL SINGLE POINT ENERGY     -1104.357358546599
Dispersion correction            ... done

DIPOLE MOMENT
-------------
                                X             Y             Z
Electronic contribution:     10.16370     -11.11935      -1.25109
Nuclear contribution   :     -9.96476      10.86743       1.36877
                        -----------------------------------------
Total Dipole Moment    :      0.19894      -0.25191       0.11769
                        -----------------------------------------
Magnitude (a.u.)       :      0.34189
Magnitude (Debye)      :      0.86902

Rotational constants in cm-1:     0.039317     0.030007     0.023117
Rotational constants in MHz :  1178.701254   899.579192   693.027582

                             ****ORCA TERMINATED NORMALLY****
TOTAL RUN TIME: 0 days 0 hours 4 minutes 28 seconds 32 msec
