                         Program Version 5.0.3 -  RELEASE  -
|  1> ! EnGrad PBEh-3c
|  2> %output
|  3> xyzfile=True
|  4> end
|  5> %scf
|  6> maxiter 250
|  7> end
|  8> %output
|  9> Print[P_Hirshfeld] = 1
| 10> end
| 11> % maxcore
| 12> 4000
| 13> *xyz 1 1
| 14> Sc   1.71353563  -1.36728450  -1.45087285
| 15> C    0.41267286  -0.64387725   0.21578678
| 16> N   -0.48631795  -1.37276305   0.92708912
| 17> C   -0.82910226  -0.72998820   2.07491931
| 18> C   -0.17330180   0.42435910   2.10693118
| 19> N    0.56466355   0.48574013   0.97031239
| 20> C    1.46590215   1.60800670   0.57927861
| 21> H    1.65333624   2.23314418   1.46006703
| 22> H    1.00589642   2.19524497  -0.17068006
| 23> H    2.41904940   1.22518627   0.25241193
| 24> C   -1.00242712  -2.68195600   0.55777281
| 25> H   -0.56013552  -3.01926811  -0.37208521
| 26> H   -2.08009040  -2.63975359   0.43103371
| 27> H   -0.76065427  -3.40868277   1.33503909
| 28> H   -1.49530944  -1.17227527   2.81343474
| 29> H   -0.18799908   1.22257597   2.82498691
| 30> C   -0.28528284   1.51497464  -2.93470174
| 31> H   -1.07006369   1.53355538  -3.62398477
| 32> H    0.10198596   2.62520539  -2.92861022
| 33> H   -0.81929275   1.49905203  -1.88818817
| 34> H    0.41365468   0.47057805  -3.18074498
| 35> *
| 36>
| 37>                          ****END OF INPUT****

CARTESIAN COORDINATES (ANGSTROEM)
---------------------------------
  Sc     1.713536   -1.367285   -1.450873
  C      0.412673   -0.643877    0.215787
  N     -0.486318   -1.372763    0.927089
  C     -0.829102   -0.729988    2.074919
  C     -0.173302    0.424359    2.106931
  N      0.564664    0.485740    0.970312
  C      1.465902    1.608007    0.579279
  H      1.653336    2.233144    1.460067
  H      1.005896    2.195245   -0.170680
  H      2.419049    1.225186    0.252412
  C     -1.002427   -2.681956    0.557773
  H     -0.560136   -3.019268   -0.372085
  H     -2.080090   -2.639754    0.431034
  H     -0.760654   -3.408683    1.335039
  H     -1.495309   -1.172275    2.813435
  H     -0.187999    1.222576    2.824987
  C     -0.285283    1.514975   -2.934702
  H     -1.070064    1.533555   -3.623985
  H      0.101986    2.625205   -2.928610
  H     -0.819293    1.499052   -1.888188
  H      0.413655    0.470578   -3.180745

 Total Charge           Charge          ....    1
 Multiplicity           Mult            ....    1
 Number of Electrons    NEL             ....   82
 Basis Dimension        Dim             ....  175

ORBITAL ENERGIES
----------------

  NO   OCC          E(Eh)            E(eV)
   0   2.0000    -162.909634     -4432.9965
   1   2.0000     -18.220225      -495.7975
   2   2.0000     -15.061139      -409.8344
   3   2.0000     -15.059336      -409.7854
   4   2.0000     -15.044586      -409.3840
   5   2.0000     -14.870366      -404.6432
   6   2.0000     -14.869029      -404.6069
   7   2.0000     -10.652439      -289.8676
   8   2.0000     -10.630475      -289.2699
   9   2.0000     -10.628466      -289.2153
  10   2.0000     -10.623957      -289.0926
  11   2.0000     -10.622283      -289.0470
  12   2.0000     -10.569103      -287.5999
  13   2.0000      -2.428496       -66.0827
  14   2.0000      -1.575611       -42.8745
  15   2.0000      -1.570208       -42.7275
  16   2.0000      -1.558990       -42.4223
  17   2.0000      -1.314805       -35.7777
  18   2.0000      -1.188054       -32.3286
  19   2.0000      -1.030401       -28.0386
  20   2.0000      -0.982458       -26.7340
  21   2.0000      -0.932665       -25.3791
  22   2.0000      -0.877417       -23.8757
  23   2.0000      -0.843214       -22.9450
  24   2.0000      -0.812518       -22.1097
  25   2.0000      -0.755430       -20.5563
  26   2.0000      -0.706576       -19.2269
  27   2.0000      -0.673352       -18.3228
  28   2.0000      -0.661471       -17.9995
  29   2.0000      -0.660783       -17.9808
  30   2.0000      -0.650007       -17.6876
  31   2.0000      -0.608592       -16.5606
  32   2.0000      -0.600425       -16.3384
  33   2.0000      -0.599502       -16.3133
  34   2.0000      -0.569000       -15.4833
  35   2.0000      -0.557853       -15.1799
  36   2.0000      -0.530281       -14.4297
  37   2.0000      -0.526145       -14.3171
  38   2.0000      -0.493248       -13.4220
  39   2.0000      -0.441567       -12.0156
  40   2.0000      -0.329080        -8.9547
  41   0.0000      -0.189381        -5.1533
  42   0.0000      -0.184867        -5.0305
  43   0.0000      -0.184509        -5.0207
  44   0.0000      -0.173373        -4.7177
  45   0.0000      -0.169106        -4.6016

MULLIKEN ATOMIC CHARGES
-----------------------
   0 Sc:    0.509822
   1 C :    0.204694
   2 N :   -0.412784
   3 C :   -0.057160
   4 C :   -0.055247
   5 N :   -0.436677
   6 C :   -0.513144
   7 H :    0.274872
   8 H :    0.285856
   9 H :    0.263405
  10 C :   -0.518718
  11 H :    0.254748
  12 H :    0.283720
  13 H :    0.276226
  14 H :    0.303350
  15 H :    0.304518
  16 C :   -0.857763
  17 H :    0.291759
  18 H :    0.239718
  19 H :    0.199848
  20 H :    0.158956
Sum of atomic charges:    1.0000000

LOEWDIN ATOMIC CHARGES
----------------------
   0 Sc:    0.353067
   1 C :   -0.043232
   2 N :    0.012542
   3 C :   -0.081766
   4 C :   -0.075640
   5 N :    0.002690
   6 C :   -0.230771
   7 H :    0.157881
   8 H :    0.153119
   9 H :    0.152035
  10 C :   -0.237426
  11 H :    0.150066
  12 H :    0.157185
  13 H :    0.155086
  14 H :    0.170722
  15 H :    0.169209
  16 C :   -0.515639
  17 H :    0.147682
  18 H :    0.150397
  19 H :    0.125202
  20 H :    0.127592

  Mayer bond orders larger than 0.100000
B(  0-Sc,  1-C ) :   0.7001 B(  1-C ,  2-N ) :   1.2242 B(  1-C ,  5-N ) :   1.2165
B(  2-N ,  3-C ) :   1.1653 B(  2-N , 10-C ) :   0.9091 B(  3-C ,  4-C ) :   1.6124
B(  3-C , 14-H ) :   0.8787 B(  4-C ,  5-N ) :   1.1642 B(  4-C , 15-H ) :   0.8786
B(  5-N ,  6-C ) :   0.8951 B(  6-C ,  7-H ) :   0.9056 B(  6-C ,  8-H ) :   0.8866
B(  6-C ,  9-H ) :   0.8945 B( 10-C , 11-H ) :   0.8945 B( 10-C , 12-H ) :   0.8916
B( 10-C , 13-H ) :   0.8958 B( 16-C , 17-H ) :   0.8899 B( 16-C , 18-H ) :   0.9230
B( 16-C , 19-H ) :   0.9287 B( 16-C , 20-H ) :   0.9028

Dispersion correction           -0.010850832
FINAL SINGLE POINT ENERGY     -1104.410778903037
Dispersion correction            ... done

DIPOLE MOMENT
-------------
                                X             Y             Z
Electronic contribution:     10.19972     -10.81745      -1.61325
Nuclear contribution   :     -9.90891      10.54210       1.72147
                        -----------------------------------------
Total Dipole Moment    :      0.29081      -0.27535       0.10822
                        -----------------------------------------
Magnitude (a.u.)       :      0.41485
Magnitude (Debye)      :      1.05446

Rotational constants in cm-1:     0.041045     0.029575     0.023042
Rotational constants in MHz :  1230.496650   886.650144   690.774434

                             ****ORCA TERMINATED NORMALLY****
TOTAL RUN TIME: 0 days 0 hours 4 minutes 52 seconds 281 msec
