                         Program Version 5.0.3 -  RELEASE  -
|  1> ! EnGrad PBEh-3c
|  2> %output
|  3> xyzfile=True
|  4> end
|  5> %scf
|  6> maxiter 250
|  7> end
|  8> %output
|  9> Print[P_Hirshfeld] = 1
| 10> end
| 11> % maxcore
| 12> 4000
| 13> *xyz 1 1
| 14> Sc   1.67793590  -1.29719512  -1.49592634
| 15> C    0.42083606  -0.63119571   0.23899977
| 16> N   -0.47566120  -1.36697421   0.92262659
| 17> C   -0.83761442  -0.75251110   2.09042360
| 18> C   -0.15605241   0.42667012   2.14024153
| 19> N    0.56339821   0.50044973   0.97304938
| 20> C    1.45171381   1.62097719   0.59774373
| 21> H    1.59227876   2.25462052   1.47040163
| 22> H    1.00518317   2.19469273  -0.20087301
| 23> H    2.42603878   1.23703727   0.30144493
| 24> C   -0.99640605  -2.67483528   0.55718185
| 25> H   -0.57195950  -2.99459596  -0.39130889
| 26> H   -2.07825720  -2.64195567   0.45380481
| 27> H   -0.73154451  -3.40988604   1.31456117
| 28> H   -1.47124727  -1.18671543   2.82125153
| 29> H   -0.16179087   1.20498503   2.85683013
| 30> C   -0.20637279   1.42516193  -2.96962941
| 31> H   -1.04054373   1.56387880  -3.66408309
| 32> H    0.24766797   2.52556125  -2.95179809
| 33> H   -0.76081037   1.51568725  -1.93867551
| 34> H    0.10485127   0.48958313  -3.12796377
| 35> *
| 36>
| 37>                          ****END OF INPUT****

CARTESIAN COORDINATES (ANGSTROEM)
---------------------------------
  Sc     1.677936   -1.297195   -1.495926
  C      0.420836   -0.631196    0.239000
  N     -0.475661   -1.366974    0.922627
  C     -0.837614   -0.752511    2.090424
  C     -0.156052    0.426670    2.140242
  N      0.563398    0.500450    0.973049
  C      1.451714    1.620977    0.597744
  H      1.592279    2.254621    1.470402
  H      1.005183    2.194693   -0.200873
  H      2.426039    1.237037    0.301445
  C     -0.996406   -2.674835    0.557182
  H     -0.571959   -2.994596   -0.391309
  H     -2.078257   -2.641956    0.453805
  H     -0.731545   -3.409886    1.314561
  H     -1.471247   -1.186715    2.821252
  H     -0.161791    1.204985    2.856830
  C     -0.206373    1.425162   -2.969629
  H     -1.040544    1.563879   -3.664083
  H      0.247668    2.525561   -2.951798
  H     -0.760810    1.515687   -1.938676
  H      0.104851    0.489583   -3.127964

 Total Charge           Charge          ....    1
 Multiplicity           Mult            ....    1
 Number of Electrons    NEL             ....   82
 Basis Dimension        Dim             ....  175

ORBITAL ENERGIES
----------------

  NO   OCC          E(Eh)            E(eV)
   0   2.0000    -162.908271     -4432.9594
   1   2.0000     -18.218734      -495.7570
   2   2.0000     -15.059795      -409.7979
   3   2.0000     -15.057728      -409.7416
   4   2.0000     -15.043080      -409.3430
   5   2.0000     -14.871412      -404.6717
   6   2.0000     -14.869588      -404.6221
   7   2.0000     -10.651492      -289.8418
   8   2.0000     -10.634140      -289.3697
   9   2.0000     -10.630898      -289.2814
  10   2.0000     -10.625529      -289.1353
  11   2.0000     -10.622433      -289.0511
  12   2.0000     -10.549682      -287.0715
  13   2.0000      -2.427402       -66.0530
  14   2.0000      -1.575183       -42.8629
  15   2.0000      -1.568647       -42.6850
  16   2.0000      -1.557824       -42.3906
  17   2.0000      -1.313227       -35.7347
  18   2.0000      -1.189832       -32.3770
  19   2.0000      -1.025953       -27.9176
  20   2.0000      -0.985325       -26.8121
  21   2.0000      -0.930270       -25.3139
  22   2.0000      -0.899157       -24.4673
  23   2.0000      -0.848887       -23.0994
  24   2.0000      -0.807828       -21.9821
  25   2.0000      -0.755941       -20.5702
  26   2.0000      -0.705914       -19.2089
  27   2.0000      -0.681295       -18.5390
  28   2.0000      -0.661959       -18.0128
  29   2.0000      -0.660277       -17.9671
  30   2.0000      -0.652312       -17.7503
  31   2.0000      -0.623653       -16.9704
  32   2.0000      -0.606049       -16.4914
  33   2.0000      -0.602878       -16.4051
  34   2.0000      -0.596162       -16.2224
  35   2.0000      -0.547258       -14.8916
  36   2.0000      -0.526245       -14.3199
  37   2.0000      -0.517959       -14.0944
  38   2.0000      -0.492379       -13.3983
  39   2.0000      -0.439073       -11.9478
  40   2.0000      -0.328957        -8.9514
  41   0.0000      -0.188161        -5.1201
  42   0.0000      -0.184168        -5.0115
  43   0.0000      -0.183521        -4.9939
  44   0.0000      -0.172103        -4.6832
  45   0.0000      -0.168674        -4.5899

MULLIKEN ATOMIC CHARGES
-----------------------
   0 Sc:    0.509667
   1 C :    0.213209
   2 N :   -0.414194
   3 C :   -0.059334
   4 C :   -0.065132
   5 N :   -0.430856
   6 C :   -0.511921
   7 H :    0.276137
   8 H :    0.278765
   9 H :    0.263445
  10 C :   -0.519926
  11 H :    0.254580
  12 H :    0.283598
  13 H :    0.277745
  14 H :    0.306785
  15 H :    0.305566
  16 C :   -0.931039
  17 H :    0.280333
  18 H :    0.250778
  19 H :    0.198296
  20 H :    0.233499
Sum of atomic charges:    1.0000000

LOEWDIN ATOMIC CHARGES
----------------------
   0 Sc:    0.363289
   1 C :   -0.047043
   2 N :    0.013472
   3 C :   -0.079114
   4 C :   -0.070358
   5 N :    0.001924
   6 C :   -0.233023
   7 H :    0.157471
   8 H :    0.153024
   9 H :    0.152682
  10 C :   -0.237626
  11 H :    0.149980
  12 H :    0.157595
  13 H :    0.155135
  14 H :    0.168738
  15 H :    0.166838
  16 C :   -0.545384
  17 H :    0.155661
  18 H :    0.162519
  19 H :    0.125406
  20 H :    0.128813

  Mayer bond orders larger than 0.100000
B(  0-Sc,  1-C ) :   0.6999 B(  1-C ,  2-N ) :   1.2294 B(  1-C ,  5-N ) :   1.2183
B(  2-N ,  3-C ) :   1.1630 B(  2-N , 10-C ) :   0.9090 B(  3-C ,  4-C ) :   1.6180
B(  3-C , 14-H ) :   0.8767 B(  4-C ,  5-N ) :   1.1621 B(  4-C , 15-H ) :   0.8776
B(  5-N ,  6-C ) :   0.8970 B(  6-C ,  7-H ) :   0.9041 B(  6-C ,  8-H ) :   0.8894
B(  6-C ,  9-H ) :   0.8942 B( 10-C , 11-H ) :   0.8956 B( 10-C , 12-H ) :   0.8919
B( 10-C , 13-H ) :   0.8946 B( 16-C , 17-H ) :   0.9048 B( 16-C , 18-H ) :   0.9238
B( 16-C , 19-H ) :   0.9367 B( 16-C , 20-H ) :   0.8991

Dispersion correction           -0.010888643
FINAL SINGLE POINT ENERGY     -1104.413042655442
Dispersion correction            ... done

DIPOLE MOMENT
-------------
                                X             Y             Z
Electronic contribution:     10.10104     -10.43737      -1.84792
Nuclear contribution   :     -9.84159      10.20262       1.91295
                        -----------------------------------------
Total Dipole Moment    :      0.25945      -0.23475       0.06503
                        -----------------------------------------
Magnitude (a.u.)       :      0.35588
Magnitude (Debye)      :      0.90457

Rotational constants in cm-1:     0.042586     0.029381     0.022962
Rotational constants in MHz :  1276.688639   880.826041   688.371484

                             ****ORCA TERMINATED NORMALLY****
TOTAL RUN TIME: 0 days 0 hours 5 minutes 1 seconds 618 msec
