                         Program Version 5.0.3 -  RELEASE  -
|  1> ! EnGrad PBEh-3c
|  2> %output
|  3> xyzfile=True
|  4> end
|  5> %scf
|  6> maxiter 250
|  7> end
|  8> %output
|  9> Print[P_Hirshfeld] = 1
| 10> end
| 11> % maxcore
| 12> 4000
| 13> *xyz 1 1
| 14> Sc   1.66972603  -1.27701868  -1.50841144
| 15> C    0.41943842  -0.62178179   0.25010615
| 16> N   -0.47341109  -1.36709401   0.92661487
| 17> C   -0.82669433  -0.74640549   2.09002080
| 18> C   -0.15531578   0.41498061   2.13192560
| 19> N    0.57307065   0.50277506   0.97291078
| 20> C    1.44155991   1.61511874   0.61178813
| 21> H    1.57380217   2.26103131   1.47274368
| 22> H    1.00418753   2.19663099  -0.21298410
| 23> H    2.42755084   1.24062963   0.31480684
| 24> C   -0.99247135  -2.67371543   0.55576721
| 25> H   -0.57547232  -2.98685739  -0.39711406
| 26> H   -2.07783442  -2.64129057   0.46054302
| 27> H   -0.72289907  -3.40992483   1.30877637
| 28> H   -1.47224779  -1.19586428   2.82817795
| 29> H   -0.15413299   1.20770950   2.87449839
| 30> C   -0.24400757   1.50717219  -2.93668961
| 31> H   -1.03024175   1.57095145  -3.67612708
| 32> H    0.30027144   2.44623851  -2.96836174
| 33> H   -0.72734576   1.50711218  -1.98090833
| 34> H    0.04465797   0.45398241  -3.12028373
| 35> *
| 36>
| 37>                          ****END OF INPUT****

CARTESIAN COORDINATES (ANGSTROEM)
---------------------------------
  Sc     1.669726   -1.277019   -1.508411
  C      0.419438   -0.621782    0.250106
  N     -0.473411   -1.367094    0.926615
  C     -0.826694   -0.746405    2.090021
  C     -0.155316    0.414981    2.131926
  N      0.573071    0.502775    0.972911
  C      1.441560    1.615119    0.611788
  H      1.573802    2.261031    1.472744
  H      1.004188    2.196631   -0.212984
  H      2.427551    1.240630    0.314807
  C     -0.992471   -2.673715    0.555767
  H     -0.575472   -2.986857   -0.397114
  H     -2.077834   -2.641291    0.460543
  H     -0.722899   -3.409925    1.308776
  H     -1.472248   -1.195864    2.828178
  H     -0.154133    1.207709    2.874498
  C     -0.244008    1.507172   -2.936690
  H     -1.030242    1.570951   -3.676127
  H      0.300271    2.446239   -2.968362
  H     -0.727346    1.507112   -1.980908
  H      0.044658    0.453982   -3.120284

 Total Charge           Charge          ....    1
 Multiplicity           Mult            ....    1
 Number of Electrons    NEL             ....   82
 Basis Dimension        Dim             ....  175

ORBITAL ENERGIES
----------------

  NO   OCC          E(Eh)            E(eV)
   0   2.0000    -162.907118     -4432.9280
   1   2.0000     -18.217417      -495.7211
   2   2.0000     -15.058627      -409.7661
   3   2.0000     -15.056169      -409.6992
   4   2.0000     -15.041897      -409.3108
   5   2.0000     -14.870116      -404.6364
   6   2.0000     -14.869332      -404.6151
   7   2.0000     -10.650683      -289.8198
   8   2.0000     -10.633059      -289.3402
   9   2.0000     -10.629654      -289.2476
  10   2.0000     -10.626759      -289.1688
  11   2.0000     -10.622676      -289.0577
  12   2.0000     -10.539695      -286.7997
  13   2.0000      -2.426098       -66.0175
  14   2.0000      -1.574391       -42.8414
  15   2.0000      -1.566751       -42.6335
  16   2.0000      -1.556629       -42.3580
  17   2.0000      -1.317652       -35.8551
  18   2.0000      -1.193863       -32.4867
  19   2.0000      -1.029737       -28.0206
  20   2.0000      -0.985905       -26.8278
  21   2.0000      -0.930234       -25.3130
  22   2.0000      -0.905530       -24.6407
  23   2.0000      -0.848329       -23.0842
  24   2.0000      -0.809163       -22.0184
  25   2.0000      -0.754648       -20.5350
  26   2.0000      -0.707994       -19.2655
  27   2.0000      -0.678542       -18.4641
  28   2.0000      -0.661326       -17.9956
  29   2.0000      -0.659419       -17.9437
  30   2.0000      -0.655060       -17.8251
  31   2.0000      -0.609765       -16.5926
  32   2.0000      -0.606436       -16.5020
  33   2.0000      -0.602615       -16.3980
  34   2.0000      -0.594556       -16.1787
  35   2.0000      -0.566688       -15.4204
  36   2.0000      -0.536896       -14.6097
  37   2.0000      -0.522502       -14.2180
  38   2.0000      -0.491619       -13.3776
  39   2.0000      -0.441394       -12.0109
  40   2.0000      -0.327519        -8.9122
  41   0.0000      -0.187183        -5.0935
  42   0.0000      -0.182946        -4.9782
  43   0.0000      -0.182638        -4.9698
  44   0.0000      -0.170614        -4.6426
  45   0.0000      -0.167766        -4.5651

MULLIKEN ATOMIC CHARGES
-----------------------
   0 Sc:    0.502867
   1 C :    0.215790
   2 N :   -0.414346
   3 C :   -0.057565
   4 C :   -0.069833
   5 N :   -0.417565
   6 C :   -0.518726
   7 H :    0.278881
   8 H :    0.274847
   9 H :    0.263468
  10 C :   -0.519705
  11 H :    0.255903
  12 H :    0.282390
  13 H :    0.277895
  14 H :    0.305227
  15 H :    0.303250
  16 C :   -0.928389
  17 H :    0.277919
  18 H :    0.260336
  19 H :    0.227141
  20 H :    0.200218
Sum of atomic charges:    1.0000000

LOEWDIN ATOMIC CHARGES
----------------------
   0 Sc:    0.356199
   1 C :   -0.046113
   2 N :    0.011720
   3 C :   -0.081110
   4 C :   -0.074605
   5 N :    0.005232
   6 C :   -0.237404
   7 H :    0.158056
   8 H :    0.152760
   9 H :    0.153023
  10 C :   -0.237468
  11 H :    0.150579
  12 H :    0.157419
  13 H :    0.155050
  14 H :    0.170850
  15 H :    0.169330
  16 C :   -0.535500
  17 H :    0.155846
  18 H :    0.155624
  19 H :    0.128276
  20 H :    0.132234

  Mayer bond orders larger than 0.100000
B(  0-Sc,  1-C ) :   0.7003 B(  1-C ,  2-N ) :   1.2319 B(  1-C ,  5-N ) :   1.2277
B(  2-N ,  3-C ) :   1.1561 B(  2-N , 10-C ) :   0.9087 B(  3-C ,  4-C ) :   1.6316
B(  3-C , 14-H ) :   0.8776 B(  4-C ,  5-N ) :   1.1518 B(  4-C , 15-H ) :   0.8785
B(  5-N ,  6-C ) :   0.9038 B(  6-C ,  7-H ) :   0.9020 B(  6-C ,  8-H ) :   0.8908
B(  6-C ,  9-H ) :   0.8929 B( 10-C , 11-H ) :   0.8950 B( 10-C , 12-H ) :   0.8925
B( 10-C , 13-H ) :   0.8944 B( 16-C , 17-H ) :   0.9089 B( 16-C , 18-H ) :   0.9209
B( 16-C , 19-H ) :   0.9224 B( 16-C , 20-H ) :   0.9072

Dispersion correction           -0.010859610
FINAL SINGLE POINT ENERGY     -1104.435724453995
Dispersion correction            ... done

DIPOLE MOMENT
-------------
                                X             Y             Z
Electronic contribution:     10.01817     -10.20543      -1.88561
Nuclear contribution   :     -9.75919       9.95281       1.90850
                        -----------------------------------------
Total Dipole Moment    :      0.25898      -0.25261       0.02289
                        -----------------------------------------
Magnitude (a.u.)       :      0.36250
Magnitude (Debye)      :      0.92141

Rotational constants in cm-1:     0.042529     0.029407     0.022979
Rotational constants in MHz :  1274.973538   881.585549   688.883879

                             ****ORCA TERMINATED NORMALLY****
TOTAL RUN TIME: 0 days 0 hours 5 minutes 10 seconds 626 msec
