                         Program Version 5.0.3 -  RELEASE  -
|  1> ! EnGrad PBEh-3c
|  2> %output
|  3> xyzfile=True
|  4> end
|  5> %scf
|  6> maxiter 250
|  7> end
|  8> %output
|  9> Print[P_Hirshfeld] = 1
| 10> end
| 11> % maxcore
| 12> 4000
| 13> *xyz 1 1
| 14> Sc   1.63813768  -1.21938996  -1.54669427
| 15> C    0.42139261  -0.60843169   0.26049517
| 16> N   -0.46742589  -1.36372685   0.93195561
| 17> C   -0.81630536  -0.75203244   2.09954720
| 18> C   -0.14626185   0.41479973   2.14098573
| 19> N    0.57848084   0.50611263   0.98343016
| 20> C    1.42615123   1.61862668   0.62399497
| 21> H    1.52634687   2.28025947   1.48023601
| 22> H    1.00756024   2.19254425  -0.23087451
| 23> H    2.42846111   1.25312501   0.35465789
| 24> C   -0.98550425  -2.66898048   0.55198480
| 25> H   -0.58526570  -2.96684995  -0.41242770
| 26> H   -2.07459286  -2.64134877   0.47849050
| 27> H   -0.69937505  -3.41091416   1.29355348
| 28> H   -1.46235635  -1.21267028   2.83894120
| 29> H   -0.13462838   1.19734658   2.90437223
| 30> C   -0.27298196   1.53863371  -2.93045841
| 31> H   -1.00939733   1.60018343  -3.70693644
| 32> H    0.43031731   2.32373476  -2.99942738
| 33> H   -0.68652383   1.51130303  -2.02391989
| 34> H   -0.11292518   0.41375045  -3.09496717
| 35> *
| 36>
| 37>                          ****END OF INPUT****

CARTESIAN COORDINATES (ANGSTROEM)
---------------------------------
  Sc     1.638138   -1.219390   -1.546694
  C      0.421393   -0.608432    0.260495
  N     -0.467426   -1.363727    0.931956
  C     -0.816305   -0.752032    2.099547
  C     -0.146262    0.414800    2.140986
  N      0.578481    0.506113    0.983430
  C      1.426151    1.618627    0.623995
  H      1.526347    2.280259    1.480236
  H      1.007560    2.192544   -0.230875
  H      2.428461    1.253125    0.354658
  C     -0.985504   -2.668980    0.551985
  H     -0.585266   -2.966850   -0.412428
  H     -2.074593   -2.641349    0.478490
  H     -0.699375   -3.410914    1.293553
  H     -1.462356   -1.212670    2.838941
  H     -0.134628    1.197347    2.904372
  C     -0.272982    1.538634   -2.930458
  H     -1.009397    1.600183   -3.706936
  H      0.430317    2.323735   -2.999427
  H     -0.686524    1.511303   -2.023920
  H     -0.112925    0.413750   -3.094967

 Total Charge           Charge          ....    1
 Multiplicity           Mult            ....    1
 Number of Electrons    NEL             ....   82
 Basis Dimension        Dim             ....  175

ORBITAL ENERGIES
----------------

  NO   OCC          E(Eh)            E(eV)
   0   2.0000    -162.904750     -4432.8636
   1   2.0000     -18.214865      -495.6517
   2   2.0000     -15.056263      -409.7017
   3   2.0000     -15.053239      -409.6195
   4   2.0000     -15.039578      -409.2477
   5   2.0000     -14.869571      -404.6216
   6   2.0000     -14.869436      -404.6179
   7   2.0000     -10.649339      -289.7832
   8   2.0000     -10.633393      -289.3493
   9   2.0000     -10.630209      -289.2627
  10   2.0000     -10.627803      -289.1972
  11   2.0000     -10.622425      -289.0509
  12   2.0000     -10.536574      -286.7148
  13   2.0000      -2.423777       -65.9543
  14   2.0000      -1.572827       -42.7988
  15   2.0000      -1.563493       -42.5448
  16   2.0000      -1.554665       -42.3046
  17   2.0000      -1.319716       -35.9113
  18   2.0000      -1.196432       -32.5566
  19   2.0000      -1.029798       -28.0222
  20   2.0000      -0.986321       -26.8392
  21   2.0000      -0.929930       -25.3047
  22   2.0000      -0.917408       -24.9639
  23   2.0000      -0.849214       -23.1083
  24   2.0000      -0.808477       -21.9998
  25   2.0000      -0.753873       -20.5139
  26   2.0000      -0.708913       -19.2905
  27   2.0000      -0.679102       -18.4793
  28   2.0000      -0.662078       -18.0160
  29   2.0000      -0.658944       -17.9308
  30   2.0000      -0.654184       -17.8013
  31   2.0000      -0.612370       -16.6634
  32   2.0000      -0.605767       -16.4837
  33   2.0000      -0.602465       -16.3939
  34   2.0000      -0.595134       -16.1944
  35   2.0000      -0.590452       -16.0670
  36   2.0000      -0.534242       -14.5375
  37   2.0000      -0.520191       -14.1551
  38   2.0000      -0.491543       -13.3756
  39   2.0000      -0.440543       -11.9878
  40   2.0000      -0.325277        -8.8512
  41   0.0000      -0.185954        -5.0601
  42   0.0000      -0.181138        -4.9290
  43   0.0000      -0.180756        -4.9186
  44   0.0000      -0.168348        -4.5810
  45   0.0000      -0.166114        -4.5202

MULLIKEN ATOMIC CHARGES
-----------------------
   0 Sc:    0.494562
   1 C :    0.215179
   2 N :   -0.413761
   3 C :   -0.059596
   4 C :   -0.073987
   5 N :   -0.406420
   6 C :   -0.522997
   7 H :    0.278818
   8 H :    0.271010
   9 H :    0.265403
  10 C :   -0.519930
  11 H :    0.257492
  12 H :    0.281114
  13 H :    0.277938
  14 H :    0.305164
  15 H :    0.303450
  16 C :   -0.924518
  17 H :    0.280666
  18 H :    0.258348
  19 H :    0.250843
  20 H :    0.181224
Sum of atomic charges:    1.0000000

LOEWDIN ATOMIC CHARGES
----------------------
   0 Sc:    0.347775
   1 C :   -0.048112
   2 N :    0.011277
   3 C :   -0.081250
   4 C :   -0.077199
   5 N :    0.008691
   6 C :   -0.240041
   7 H :    0.158299
   8 H :    0.151725
   9 H :    0.153826
  10 C :   -0.237583
  11 H :    0.151211
  12 H :    0.157140
  13 H :    0.155037
  14 H :    0.171379
  15 H :    0.170056
  16 C :   -0.524135
  17 H :    0.159521
  18 H :    0.152522
  19 H :    0.128794
  20 H :    0.131067

  Mayer bond orders larger than 0.100000
B(  0-Sc,  1-C ) :   0.6995 B(  1-C ,  2-N ) :   1.2298 B(  1-C ,  5-N ) :   1.2317
B(  2-N ,  3-C ) :   1.1601 B(  2-N , 10-C ) :   0.9079 B(  3-C ,  4-C ) :   1.6304
B(  3-C , 14-H ) :   0.8775 B(  4-C ,  5-N ) :   1.1526 B(  4-C , 15-H ) :   0.8780
B(  5-N ,  6-C ) :   0.9077 B(  6-C ,  7-H ) :   0.9017 B(  6-C ,  8-H ) :   0.8922
B(  6-C ,  9-H ) :   0.8916 B( 10-C , 11-H ) :   0.8946 B( 10-C , 12-H ) :   0.8932
B( 10-C , 13-H ) :   0.8943 B( 16-C , 17-H ) :   0.9093 B( 16-C , 18-H ) :   0.9231
B( 16-C , 19-H ) :   0.9097 B( 16-C , 20-H ) :   0.9122

Dispersion correction           -0.010868039
FINAL SINGLE POINT ENERGY     -1104.426547185341
Dispersion correction            ... done

DIPOLE MOMENT
-------------
                                X             Y             Z
Electronic contribution:      9.79188      -9.74286      -2.08870
Nuclear contribution   :     -9.56033       9.52066       2.04747
                        -----------------------------------------
Total Dipole Moment    :      0.23155      -0.22220      -0.04123
                        -----------------------------------------
Magnitude (a.u.)       :      0.32355
Magnitude (Debye)      :      0.82240

Rotational constants in cm-1:     0.043162     0.029264     0.022931
Rotational constants in MHz :  1293.975235   877.324850   687.439724

                             ****ORCA TERMINATED NORMALLY****
TOTAL RUN TIME: 0 days 0 hours 5 minutes 13 seconds 750 msec
