                         Program Version 5.0.3 -  RELEASE  -
|  1> ! EnGrad PBEh-3c
|  2> %output
|  3> xyzfile=True
|  4> end
|  5> %scf
|  6> maxiter 250
|  7> end
|  8> %output
|  9> Print[P_Hirshfeld] = 1
| 10> end
| 11> % maxcore
| 12> 4000
| 13> *xyz 1 1
| 14> Sc   1.66166459  -1.26231167  -1.51818133
| 15> C    0.41993714  -0.61837481   0.25275746
| 16> N   -0.47188365  -1.36623470   0.92797784
| 17> C   -0.82404304  -0.74784150   2.09245196
| 18> C   -0.15300519   0.41493445   2.13423777
| 19> N    0.57445134   0.50362682   0.97559536
| 20> C    1.43762757   1.61601398   0.61490335
| 21> H    1.56169144   2.26593839   1.47465575
| 22> H    1.00504826   2.19558804  -0.21754979
| 23> H    2.42778315   1.24381848   0.32497694
| 24> C   -0.99069333  -2.67250705   0.55480193
| 25> H   -0.57797162  -2.98175144  -0.40102215
| 26> H   -2.07700716  -2.64130542   0.46512327
| 27> H   -0.71689567  -3.41017731   1.30489144
| 28> H   -1.46972346  -1.20015322   2.83092476
| 29> H   -0.14915535   1.20506486   2.88212228
| 30> C   -0.25140192   1.51520126  -2.93509939
| 31> H   -1.02492219   1.57841154  -3.68398972
| 32> H    0.33345953   2.41497520  -2.97628978
| 33> H   -0.71692789   1.50818170  -1.99188500
| 34> H    0.00444229   0.44371510  -3.11382287
| 35> *
| 36>
| 37>                          ****END OF INPUT****

CARTESIAN COORDINATES (ANGSTROEM)
---------------------------------
  Sc     1.661665   -1.262312   -1.518181
  C      0.419937   -0.618375    0.252757
  N     -0.471884   -1.366235    0.927978
  C     -0.824043   -0.747841    2.092452
  C     -0.153005    0.414934    2.134238
  N      0.574451    0.503627    0.975595
  C      1.437628    1.616014    0.614903
  H      1.561691    2.265938    1.474656
  H      1.005048    2.195588   -0.217550
  H      2.427783    1.243818    0.324977
  C     -0.990693   -2.672507    0.554802
  H     -0.577972   -2.981751   -0.401022
  H     -2.077007   -2.641305    0.465123
  H     -0.716896   -3.410177    1.304891
  H     -1.469723   -1.200153    2.830925
  H     -0.149155    1.205065    2.882122
  C     -0.251402    1.515201   -2.935099
  H     -1.024922    1.578412   -3.683990
  H      0.333460    2.414975   -2.976290
  H     -0.716928    1.508182   -1.991885
  H      0.004442    0.443715   -3.113823

 Total Charge           Charge          ....    1
 Multiplicity           Mult            ....    1
 Number of Electrons    NEL             ....   82
 Basis Dimension        Dim             ....  175

ORBITAL ENERGIES
----------------

  NO   OCC          E(Eh)            E(eV)
   0   2.0000    -162.906512     -4432.9116
   1   2.0000     -18.216767      -495.7034
   2   2.0000     -15.058028      -409.7498
   3   2.0000     -15.055424      -409.6789
   4   2.0000     -15.041301      -409.2946
   5   2.0000     -14.869996      -404.6331
   6   2.0000     -14.869390      -404.6167
   7   2.0000     -10.650354      -289.8109
   8   2.0000     -10.633163      -289.3431
   9   2.0000     -10.629813      -289.2519
  10   2.0000     -10.627024      -289.1760
  11   2.0000     -10.622610      -289.0559
  12   2.0000     -10.538071      -286.7555
  13   2.0000      -2.425512       -66.0015
  14   2.0000      -1.574004       -42.8308
  15   2.0000      -1.565928       -42.6111
  16   2.0000      -1.556128       -42.3444
  17   2.0000      -1.318194       -35.8699
  18   2.0000      -1.194546       -32.5052
  19   2.0000      -1.029775       -28.0216
  20   2.0000      -0.986036       -26.8314
  21   2.0000      -0.930188       -25.3117
  22   2.0000      -0.908756       -24.7285
  23   2.0000      -0.848577       -23.0910
  24   2.0000      -0.809025       -22.0147
  25   2.0000      -0.754485       -20.5306
  26   2.0000      -0.708244       -19.2723
  27   2.0000      -0.678699       -18.4683
  28   2.0000      -0.661534       -18.0013
  29   2.0000      -0.659329       -17.9413
  30   2.0000      -0.654904       -17.8208
  31   2.0000      -0.610416       -16.6103
  32   2.0000      -0.606255       -16.4970
  33   2.0000      -0.602578       -16.3970
  34   2.0000      -0.594282       -16.1712
  35   2.0000      -0.573037       -15.5931
  36   2.0000      -0.537227       -14.6187
  37   2.0000      -0.522020       -14.2049
  38   2.0000      -0.491631       -13.3780
  39   2.0000      -0.441204       -12.0058
  40   2.0000      -0.326958        -8.8970
  41   0.0000      -0.186869        -5.0850
  42   0.0000      -0.182475        -4.9654
  43   0.0000      -0.182184        -4.9575
  44   0.0000      -0.170044        -4.6271
  45   0.0000      -0.167352        -4.5539

MULLIKEN ATOMIC CHARGES
-----------------------
   0 Sc:    0.500986
   1 C :    0.215587
   2 N :   -0.414200
   3 C :   -0.058086
   4 C :   -0.070859
   5 N :   -0.414799
   6 C :   -0.519862
   7 H :    0.278902
   8 H :    0.273891
   9 H :    0.263995
  10 C :   -0.519778
  11 H :    0.256322
  12 H :    0.282080
  13 H :    0.277913
  14 H :    0.305224
  15 H :    0.303329
  16 C :   -0.928335
  17 H :    0.278447
  18 H :    0.260388
  19 H :    0.232951
  20 H :    0.195907
Sum of atomic charges:    1.0000000

LOEWDIN ATOMIC CHARGES
----------------------
   0 Sc:    0.354250
   1 C :   -0.046642
   2 N :    0.011631
   3 C :   -0.081133
   4 C :   -0.075242
   5 N :    0.006138
   6 C :   -0.238093
   7 H :    0.158124
   8 H :    0.152495
   9 H :    0.153236
  10 C :   -0.237502
  11 H :    0.150742
  12 H :    0.157352
  13 H :    0.155049
  14 H :    0.170989
  15 H :    0.169514
  16 C :   -0.532814
  17 H :    0.156704
  18 H :    0.154585
  19 H :    0.128660
  20 H :    0.131955

  Mayer bond orders larger than 0.100000
B(  0-Sc,  1-C ) :   0.7002 B(  1-C ,  2-N ) :   1.2314 B(  1-C ,  5-N ) :   1.2287
B(  2-N ,  3-C ) :   1.1572 B(  2-N , 10-C ) :   0.9085 B(  3-C ,  4-C ) :   1.6313
B(  3-C , 14-H ) :   0.8776 B(  4-C ,  5-N ) :   1.1520 B(  4-C , 15-H ) :   0.8783
B(  5-N ,  6-C ) :   0.9048 B(  6-C ,  7-H ) :   0.9019 B(  6-C ,  8-H ) :   0.8912
B(  6-C ,  9-H ) :   0.8926 B( 10-C , 11-H ) :   0.8949 B( 10-C , 12-H ) :   0.8926
B( 10-C , 13-H ) :   0.8944 B( 16-C , 17-H ) :   0.9093 B( 16-C , 18-H ) :   0.9213
B( 16-C , 19-H ) :   0.9196 B( 16-C , 20-H ) :   0.9083

Dispersion correction           -0.010861996
FINAL SINGLE POINT ENERGY     -1104.435034605460
Dispersion correction            ... done

DIPOLE MOMENT
-------------
                                X             Y             Z
Electronic contribution:      9.96143     -10.08729      -1.93657
Nuclear contribution   :     -9.70844       9.84253       1.94396
                        -----------------------------------------
Total Dipole Moment    :      0.25299      -0.24477       0.00740
                        -----------------------------------------
Magnitude (a.u.)       :      0.35209
Magnitude (Debye)      :      0.89494

Rotational constants in cm-1:     0.042691     0.029372     0.022968
Rotational constants in MHz :  1279.854611   880.543726   688.564274

                             ****ORCA TERMINATED NORMALLY****
TOTAL RUN TIME: 0 days 0 hours 5 minutes 14 seconds 256 msec
