                         Program Version 5.0.3 -  RELEASE  -
|  1> ! EnGrad PBEh-3c
|  2> %output
|  3> xyzfile=True
|  4> end
|  5> %scf
|  6> maxiter 250
|  7> end
|  8> %output
|  9> Print[P_Hirshfeld] = 1
| 10> end
| 11> % maxcore
| 12> 4000
| 13> *xyz -1 1
| 14> Pt  -0.78215553  -0.76372508   0.44886844
| 15> Cl  -0.15145200  -0.33328644   2.65780529
| 16> Cl  -2.62950249  -2.06912077   1.13488654
| 17> Cl  -1.35395542  -1.18293502  -1.78410899
| 18> C    0.85409727   0.97977786  -0.52808646
| 19> H    1.41389487   1.64842245   0.12750140
| 20> H    1.23665325  -0.53888257   0.21862576
| 21> H    1.45036217   0.75051249  -1.41072322
| 22> H   -0.03794212   1.50923347  -0.86475600
| 23> *
| 24>
| 25>                          ****END OF INPUT****

CARTESIAN COORDINATES (ANGSTROEM)
---------------------------------
  Pt    -0.782156   -0.763725    0.448868
  Cl    -0.151452   -0.333286    2.657805
  Cl    -2.629502   -2.069121    1.134887
  Cl    -1.353955   -1.182935   -1.784109
  C      0.854097    0.979778   -0.528086
  H      1.413895    1.648422    0.127501
  H      1.236653   -0.538883    0.218626
  H      1.450362    0.750512   -1.410723
  H     -0.037942    1.509233   -0.864756

 Total Charge           Charge          ....   -1
 Multiplicity           Mult            ....    1
 Number of Electrons    NEL             ....   80
 Basis Dimension        Dim             ....  109

ORBITAL ENERGIES
----------------

  NO   OCC          E(Eh)            E(eV)
   0   2.0000    -102.094919     -2778.1440
   1   2.0000    -102.088514     -2777.9697
   2   2.0000    -102.087108     -2777.9314
   3   2.0000     -10.367693      -282.1193
   4   2.0000      -9.558064      -260.0881
   5   2.0000      -9.552493      -259.9366
   6   2.0000      -9.550943      -259.8944
   7   2.0000      -7.244852      -197.1425
   8   2.0000      -7.238782      -196.9773
   9   2.0000      -7.238611      -196.9726
  10   2.0000      -7.238254      -196.9629
  11   2.0000      -7.237023      -196.9294
  12   2.0000      -7.233441      -196.8319
  13   2.0000      -7.233173      -196.8247
  14   2.0000      -7.231947      -196.7913
  15   2.0000      -7.231669      -196.7837
  16   2.0000      -3.958348      -107.7121
  17   2.0000      -2.169930       -59.0468
  18   2.0000      -2.168095       -58.9969
  19   2.0000      -2.137055       -58.1522
  20   2.0000      -0.692059       -18.8319
  21   2.0000      -0.676736       -18.4149
  22   2.0000      -0.674339       -18.3497
  23   2.0000      -0.662823       -18.0363
  24   2.0000      -0.365068        -9.9340
  25   2.0000      -0.357616        -9.7312
  26   2.0000      -0.314659        -8.5623
  27   2.0000      -0.284676        -7.7464
  28   2.0000      -0.263480        -7.1697
  29   2.0000      -0.238830        -6.4989
  30   2.0000      -0.231762        -6.3066
  31   2.0000      -0.214510        -5.8371
  32   2.0000      -0.196745        -5.3537
  33   2.0000      -0.179476        -4.8838
  34   2.0000      -0.168844        -4.5945
  35   2.0000      -0.155727        -4.2375
  36   2.0000      -0.148486        -4.0405
  37   2.0000      -0.141844        -3.8598
  38   2.0000      -0.132709        -3.6112
  39   2.0000      -0.122134        -3.3234
  40   0.0000       0.087120         2.3707
  41   0.0000       0.096710         2.6316
  42   0.0000       0.203661         5.5419
  43   0.0000       0.232957         6.3391
  44   0.0000       0.265099         7.2137

MULLIKEN ATOMIC CHARGES
-----------------------
   0 Pt:    0.076429
   1 Cl:   -0.419938
   2 Cl:   -0.360735
   3 Cl:   -0.430309
   4 C :   -0.828832
   5 H :    0.239822
   6 H :    0.191748
   7 H :    0.244736
   8 H :    0.287080
Sum of atomic charges:   -1.0000000

LOEWDIN ATOMIC CHARGES
----------------------
   0 Pt:   -0.911217
   1 Cl:   -0.137932
   2 Cl:   -0.092200
   3 Cl:   -0.145140
   4 C :   -0.408686
   5 H :    0.136418
   6 H :    0.238457
   7 H :    0.137914
   8 H :    0.182386

  Mayer bond orders larger than 0.100000
B(  0-Pt,  1-Cl) :   0.7991 B(  0-Pt,  2-Cl) :   0.8684 B(  0-Pt,  3-Cl) :   0.7789
B(  0-Pt,  4-C ) :   0.3763 B(  0-Pt,  6-H ) :   0.3537 B(  1-Cl,  3-Cl) :   0.1219
B(  4-C ,  5-H ) :   0.8995 B(  4-C ,  6-H ) :   0.5478 B(  4-C ,  7-H ) :   0.9019
B(  4-C ,  8-H ) :   0.8858

Dispersion correction           -0.005387295
FINAL SINGLE POINT ENERGY     -1538.970014680044
Dispersion correction            ... done

DIPOLE MOMENT
-------------
                                X             Y             Z
Electronic contribution:      9.49046       2.10939      -0.00539
Nuclear contribution   :     -8.14743      -0.98455      -0.60212
                        -----------------------------------------
Total Dipole Moment    :      1.34303       1.12484      -0.60750
                        -----------------------------------------
Magnitude (a.u.)       :      1.85420
Magnitude (Debye)      :      4.71301

Rotational constants in cm-1:     0.055501     0.042612     0.024452
Rotational constants in MHz :  1663.890161  1277.475736   733.058091

                             ****ORCA TERMINATED NORMALLY****
TOTAL RUN TIME: 0 days 0 hours 0 minutes 36 seconds 475 msec
