                         Program Version 5.0.3 -  RELEASE  -
|  1> ! EnGrad PBEh-3c
|  2> %output
|  3> xyzfile=True
|  4> end
|  5> %scf
|  6> maxiter 250
|  7> end
|  8> %output
|  9> Print[P_Hirshfeld] = 1
| 10> end
| 11> % maxcore
| 12> 4000
| 13> *xyz -1 1
| 14> Pt  -0.70437909  -0.78073137   0.44280266
| 15> Cl  -0.16501186  -0.34133264   2.65401454
| 16> Cl  -2.58169030  -2.03638777   1.12042764
| 17> Cl  -1.35779419  -1.17133443  -1.76730354
| 18> C    0.91083726   0.89838401  -0.49255529
| 19> H    1.40980314   1.63067990   0.13357353
| 20> H    1.08321254  -0.39444678   0.16545964
| 21> H    1.45479308   0.73457753  -1.40175380
| 22> H   -0.05092888   1.46091400  -0.85422656
| 23> *
| 24>
| 25>                          ****END OF INPUT****

CARTESIAN COORDINATES (ANGSTROEM)
---------------------------------
  Pt    -0.704379   -0.780731    0.442803
  Cl    -0.165012   -0.341333    2.654015
  Cl    -2.581690   -2.036388    1.120428
  Cl    -1.357794   -1.171334   -1.767304
  C      0.910837    0.898384   -0.492555
  H      1.409803    1.630680    0.133574
  H      1.083213   -0.394447    0.165460
  H      1.454793    0.734578   -1.401754
  H     -0.050929    1.460914   -0.854227

 Total Charge           Charge          ....   -1
 Multiplicity           Mult            ....    1
 Number of Electrons    NEL             ....   80
 Basis Dimension        Dim             ....  109

ORBITAL ENERGIES
----------------

  NO   OCC          E(Eh)            E(eV)
   0   2.0000    -102.093062     -2778.0935
   1   2.0000    -102.087923     -2777.9536
   2   2.0000    -102.085107     -2777.8770
   3   2.0000     -10.367948      -282.1262
   4   2.0000      -9.556367      -260.0420
   5   2.0000      -9.552114      -259.9262
   6   2.0000      -9.549081      -259.8437
   7   2.0000      -7.243233      -197.0984
   8   2.0000      -7.238220      -196.9620
   9   2.0000      -7.237008      -196.9290
  10   2.0000      -7.236520      -196.9157
  11   2.0000      -7.235141      -196.8782
  12   2.0000      -7.233011      -196.8202
  13   2.0000      -7.232821      -196.8151
  14   2.0000      -7.230070      -196.7402
  15   2.0000      -7.229812      -196.7332
  16   2.0000      -3.954698      -107.6128
  17   2.0000      -2.168980       -59.0209
  18   2.0000      -2.165390       -58.9232
  19   2.0000      -2.132632       -58.0319
  20   2.0000      -0.693623       -18.8744
  21   2.0000      -0.676126       -18.3983
  22   2.0000      -0.673401       -18.3242
  23   2.0000      -0.669385       -18.2149
  24   2.0000      -0.371327       -10.1043
  25   2.0000      -0.364939        -9.9305
  26   2.0000      -0.340606        -9.2684
  27   2.0000      -0.286789        -7.8039
  28   2.0000      -0.265082        -7.2132
  29   2.0000      -0.238701        -6.4954
  30   2.0000      -0.233002        -6.3403
  31   2.0000      -0.216167        -5.8822
  32   2.0000      -0.195757        -5.3268
  33   2.0000      -0.177426        -4.8280
  34   2.0000      -0.168722        -4.5912
  35   2.0000      -0.154956        -4.2166
  36   2.0000      -0.146185        -3.9779
  37   2.0000      -0.141209        -3.8425
  38   2.0000      -0.132054        -3.5934
  39   2.0000      -0.119072        -3.2401
  40   0.0000       0.089984         2.4486
  41   0.0000       0.149014         4.0549
  42   0.0000       0.206330         5.6145
  43   0.0000       0.239401         6.5144
  44   0.0000       0.265529         7.2254

MULLIKEN ATOMIC CHARGES
-----------------------
   0 Pt:    0.061657
   1 Cl:   -0.418155
   2 Cl:   -0.345635
   3 Cl:   -0.434122
   4 C :   -0.867922
   5 H :    0.249370
   6 H :    0.218814
   7 H :    0.258567
   8 H :    0.277426
Sum of atomic charges:   -1.0000000

LOEWDIN ATOMIC CHARGES
----------------------
   0 Pt:   -0.924710
   1 Cl:   -0.129123
   2 Cl:   -0.087498
   3 Cl:   -0.146626
   4 C :   -0.419125
   5 H :    0.140245
   6 H :    0.231213
   7 H :    0.141629
   8 H :    0.193996

  Mayer bond orders larger than 0.100000
B(  0-Pt,  1-Cl) :   0.8054 B(  0-Pt,  2-Cl) :   0.8861 B(  0-Pt,  3-Cl) :   0.7736
B(  0-Pt,  4-C ) :   0.3233 B(  0-Pt,  6-H ) :   0.2965 B(  1-Cl,  3-Cl) :   0.1213
B(  4-C ,  5-H ) :   0.8941 B(  4-C ,  6-H ) :   0.5992 B(  4-C ,  7-H ) :   0.8922
B(  4-C ,  8-H ) :   0.8884

Dispersion correction           -0.005067305
FINAL SINGLE POINT ENERGY     -1539.005036384850
Dispersion correction            ... done

DIPOLE MOMENT
-------------
                                X             Y             Z
Electronic contribution:     13.47476       0.96681      -0.51183
Nuclear contribution   :    -12.07878       0.18306      -0.11120
                        -----------------------------------------
Total Dipole Moment    :      1.39598       1.14987      -0.62303
                        -----------------------------------------
Magnitude (a.u.)       :      1.91288
Magnitude (Debye)      :      4.86217

Rotational constants in cm-1:     0.057139     0.043122     0.024912
Rotational constants in MHz :  1712.986542  1292.754688   746.856605

                             ****ORCA TERMINATED NORMALLY****
TOTAL RUN TIME: 0 days 0 hours 0 minutes 38 seconds 435 msec
