                         Program Version 5.0.3 -  RELEASE  -
|  1> ! EnGrad PBEh-3c
|  2> %output
|  3> xyzfile=True
|  4> end
|  5> %scf
|  6> maxiter 250
|  7> end
|  8> %output
|  9> Print[P_Hirshfeld] = 1
| 10> end
| 11> % maxcore
| 12> 4000
| 13> *xyz -1 1
| 14> Pt  -0.75089627  -0.77056011   0.44643053
| 15> Cl  -0.15690187  -0.33652030   2.65628174
| 16> Cl  -2.61028621  -2.05596500   1.12907534
| 17> Cl  -1.35549827  -1.17827260  -1.77735468
| 18> C    0.87690174   0.94706472  -0.51380607
| 19> H    1.41225036   1.64129151   0.12994186
| 20> H    1.17498364  -0.48083214   0.19725768
| 21> H    1.45214300   0.74410804  -1.40711831
| 22> H   -0.04316165   1.48981331  -0.86052410
| 23> *
| 24>
| 25>                          ****END OF INPUT****

CARTESIAN COORDINATES (ANGSTROEM)
---------------------------------
  Pt    -0.750896   -0.770560    0.446431
  Cl    -0.156902   -0.336520    2.656282
  Cl    -2.610286   -2.055965    1.129075
  Cl    -1.355498   -1.178273   -1.777355
  C      0.876902    0.947065   -0.513806
  H      1.412250    1.641292    0.129942
  H      1.174984   -0.480832    0.197258
  H      1.452143    0.744108   -1.407118
  H     -0.043162    1.489813   -0.860524

 Total Charge           Charge          ....   -1
 Multiplicity           Mult            ....    1
 Number of Electrons    NEL             ....   80
 Basis Dimension        Dim             ....  109

ORBITAL ENERGIES
----------------

  NO   OCC          E(Eh)            E(eV)
   0   2.0000    -102.094127     -2778.1224
   1   2.0000    -102.088277     -2777.9632
   2   2.0000    -102.086273     -2777.9087
   3   2.0000     -10.368191      -282.1328
   4   2.0000      -9.557337      -260.0684
   5   2.0000      -9.552348      -259.9326
   6   2.0000      -9.550168      -259.8733
   7   2.0000      -7.244156      -197.1235
   8   2.0000      -7.238460      -196.9685
   9   2.0000      -7.238023      -196.9566
  10   2.0000      -7.237515      -196.9428
  11   2.0000      -7.236237      -196.9080
  12   2.0000      -7.233274      -196.8274
  13   2.0000      -7.233040      -196.8210
  14   2.0000      -7.231168      -196.7701
  15   2.0000      -7.230896      -196.7627
  16   2.0000      -3.956931      -107.6736
  17   2.0000      -2.169493       -59.0349
  18   2.0000      -2.167035       -58.9680
  19   2.0000      -2.135305       -58.1046
  20   2.0000      -0.692571       -18.8458
  21   2.0000      -0.676424       -18.4064
  22   2.0000      -0.673965       -18.3395
  23   2.0000      -0.664865       -18.0919
  24   2.0000      -0.363409        -9.8889
  25   2.0000      -0.359412        -9.7801
  26   2.0000      -0.328818        -8.9476
  27   2.0000      -0.285782        -7.7765
  28   2.0000      -0.264129        -7.1873
  29   2.0000      -0.238869        -6.4999
  30   2.0000      -0.232354        -6.3227
  31   2.0000      -0.215294        -5.8585
  32   2.0000      -0.196422        -5.3449
  33   2.0000      -0.178642        -4.8611
  34   2.0000      -0.168881        -4.5955
  35   2.0000      -0.155732        -4.2377
  36   2.0000      -0.147454        -4.0124
  37   2.0000      -0.141610        -3.8534
  38   2.0000      -0.132477        -3.6049
  39   2.0000      -0.120883        -3.2894
  40   0.0000       0.088513         2.4086
  41   0.0000       0.118177         3.2158
  42   0.0000       0.205121         5.5816
  43   0.0000       0.234934         6.3929
  44   0.0000       0.264925         7.2090

MULLIKEN ATOMIC CHARGES
-----------------------
   0 Pt:    0.070962
   1 Cl:   -0.419016
   2 Cl:   -0.355142
   3 Cl:   -0.431833
   4 C :   -0.846905
   5 H :    0.243923
   6 H :    0.203321
   7 H :    0.250658
   8 H :    0.284032
Sum of atomic charges:   -1.0000000

LOEWDIN ATOMIC CHARGES
----------------------
   0 Pt:   -0.917711
   1 Cl:   -0.134235
   2 Cl:   -0.090480
   3 Cl:   -0.145572
   4 C :   -0.415385
   5 H :    0.137721
   6 H :    0.238641
   7 H :    0.139208
   8 H :    0.187811

  Mayer bond orders larger than 0.100000
B(  0-Pt,  1-Cl) :   0.8022 B(  0-Pt,  2-Cl) :   0.8743 B(  0-Pt,  3-Cl) :   0.7771
B(  0-Pt,  4-C ) :   0.3543 B(  0-Pt,  6-H ) :   0.3308 B(  1-Cl,  3-Cl) :   0.1217
B(  4-C ,  5-H ) :   0.8969 B(  4-C ,  6-H ) :   0.5684 B(  4-C ,  7-H ) :   0.8974
B(  4-C ,  8-H ) :   0.8865

Dispersion correction           -0.005234415
FINAL SINGLE POINT ENERGY     -1538.986150854366
Dispersion correction            ... done

DIPOLE MOMENT
-------------
                                X             Y             Z
Electronic contribution:     11.09391       1.64912      -0.20855
Nuclear contribution   :     -9.72748      -0.51527      -0.40481
                        -----------------------------------------
Total Dipole Moment    :      1.36642       1.13385      -0.61336
                        -----------------------------------------
Magnitude (a.u.)       :      1.87855
Magnitude (Debye)      :      4.77488

Rotational constants in cm-1:     0.056177     0.042825     0.024638
Rotational constants in MHz :  1684.137563  1283.856451   738.628060

                             ****ORCA TERMINATED NORMALLY****
TOTAL RUN TIME: 0 days 0 hours 0 minutes 38 seconds 569 msec
