                         Program Version 5.0.3 -  RELEASE  -
|  1> ! EnGrad PBEh-3c
|  2> %output
|  3> xyzfile=True
|  4> end
|  5> %scf
|  6> maxiter 250
|  7> end
|  8> %output
|  9> Print[P_Hirshfeld] = 1
| 10> end
| 11> % maxcore
| 12> 4000
| 13> *xyz -1 1
| 14> Pt  -0.67551652  -0.78746078   0.43769849
| 15> Cl  -0.16703827  -0.34165633   2.65301277
| 16> Cl  -2.54888695  -2.01417649   1.11144663
| 17> Cl  -1.35339832  -1.16651278  -1.76095974
| 18> C    0.89188690   0.86339138  -0.47337754
| 19> H    1.41334256   1.61614946   0.14431078
| 20> H    1.00045045  -0.30307833   0.12384963
| 21> H    1.46358508   0.72069642  -1.40409916
| 22> H   -0.02633939   1.41293257  -0.83107702
| 23> *
| 24>
| 25>                          ****END OF INPUT****

CARTESIAN COORDINATES (ANGSTROEM)
---------------------------------
  Pt    -0.675517   -0.787461    0.437698
  Cl    -0.167038   -0.341656    2.653013
  Cl    -2.548887   -2.014176    1.111447
  Cl    -1.353398   -1.166513   -1.760960
  C      0.891887    0.863391   -0.473378
  H      1.413343    1.616149    0.144311
  H      1.000450   -0.303078    0.123850
  H      1.463585    0.720696   -1.404099
  H     -0.026339    1.412933   -0.831077

 Total Charge           Charge          ....   -1
 Multiplicity           Mult            ....    1
 Number of Electrons    NEL             ....   80
 Basis Dimension        Dim             ....  109

ORBITAL ENERGIES
----------------

  NO   OCC          E(Eh)            E(eV)
   0   2.0000    -102.092601     -2778.0809
   1   2.0000    -102.086851     -2777.9245
   2   2.0000    -102.084833     -2777.8695
   3   2.0000     -10.362969      -281.9907
   4   2.0000      -9.556178      -260.0368
   5   2.0000      -9.551063      -259.8976
   6   2.0000      -9.548899      -259.8388
   7   2.0000      -7.243074      -197.0941
   8   2.0000      -7.237152      -196.9329
   9   2.0000      -7.236769      -196.9225
  10   2.0000      -7.236287      -196.9094
  11   2.0000      -7.234956      -196.8732
  12   2.0000      -7.231952      -196.7914
  13   2.0000      -7.231796      -196.7872
  14   2.0000      -7.229871      -196.7348
  15   2.0000      -7.229628      -196.7282
  16   2.0000      -3.952470      -107.5522
  17   2.0000      -2.168717       -59.0138
  18   2.0000      -2.163575       -58.8739
  19   2.0000      -2.129999       -57.9602
  20   2.0000      -0.696074       -18.9411
  21   2.0000      -0.677361       -18.4319
  22   2.0000      -0.675636       -18.3850
  23   2.0000      -0.672960       -18.3122
  24   2.0000      -0.397132       -10.8065
  25   2.0000      -0.358866        -9.7652
  26   2.0000      -0.348846        -9.4926
  27   2.0000      -0.286993        -7.8095
  28   2.0000      -0.266351        -7.2478
  29   2.0000      -0.240063        -6.5324
  30   2.0000      -0.233076        -6.3423
  31   2.0000      -0.218352        -5.9417
  32   2.0000      -0.195312        -5.3147
  33   2.0000      -0.176862        -4.8127
  34   2.0000      -0.168650        -4.5892
  35   2.0000      -0.153308        -4.1717
  36   2.0000      -0.145206        -3.9513
  37   2.0000      -0.140423        -3.8211
  38   2.0000      -0.131647        -3.5823
  39   2.0000      -0.117511        -3.1976
  40   0.0000       0.093875         2.5545
  41   0.0000       0.171419         4.6646
  42   0.0000       0.208895         5.6843
  43   0.0000       0.250346         6.8123
  44   0.0000       0.269228         7.3261

MULLIKEN ATOMIC CHARGES
-----------------------
   0 Pt:    0.047860
   1 Cl:   -0.419681
   2 Cl:   -0.334662
   3 Cl:   -0.435027
   4 C :   -0.889172
   5 H :    0.246943
   6 H :    0.238322
   7 H :    0.252775
   8 H :    0.292641
Sum of atomic charges:   -1.0000000

LOEWDIN ATOMIC CHARGES
----------------------
   0 Pt:   -0.929378
   1 Cl:   -0.129803
   2 Cl:   -0.076832
   3 Cl:   -0.144547
   4 C :   -0.419274
   5 H :    0.141570
   6 H :    0.220489
   7 H :    0.143271
   8 H :    0.194504

  Mayer bond orders larger than 0.100000
B(  0-Pt,  1-Cl) :   0.8048 B(  0-Pt,  2-Cl) :   0.9051 B(  0-Pt,  3-Cl) :   0.7715
B(  0-Pt,  4-C ) :   0.3021 B(  0-Pt,  6-H ) :   0.2638 B(  1-Cl,  3-Cl) :   0.1207
B(  4-C ,  5-H ) :   0.8969 B(  4-C ,  6-H ) :   0.6234 B(  4-C ,  7-H ) :   0.8972
B(  4-C ,  8-H ) :   0.8782

Dispersion correction           -0.005094429
FINAL SINGLE POINT ENERGY     -1539.024193349071
Dispersion correction            ... done

DIPOLE MOMENT
-------------
                                X             Y             Z
Electronic contribution:     14.76520       0.33970      -0.86353
Nuclear contribution   :    -13.37383       0.80633       0.22204
                        -----------------------------------------
Total Dipole Moment    :      1.39137       1.14603      -0.64149
                        -----------------------------------------
Magnitude (a.u.)       :      1.91332
Magnitude (Debye)      :      4.86328

Rotational constants in cm-1:     0.058703     0.043301     0.025266
Rotational constants in MHz :  1759.869897  1298.126511   757.454698

                             ****ORCA TERMINATED NORMALLY****
TOTAL RUN TIME: 0 days 0 hours 0 minutes 36 seconds 842 msec
