                         Program Version 5.0.3 -  RELEASE  -
|  1> ! EnGrad PBEh-3c
|  2> %output
|  3> xyzfile=True
|  4> end
|  5> %scf
|  6> maxiter 250
|  7> end
|  8> %output
|  9> Print[P_Hirshfeld] = 1
| 10> end
| 11> % maxcore
| 12> 4000
| 13> *xyz -1 1
| 14> Pt  -0.71632633  -0.77831093   0.44242592
| 15> Cl  -0.16155053  -0.33887574   2.65478256
| 16> Cl  -2.58212787  -2.03680035   1.12099063
| 17> Cl  -1.35453521  -1.17287942  -1.76983579
| 18> C    0.88377409   0.90869125  -0.49526512
| 19> H    1.41275125   1.62976110   0.13653160
| 20> H    1.09494090  -0.39931239   0.16359198
| 21> H    1.45739046   0.73337123  -1.40573370
| 22> H   -0.03544679   1.45455500  -0.84701936
| 23> *
| 24>
| 25>                          ****END OF INPUT****

CARTESIAN COORDINATES (ANGSTROEM)
---------------------------------
  Pt    -0.716326   -0.778311    0.442426
  Cl    -0.161551   -0.338876    2.654783
  Cl    -2.582128   -2.036800    1.120991
  Cl    -1.354535   -1.172879   -1.769836
  C      0.883774    0.908691   -0.495265
  H      1.412751    1.629761    0.136532
  H      1.094941   -0.399312    0.163592
  H      1.457390    0.733371   -1.405734
  H     -0.035447    1.454555   -0.847019

 Total Charge           Charge          ....   -1
 Multiplicity           Mult            ....    1
 Number of Electrons    NEL             ....   80
 Basis Dimension        Dim             ....  109

ORBITAL ENERGIES
----------------

  NO   OCC          E(Eh)            E(eV)
   0   2.0000    -102.093394     -2778.1025
   1   2.0000    -102.087610     -2777.9451
   2   2.0000    -102.085565     -2777.8895
   3   2.0000     -10.366633      -282.0904
   4   2.0000      -9.556775      -260.0531
   5   2.0000      -9.551751      -259.9164
   6   2.0000      -9.549541      -259.8562
   7   2.0000      -7.243627      -197.1091
   8   2.0000      -7.237851      -196.9519
   9   2.0000      -7.237419      -196.9402
  10   2.0000      -7.236924      -196.9267
  11   2.0000      -7.235603      -196.8908
  12   2.0000      -7.232659      -196.8107
  13   2.0000      -7.232464      -196.8054
  14   2.0000      -7.230531      -196.7527
  15   2.0000      -7.230271      -196.7457
  16   2.0000      -3.954936      -107.6193
  17   2.0000      -2.169059       -59.0231
  18   2.0000      -2.165475       -58.9256
  19   2.0000      -2.132904       -58.0393
  20   2.0000      -0.693672       -18.8758
  21   2.0000      -0.676262       -18.4020
  22   2.0000      -0.673847       -18.3363
  23   2.0000      -0.669172       -18.2091
  24   2.0000      -0.371585       -10.1114
  25   2.0000      -0.360076        -9.7982
  26   2.0000      -0.342967        -9.3326
  27   2.0000      -0.286514        -7.7964
  28   2.0000      -0.265192        -7.2162
  29   2.0000      -0.239127        -6.5070
  30   2.0000      -0.232866        -6.3366
  31   2.0000      -0.217003        -5.9050
  32   2.0000      -0.195997        -5.3333
  33   2.0000      -0.177791        -4.8379
  34   2.0000      -0.168761        -4.5922
  35   2.0000      -0.155009        -4.2180
  36   2.0000      -0.146342        -3.9822
  37   2.0000      -0.141173        -3.8415
  38   2.0000      -0.132102        -3.5947
  39   2.0000      -0.119314        -3.2467
  40   0.0000       0.091175         2.4810
  41   0.0000       0.145372         3.9558
  42   0.0000       0.207029         5.6335
  43   0.0000       0.240361         6.5405
  44   0.0000       0.266066         7.2400

MULLIKEN ATOMIC CHARGES
-----------------------
   0 Pt:    0.060405
   1 Cl:   -0.419046
   2 Cl:   -0.346197
   3 Cl:   -0.433346
   4 C :   -0.869711
   5 H :    0.245816
   6 H :    0.220937
   7 H :    0.252221
   8 H :    0.288920
Sum of atomic charges:   -1.0000000

LOEWDIN ATOMIC CHARGES
----------------------
   0 Pt:   -0.924646
   1 Cl:   -0.132034
   2 Cl:   -0.084462
   3 Cl:   -0.144999
   4 C :   -0.420197
   5 H :    0.139366
   6 H :    0.234608
   7 H :    0.140941
   8 H :    0.191423

  Mayer bond orders larger than 0.100000
B(  0-Pt,  1-Cl) :   0.8041 B(  0-Pt,  2-Cl) :   0.8865 B(  0-Pt,  3-Cl) :   0.7746
B(  0-Pt,  4-C ) :   0.3298 B(  0-Pt,  6-H ) :   0.3007 B(  1-Cl,  3-Cl) :   0.1213
B(  4-C ,  5-H ) :   0.8963 B(  4-C ,  6-H ) :   0.5928 B(  4-C ,  7-H ) :   0.8964
B(  4-C ,  8-H ) :   0.8823

Dispersion correction           -0.005072668
FINAL SINGLE POINT ENERGY     -1539.006239097463
Dispersion correction            ... done

DIPOLE MOMENT
-------------
                                X             Y             Z
Electronic contribution:     12.78000       1.04724      -0.50872
Nuclear contribution   :    -11.39974       0.09083      -0.11733
                        -----------------------------------------
Total Dipole Moment    :      1.38027       1.13807      -0.62605
                        -----------------------------------------
Magnitude (a.u.)       :      1.89533
Magnitude (Debye)      :      4.81755

Rotational constants in cm-1:     0.057340     0.043051     0.024926
Rotational constants in MHz :  1719.009073  1290.639932   747.247762

                             ****ORCA TERMINATED NORMALLY****
TOTAL RUN TIME: 0 days 0 hours 0 minutes 37 seconds 923 msec
