                         Program Version 5.0.3 -  RELEASE  -
|  1> ! EnGrad PBEh-3c
|  2> %output
|  3> xyzfile=True
|  4> end
|  5> %scf
|  6> maxiter 250
|  7> end
|  8> %output
|  9> Print[P_Hirshfeld] = 1
| 10> end
| 11> % maxcore
| 12> 4000
| 13> *xyz -1 1
| 14> Pt  -0.65659521  -0.77910786   0.42478880
| 15> Cl  -0.15169402  -0.32170045   2.64596337
| 16> Cl  -2.51238122  -1.98157356   1.10260937
| 17> Cl  -1.32327154  -1.17125059  -1.76730780
| 18> C    0.86797692   0.85184394  -0.46617190
| 19> H    1.40496663   1.56815750   0.16332101
| 20> H    0.94751421  -0.26182773   0.08467024
| 21> H    1.44152457   0.70388245  -1.38648873
| 22> H   -0.02065223   1.39114558  -0.79992534
| 23> *
| 24>
| 25>                          ****END OF INPUT****

CARTESIAN COORDINATES (ANGSTROEM)
---------------------------------
  Pt    -0.656595   -0.779108    0.424789
  Cl    -0.151694   -0.321700    2.645963
  Cl    -2.512381   -1.981574    1.102609
  Cl    -1.323272   -1.171251   -1.767308
  C      0.867977    0.851844   -0.466172
  H      1.404967    1.568158    0.163321
  H      0.947514   -0.261828    0.084670
  H      1.441525    0.703882   -1.386489
  H     -0.020652    1.391146   -0.799925

 Total Charge           Charge          ....   -1
 Multiplicity           Mult            ....    1
 Number of Electrons    NEL             ....   80
 Basis Dimension        Dim             ....  109

ORBITAL ENERGIES
----------------

  NO   OCC          E(Eh)            E(eV)
   0   2.0000    -102.091590     -2778.0534
   1   2.0000    -102.085563     -2777.8894
   2   2.0000    -102.085390     -2777.8847
   3   2.0000     -10.353913      -281.7443
   4   2.0000      -9.555553      -260.0198
   5   2.0000      -9.549700      -259.8606
   6   2.0000      -9.549541      -259.8562
   7   2.0000      -7.242411      -197.0760
   8   2.0000      -7.236134      -196.9052
   9   2.0000      -7.235771      -196.8953
  10   2.0000      -7.235638      -196.8917
  11   2.0000      -7.235603      -196.8908
  12   2.0000      -7.230601      -196.7546
  13   2.0000      -7.230495      -196.7518
  14   2.0000      -7.230461      -196.7508
  15   2.0000      -7.230262      -196.7454
  16   2.0000      -3.951589      -107.5282
  17   2.0000      -2.169285       -59.0293
  18   2.0000      -2.162589       -58.8470
  19   2.0000      -2.128974       -57.9323
  20   2.0000      -0.701120       -19.0785
  21   2.0000      -0.683685       -18.6040
  22   2.0000      -0.676051       -18.3963
  23   2.0000      -0.673508       -18.3271
  24   2.0000      -0.412236       -11.2175
  25   2.0000      -0.362290        -9.8584
  26   2.0000      -0.357486        -9.7277
  27   2.0000      -0.286854        -7.8057
  28   2.0000      -0.267671        -7.2837
  29   2.0000      -0.241485        -6.5711
  30   2.0000      -0.232689        -6.3318
  31   2.0000      -0.220557        -6.0017
  32   2.0000      -0.195250        -5.3130
  33   2.0000      -0.176662        -4.8072
  34   2.0000      -0.168638        -4.5889
  35   2.0000      -0.152417        -4.1475
  36   2.0000      -0.143989        -3.9181
  37   2.0000      -0.139192        -3.7876
  38   2.0000      -0.131695        -3.5836
  39   2.0000      -0.116964        -3.1827
  40   0.0000       0.099582         2.7098
  41   0.0000       0.180215         4.9039
  42   0.0000       0.210818         5.7366
  43   0.0000       0.258977         7.0471
  44   0.0000       0.271765         7.3951

MULLIKEN ATOMIC CHARGES
-----------------------
   0 Pt:    0.035506
   1 Cl:   -0.421883
   2 Cl:   -0.329870
   3 Cl:   -0.434496
   4 C :   -0.902892
   5 H :    0.251772
   6 H :    0.245613
   7 H :    0.255587
   8 H :    0.300662
Sum of atomic charges:   -1.0000000

LOEWDIN ATOMIC CHARGES
----------------------
   0 Pt:   -0.935417
   1 Cl:   -0.135348
   2 Cl:   -0.067372
   3 Cl:   -0.140219
   4 C :   -0.414547
   5 H :    0.143645
   6 H :    0.210958
   7 H :    0.144934
   8 H :    0.193365

  Mayer bond orders larger than 0.100000
B(  0-Pt,  1-Cl) :   0.8006 B(  0-Pt,  2-Cl) :   0.9156 B(  0-Pt,  3-Cl) :   0.7714
B(  0-Pt,  4-C ) :   0.3079 B(  0-Pt,  6-H ) :   0.2597 B(  1-Cl,  3-Cl) :   0.1202
B(  4-C ,  5-H ) :   0.8962 B(  4-C ,  6-H ) :   0.6223 B(  4-C ,  7-H ) :   0.8975
B(  4-C ,  8-H ) :   0.8733

Dispersion correction           -0.005134520
FINAL SINGLE POINT ENERGY     -1539.032744508313
Dispersion correction            ... done

DIPOLE MOMENT
-------------
                                X             Y             Z
Electronic contribution:     14.81763       0.20635      -1.37222
Nuclear contribution   :    -13.44504       0.93338       0.70502
                        -----------------------------------------
Total Dipole Moment    :      1.37259       1.13973      -0.66720
                        -----------------------------------------
Magnitude (a.u.)       :      1.90476
Magnitude (Debye)      :      4.84153

Rotational constants in cm-1:     0.060411     0.043313     0.025581
Rotational constants in MHz :  1811.088306  1298.478071   766.900312

                             ****ORCA TERMINATED NORMALLY****
TOTAL RUN TIME: 0 days 0 hours 0 minutes 36 seconds 259 msec
