                         Program Version 5.0.3 -  RELEASE  -
|  1> ! EnGrad PBEh-3c
|  2> %output
|  3> xyzfile=True
|  4> end
|  5> %scf
|  6> maxiter 250
|  7> end
|  8> %output
|  9> Print[P_Hirshfeld] = 1
| 10> end
| 11> % maxcore
| 12> 4000
| 13> *xyz -1 1
| 14> Pt  -0.65624336  -0.77466329   0.42135339
| 15> Cl  -0.14429737  -0.31323759   2.64234859
| 16> Cl  -2.49877151  -1.97048936   1.09968782
| 17> Cl  -1.31020985  -1.17344803  -1.77129905
| 18> C    0.85889520   0.85374593  -0.46658812
| 19> H    1.40160539   1.55042980   0.17241545
| 20> H    0.93984991  -0.26081523   0.07673877
| 21> H    1.43227125   0.69609676  -1.38038422
| 22> H   -0.02597522   1.39135201  -0.79256591
| 23> *
| 24>
| 25>                          ****END OF INPUT****

CARTESIAN COORDINATES (ANGSTROEM)
---------------------------------
  Pt    -0.656243   -0.774663    0.421353
  Cl    -0.144297   -0.313238    2.642349
  Cl    -2.498772   -1.970489    1.099688
  Cl    -1.310210   -1.173448   -1.771299
  C      0.858895    0.853746   -0.466588
  H      1.401605    1.550430    0.172415
  H      0.939850   -0.260815    0.076739
  H      1.432271    0.696097   -1.380384
  H     -0.025975    1.391352   -0.792566

 Total Charge           Charge          ....   -1
 Multiplicity           Mult            ....    1
 Number of Electrons    NEL             ....   80
 Basis Dimension        Dim             ....  109

ORBITAL ENERGIES
----------------

  NO   OCC          E(Eh)            E(eV)
   0   2.0000    -102.091440     -2778.0493
   1   2.0000    -102.085518     -2777.8882
   2   2.0000    -102.085179     -2777.8789
   3   2.0000     -10.351940      -281.6906
   4   2.0000      -9.555612      -260.0214
   5   2.0000      -9.549689      -259.8602
   6   2.0000      -9.549299      -259.8496
   7   2.0000      -7.242447      -197.0770
   8   2.0000      -7.236188      -196.9067
   9   2.0000      -7.235749      -196.8947
  10   2.0000      -7.235679      -196.8928
  11   2.0000      -7.235364      -196.8843
  12   2.0000      -7.230639      -196.7557
  13   2.0000      -7.230412      -196.7495
  14   2.0000      -7.230205      -196.7439
  15   2.0000      -7.230069      -196.7402
  16   2.0000      -3.951429      -107.5238
  17   2.0000      -2.169457       -59.0339
  18   2.0000      -2.162297       -58.8391
  19   2.0000      -2.128827       -57.9283
  20   2.0000      -0.702354       -19.1120
  21   2.0000      -0.684347       -18.6220
  22   2.0000      -0.676636       -18.4122
  23   2.0000      -0.673453       -18.3256
  24   2.0000      -0.412652       -11.2288
  25   2.0000      -0.363955        -9.9037
  26   2.0000      -0.359344        -9.7782
  27   2.0000      -0.286779        -7.8036
  28   2.0000      -0.268343        -7.3020
  29   2.0000      -0.242332        -6.5942
  30   2.0000      -0.232552        -6.3281
  31   2.0000      -0.221769        -6.0346
  32   2.0000      -0.195384        -5.3167
  33   2.0000      -0.176653        -4.8070
  34   2.0000      -0.168674        -4.5899
  35   2.0000      -0.152228        -4.1423
  36   2.0000      -0.143579        -3.9070
  37   2.0000      -0.138578        -3.7709
  38   2.0000      -0.131616        -3.5814
  39   2.0000      -0.116852        -3.1797
  40   0.0000       0.102040         2.7766
  41   0.0000       0.181096         4.9279
  42   0.0000       0.211260         5.7487
  43   0.0000       0.260391         7.0856
  44   0.0000       0.272229         7.4077

MULLIKEN ATOMIC CHARGES
-----------------------
   0 Pt:    0.031698
   1 Cl:   -0.422557
   2 Cl:   -0.329079
   3 Cl:   -0.434423
   4 C :   -0.903815
   5 H :    0.253463
   6 H :    0.246544
   7 H :    0.256791
   8 H :    0.301378
Sum of atomic charges:   -1.0000000

LOEWDIN ATOMIC CHARGES
----------------------
   0 Pt:   -0.940974
   1 Cl:   -0.137129
   2 Cl:   -0.061790
   3 Cl:   -0.139174
   4 C :   -0.413472
   5 H :    0.144100
   6 H :    0.210094
   7 H :    0.145226
   8 H :    0.193118

  Mayer bond orders larger than 0.100000
B(  0-Pt,  1-Cl) :   0.7991 B(  0-Pt,  2-Cl) :   0.9180 B(  0-Pt,  3-Cl) :   0.7712
B(  0-Pt,  4-C ) :   0.3139 B(  0-Pt,  6-H ) :   0.2640 B(  1-Cl,  3-Cl) :   0.1201
B(  4-C ,  5-H ) :   0.8954 B(  4-C ,  6-H ) :   0.6163 B(  4-C ,  7-H ) :   0.8970
B(  4-C ,  8-H ) :   0.8731

Dispersion correction           -0.005152032
FINAL SINGLE POINT ENERGY     -1539.033996019094
Dispersion correction            ... done

DIPOLE MOMENT
-------------
                                X             Y             Z
Electronic contribution:     14.38297       0.20977      -1.42742
Nuclear contribution   :    -13.02675       0.92141       0.75894
                        -----------------------------------------
Total Dipole Moment    :      1.35621       1.13118      -0.66848
                        -----------------------------------------
Magnitude (a.u.)       :      1.88832
Magnitude (Debye)      :      4.79972

Rotational constants in cm-1:     0.061045     0.043301     0.025688
Rotational constants in MHz :  1830.095077  1298.137843   770.099083

                             ****ORCA TERMINATED NORMALLY****
TOTAL RUN TIME: 0 days 0 hours 0 minutes 35 seconds 340 msec
