                         Program Version 5.0.3 -  RELEASE  -
|  1> ! EnGrad PBEh-3c
|  2> %output
|  3> xyzfile=True
|  4> end
|  5> %scf
|  6> maxiter 250
|  7> end
|  8> %output
|  9> Print[P_Hirshfeld] = 1
| 10> end
| 11> % maxcore
| 12> 4000
| 13> *xyz -1 1
| 14> Pt  -0.66267842  -0.75821696   0.41464149
| 15> Cl  -0.12279938  -0.28934570   2.63117799
| 16> Cl  -2.46639626  -1.94456460   1.09354302
| 17> Cl  -1.27358103  -1.17989855  -1.78465770
| 18> C    0.83919624   0.85127279  -0.46339204
| 19> H    1.39277230   1.50724401   0.19883818
| 20> H    0.93440050  -0.27022875   0.05986872
| 21> H    1.40717294   0.67582793  -1.36797304
| 22> H   -0.05164140   1.40481295  -0.77962928
| 23> *
| 24>
| 25>                          ****END OF INPUT****

CARTESIAN COORDINATES (ANGSTROEM)
---------------------------------
  Pt    -0.662678   -0.758217    0.414641
  Cl    -0.122799   -0.289346    2.631178
  Cl    -2.466396   -1.944565    1.093543
  Cl    -1.273581   -1.179899   -1.784658
  C      0.839196    0.851273   -0.463392
  H      1.392772    1.507244    0.198838
  H      0.934400   -0.270229    0.059869
  H      1.407173    0.675828   -1.367973
  H     -0.051641    1.404813   -0.779629

 Total Charge           Charge          ....   -1
 Multiplicity           Mult            ....    1
 Number of Electrons    NEL             ....   80
 Basis Dimension        Dim             ....  109

ORBITAL ENERGIES
----------------

  NO   OCC          E(Eh)            E(eV)
   0   2.0000    -102.091248     -2778.0441
   1   2.0000    -102.085633     -2777.8913
   2   2.0000    -102.084674     -2777.8652
   3   2.0000     -10.349466      -281.6233
   4   2.0000      -9.555988      -260.0317
   5   2.0000      -9.549813      -259.8636
   6   2.0000      -9.548774      -259.8354
   7   2.0000      -7.242763      -197.0856
   8   2.0000      -7.236550      -196.9165
   9   2.0000      -7.236015      -196.9020
  10   2.0000      -7.235861      -196.8978
  11   2.0000      -7.234828      -196.8697
  12   2.0000      -7.230762      -196.7590
  13   2.0000      -7.230554      -196.7534
  14   2.0000      -7.229685      -196.7297
  15   2.0000      -7.229557      -196.7263
  16   2.0000      -3.951217      -107.5181
  17   2.0000      -2.169885       -59.0456
  18   2.0000      -2.161743       -58.8240
  19   2.0000      -2.128716       -57.9253
  20   2.0000      -0.703842       -19.1525
  21   2.0000      -0.684280       -18.6202
  22   2.0000      -0.678257       -18.4563
  23   2.0000      -0.673286       -18.3210
  24   2.0000      -0.411243       -11.1905
  25   2.0000      -0.366278        -9.9669
  26   2.0000      -0.359568        -9.7843
  27   2.0000      -0.286567        -7.7979
  28   2.0000      -0.269870        -7.3435
  29   2.0000      -0.244669        -6.6578
  30   2.0000      -0.232288        -6.3209
  31   2.0000      -0.224791        -6.1169
  32   2.0000      -0.195893        -5.3305
  33   2.0000      -0.176678        -4.8077
  34   2.0000      -0.168965        -4.5978
  35   2.0000      -0.152018        -4.1366
  36   2.0000      -0.142979        -3.8907
  37   2.0000      -0.136783        -3.7220
  38   2.0000      -0.131101        -3.5674
  39   2.0000      -0.116834        -3.1792
  40   0.0000       0.108321         2.9476
  41   0.0000       0.182516         4.9665
  42   0.0000       0.211444         5.7537
  43   0.0000       0.260597         7.0912
  44   0.0000       0.273324         7.4375

MULLIKEN ATOMIC CHARGES
-----------------------
   0 Pt:    0.025494
   1 Cl:   -0.424012
   2 Cl:   -0.327764
   3 Cl:   -0.434453
   4 C :   -0.907861
   5 H :    0.257242
   6 H :    0.252726
   7 H :    0.259981
   8 H :    0.298647
Sum of atomic charges:   -1.0000000

LOEWDIN ATOMIC CHARGES
----------------------
   0 Pt:   -0.956763
   1 Cl:   -0.140167
   2 Cl:   -0.046725
   3 Cl:   -0.138643
   4 C :   -0.415730
   5 H :    0.145058
   6 H :    0.211860
   7 H :    0.145822
   8 H :    0.195288

  Mayer bond orders larger than 0.100000
B(  0-Pt,  1-Cl) :   0.7956 B(  0-Pt,  2-Cl) :   0.9247 B(  0-Pt,  3-Cl) :   0.7700
B(  0-Pt,  4-C ) :   0.3294 B(  0-Pt,  6-H ) :   0.2741 B(  1-Cl,  3-Cl) :   0.1197
B(  4-C ,  5-H ) :   0.8924 B(  4-C ,  6-H ) :   0.6010 B(  4-C ,  7-H ) :   0.8942
B(  4-C ,  8-H ) :   0.8746

Dispersion correction           -0.005192914
FINAL SINGLE POINT ENERGY     -1539.035646244969
Dispersion correction            ... done

DIPOLE MOMENT
-------------
                                X             Y             Z
Electronic contribution:     12.76576       0.56325      -1.39799
Nuclear contribution   :    -11.46082       0.54420       0.73987
                        -----------------------------------------
Total Dipole Moment    :      1.30494       1.10744      -0.65811
                        -----------------------------------------
Magnitude (a.u.)       :      1.83369
Magnitude (Debye)      :      4.66086

Rotational constants in cm-1:     0.062670     0.043254     0.025938
Rotational constants in MHz :  1878.810494  1296.709601   777.609757

                             ****ORCA TERMINATED NORMALLY****
TOTAL RUN TIME: 0 days 0 hours 0 minutes 36 seconds 498 msec
