                         Program Version 5.0.3 -  RELEASE  -
|  1> ! EnGrad PBEh-3c
|  2> %output
|  3> xyzfile=True
|  4> end
|  5> %scf
|  6> maxiter 250
|  7> end
|  8> %output
|  9> Print[P_Hirshfeld] = 1
| 10> end
| 11> % maxcore
| 12> 4000
| 13> *xyz -1 1
| 14> Pt  -0.88968326  -0.82082141   0.49167652
| 15> Cl  -0.20224087  -0.44123799   2.70461871
| 16> Cl  -2.67122733  -2.17056835   1.15065843
| 17> Cl  -1.47800283  -1.14336816  -1.75530319
| 18> C    0.94033138   1.00760369  -0.56159421
| 19> H    1.43196837   1.76362849   0.04698938
| 20> H    1.29579763  -0.36047570   0.28509309
| 21> H    1.56066321   0.73854280  -1.41968447
| 22> H    0.01239368   1.42669209  -0.94244333
| 23> *
| 24>
| 25>                          ****END OF INPUT****

CARTESIAN COORDINATES (ANGSTROEM)
---------------------------------
  Pt    -0.889683   -0.820821    0.491677
  Cl    -0.202241   -0.441238    2.704619
  Cl    -2.671227   -2.170568    1.150658
  Cl    -1.478003   -1.143368   -1.755303
  C      0.940331    1.007604   -0.561594
  H      1.431968    1.763628    0.046989
  H      1.295798   -0.360476    0.285093
  H      1.560663    0.738543   -1.419684
  H      0.012394    1.426692   -0.942443

 Total Charge           Charge          ....   -1
 Multiplicity           Mult            ....    1
 Number of Electrons    NEL             ....   80
 Basis Dimension        Dim             ....  109

ORBITAL ENERGIES
----------------

  NO   OCC          E(Eh)            E(eV)
   0   2.0000    -102.101816     -2778.3317
   1   2.0000    -102.086283     -2777.9090
   2   2.0000    -102.086136     -2777.9050
   3   2.0000     -10.370295      -282.1901
   4   2.0000      -9.564982      -260.2764
   5   2.0000      -9.550117      -259.8719
   6   2.0000      -9.549905      -259.8661
   7   2.0000      -7.252156      -197.3412
   8   2.0000      -7.245399      -197.1573
   9   2.0000      -7.245009      -197.1467
  10   2.0000      -7.236102      -196.9044
  11   2.0000      -7.235897      -196.8988
  12   2.0000      -7.231082      -196.7677
  13   2.0000      -7.230970      -196.7647
  14   2.0000      -7.230893      -196.7626
  15   2.0000      -7.230768      -196.7592
  16   2.0000      -3.946155      -107.3803
  17   2.0000      -2.159715       -58.7688
  18   2.0000      -2.158250       -58.7290
  19   2.0000      -2.123695       -57.7887
  20   2.0000      -0.692840       -18.8531
  21   2.0000      -0.679398       -18.4874
  22   2.0000      -0.672823       -18.3085
  23   2.0000      -0.666670       -18.1410
  24   2.0000      -0.366735        -9.9794
  25   2.0000      -0.362461        -9.8631
  26   2.0000      -0.306618        -8.3435
  27   2.0000      -0.279192        -7.5972
  28   2.0000      -0.261288        -7.1100
  29   2.0000      -0.243533        -6.6269
  30   2.0000      -0.227253        -6.1839
  31   2.0000      -0.215847        -5.8735
  32   2.0000      -0.196231        -5.3397
  33   2.0000      -0.176866        -4.8128
  34   2.0000      -0.168292        -4.5795
  35   2.0000      -0.150825        -4.1042
  36   2.0000      -0.147407        -4.0112
  37   2.0000      -0.137923        -3.7531
  38   2.0000      -0.128953        -3.5090
  39   2.0000      -0.117458        -3.1962
  40   0.0000       0.078888         2.1466
  41   0.0000       0.113405         3.0859
  42   0.0000       0.199815         5.4373
  43   0.0000       0.224388         6.1059
  44   0.0000       0.264596         7.2000

MULLIKEN ATOMIC CHARGES
-----------------------
   0 Pt:    0.084166
   1 Cl:   -0.433268
   2 Cl:   -0.341172
   3 Cl:   -0.439270
   4 C :   -0.830781
   5 H :    0.234844
   6 H :    0.194350
   7 H :    0.239896
   8 H :    0.291235
Sum of atomic charges:   -1.0000000

LOEWDIN ATOMIC CHARGES
----------------------
   0 Pt:   -0.907520
   1 Cl:   -0.151263
   2 Cl:   -0.048822
   3 Cl:   -0.151779
   4 C :   -0.423189
   5 H :    0.132747
   6 H :    0.231004
   7 H :    0.135383
   8 H :    0.183438

  Mayer bond orders larger than 0.100000
B(  0-Pt,  1-Cl) :   0.7937 B(  0-Pt,  2-Cl) :   0.9319 B(  0-Pt,  3-Cl) :   0.7812
B(  0-Pt,  4-C ) :   0.2243 B(  0-Pt,  6-H ) :   0.2011 B(  1-Cl,  3-Cl) :   0.1147
B(  4-C ,  5-H ) :   0.9042 B(  4-C ,  6-H ) :   0.7208 B(  4-C ,  7-H ) :   0.9065
B(  4-C ,  8-H ) :   0.8859

Dispersion correction           -0.005332513
FINAL SINGLE POINT ENERGY     -1538.968478416166
Dispersion correction            ... done

DIPOLE MOMENT
-------------
                                X             Y             Z
Electronic contribution:      5.75402       0.97333       1.38341
Nuclear contribution   :     -4.46056       0.12644      -1.99373
                        -----------------------------------------
Total Dipole Moment    :      1.29346       1.09977      -0.61032
                        -----------------------------------------
Magnitude (a.u.)       :      1.80417
Magnitude (Debye)      :      4.58582

Rotational constants in cm-1:     0.053144     0.042479     0.023848
Rotational constants in MHz :  1593.212525  1273.484778   714.937331

                             ****ORCA TERMINATED NORMALLY****
TOTAL RUN TIME: 0 days 0 hours 0 minutes 42 seconds 883 msec
