                         Program Version 5.0.3 -  RELEASE  -
|  1> ! EnGrad PBEh-3c
|  2> %output
|  3> xyzfile=True
|  4> end
|  5> %scf
|  6> maxiter 250
|  7> end
|  8> %output
|  9> Print[P_Hirshfeld] = 1
| 10> end
| 11> % maxcore
| 12> 4000
| 13> *xyz -1 1
| 14> Pt  -0.83531418  -0.83751833   0.48883557
| 15> Cl  -0.19863330  -0.41267485   2.66853273
| 16> Cl  -2.60302488  -2.09158680   1.12881331
| 17> Cl  -1.43071805  -1.14403272  -1.73909085
| 18> C    1.04403649   0.82740801  -0.46726249
| 19> H    1.42975154   1.70766082   0.08439666
| 20> H    1.10455840  -0.17317672   0.12142960
| 21> H    1.52151555   0.74189156  -1.40113978
| 22> H   -0.03552897   1.38204122  -0.88387536
| 23> *
| 24>
| 25>                          ****END OF INPUT****

CARTESIAN COORDINATES (ANGSTROEM)
---------------------------------
  Pt    -0.835314   -0.837518    0.488836
  Cl    -0.198633   -0.412675    2.668533
  Cl    -2.603025   -2.091587    1.128813
  Cl    -1.430718   -1.144033   -1.739091
  C      1.044036    0.827408   -0.467262
  H      1.429752    1.707661    0.084397
  H      1.104558   -0.173177    0.121430
  H      1.521516    0.741892   -1.401140
  H     -0.035529    1.382041   -0.883875

 Total Charge           Charge          ....   -1
 Multiplicity           Mult            ....    1
 Number of Electrons    NEL             ....   80
 Basis Dimension        Dim             ....  109

ORBITAL ENERGIES
----------------

  NO   OCC          E(Eh)            E(eV)
   0   2.0000    -102.105283     -2778.4260
   1   2.0000    -102.086662     -2777.9193
   2   2.0000    -102.083918     -2777.8446
   3   2.0000     -10.351945      -281.6907
   4   2.0000      -9.569317      -260.3944
   5   2.0000      -9.550953      -259.8946
   6   2.0000      -9.548026      -259.8150
   7   2.0000      -7.256657      -197.4637
   8   2.0000      -7.249521      -197.2695
   9   2.0000      -7.249155      -197.2595
  10   2.0000      -7.236868      -196.9252
  11   2.0000      -7.233958      -196.8460
  12   2.0000      -7.231876      -196.7893
  13   2.0000      -7.231831      -196.7881
  14   2.0000      -7.228976      -196.7104
  15   2.0000      -7.228918      -196.7089
  16   2.0000      -3.941796      -107.2617
  17   2.0000      -2.158642       -58.7396
  18   2.0000      -2.155048       -58.6418
  19   2.0000      -2.118910       -57.6585
  20   2.0000      -0.700651       -19.0657
  21   2.0000      -0.683554       -18.6004
  22   2.0000      -0.674220       -18.3464
  23   2.0000      -0.671815       -18.2810
  24   2.0000      -0.388848       -10.5811
  25   2.0000      -0.360699        -9.8151
  26   2.0000      -0.313170        -8.5218
  27   2.0000      -0.284782        -7.7493
  28   2.0000      -0.268411        -7.3038
  29   2.0000      -0.258518        -7.0346
  30   2.0000      -0.229593        -6.2475
  31   2.0000      -0.223754        -6.0887
  32   2.0000      -0.198146        -5.3918
  33   2.0000      -0.176715        -4.8086
  34   2.0000      -0.172200        -4.6858
  35   2.0000      -0.150403        -4.0927
  36   2.0000      -0.144408        -3.9295
  37   2.0000      -0.134697        -3.6653
  38   2.0000      -0.126111        -3.4317
  39   2.0000      -0.113083        -3.0771
  40   0.0000       0.086542         2.3549
  41   0.0000       0.189032         5.1438
  42   0.0000       0.200791         5.4638
  43   0.0000       0.232303         6.3213
  44   0.0000       0.271430         7.3860

MULLIKEN ATOMIC CHARGES
-----------------------
   0 Pt:    0.072543
   1 Cl:   -0.432080
   2 Cl:   -0.311764
   3 Cl:   -0.440723
   4 C :   -0.894679
   5 H :    0.235776
   6 H :    0.266027
   7 H :    0.257331
   8 H :    0.247569
Sum of atomic charges:   -1.0000000

LOEWDIN ATOMIC CHARGES
----------------------
   0 Pt:   -0.936947
   1 Cl:   -0.134603
   2 Cl:   -0.000892
   3 Cl:   -0.147390
   4 C :   -0.457483
   5 H :    0.136304
   6 H :    0.208457
   7 H :    0.137291
   8 H :    0.195264

  Mayer bond orders larger than 0.100000
B(  0-Pt,  1-Cl) :   0.8044 B(  0-Pt,  2-Cl) :   0.9849 B(  0-Pt,  3-Cl) :   0.7808
B(  0-Pt,  4-C ) :   0.1597 B(  0-Pt,  6-H ) :   0.1064 B(  1-Cl,  3-Cl) :   0.1144
B(  4-C ,  5-H ) :   0.9073 B(  4-C ,  6-H ) :   0.7947 B(  4-C ,  7-H ) :   0.8944
B(  4-C ,  8-H ) :   0.9001

Dispersion correction           -0.004981942
FINAL SINGLE POINT ENERGY     -1539.015766674000
Dispersion correction            ... done

DIPOLE MOMENT
-------------
                                X             Y             Z
Electronic contribution:      6.71401      -0.85617       1.46223
Nuclear contribution   :     -5.56506       1.84402      -2.00728
                        -----------------------------------------
Total Dipole Moment    :      1.14895       0.98784      -0.54505
                        -----------------------------------------
Magnitude (a.u.)       :      1.61028
Magnitude (Debye)      :      4.09301

Rotational constants in cm-1:     0.056651     0.043683     0.024874
Rotational constants in MHz :  1698.363507  1309.595079   745.705884

                             ****ORCA TERMINATED NORMALLY****
TOTAL RUN TIME: 0 days 0 hours 0 minutes 44 seconds 802 msec
