                         Program Version 5.0.3 -  RELEASE  -
|  1> ! EnGrad PBEh-3c
|  2> %output
|  3> xyzfile=True
|  4> end
|  5> %scf
|  6> maxiter 250
|  7> end
|  8> %output
|  9> Print[P_Hirshfeld] = 1
| 10> end
| 11> % maxcore
| 12> 4000
| 13> *xyz -1 1
| 14> Pt  -0.86679025  -0.82785192   0.49048029
| 15> Cl  -0.20072184  -0.42921100   2.68942411
| 16> Cl  -2.64250956  -2.13731185   1.14146018
| 17> Cl  -1.45809279  -1.14364799  -1.74847671
| 18> C    0.98399814   0.93172931  -0.52187427
| 19> H    1.43103494   1.74006237   0.06274034
| 20> H    1.21527317  -0.28161035   0.21617985
| 21> H    1.54417944   0.73995285  -1.41187592
| 22> H   -0.00778494   1.40789110  -0.91778232
| 23> *
| 24>
| 25>                          ****END OF INPUT****

CARTESIAN COORDINATES (ANGSTROEM)
---------------------------------
  Pt    -0.866790   -0.827852    0.490480
  Cl    -0.200722   -0.429211    2.689424
  Cl    -2.642510   -2.137312    1.141460
  Cl    -1.458093   -1.143648   -1.748477
  C      0.983998    0.931729   -0.521874
  H      1.431035    1.740062    0.062740
  H      1.215273   -0.281610    0.216180
  H      1.544179    0.739953   -1.411876
  H     -0.007785    1.407891   -0.917782

 Total Charge           Charge          ....   -1
 Multiplicity           Mult            ....    1
 Number of Electrons    NEL             ....   80
 Basis Dimension        Dim             ....  109

ORBITAL ENERGIES
----------------

  NO   OCC          E(Eh)            E(eV)
   0   2.0000    -102.103244     -2778.3705
   1   2.0000    -102.086304     -2777.9096
   2   2.0000    -102.085078     -2777.8762
   3   2.0000     -10.364357      -282.0285
   4   2.0000      -9.566752      -260.3246
   5   2.0000      -9.550330      -259.8777
   6   2.0000      -9.548983      -259.8410
   7   2.0000      -7.254002      -197.3914
   8   2.0000      -7.247078      -197.2030
   9   2.0000      -7.246703      -197.1928
  10   2.0000      -7.236284      -196.9093
  11   2.0000      -7.234946      -196.8729
  12   2.0000      -7.231259      -196.7726
  13   2.0000      -7.231217      -196.7714
  14   2.0000      -7.229955      -196.7371
  15   2.0000      -7.229865      -196.7346
  16   2.0000      -3.944018      -107.3222
  17   2.0000      -2.158960       -58.7483
  18   2.0000      -2.156631       -58.6849
  19   2.0000      -2.121301       -57.7235
  20   2.0000      -0.695718       -18.9314
  21   2.0000      -0.680963       -18.5300
  22   2.0000      -0.673012       -18.3136
  23   2.0000      -0.665978       -18.1222
  24   2.0000      -0.364549        -9.9199
  25   2.0000      -0.349184        -9.5018
  26   2.0000      -0.328883        -8.9494
  27   2.0000      -0.281893        -7.6707
  28   2.0000      -0.264027        -7.1845
  29   2.0000      -0.250801        -6.8247
  30   2.0000      -0.228084        -6.2065
  31   2.0000      -0.219336        -5.9684
  32   2.0000      -0.197031        -5.3615
  33   2.0000      -0.176660        -4.8072
  34   2.0000      -0.170291        -4.6339
  35   2.0000      -0.150631        -4.0989
  36   2.0000      -0.146073        -3.9748
  37   2.0000      -0.136651        -3.7185
  38   2.0000      -0.127644        -3.4734
  39   2.0000      -0.115432        -3.1411
  40   0.0000       0.082434         2.2431
  41   0.0000       0.154569         4.2060
  42   0.0000       0.202228         5.5029
  43   0.0000       0.229304         6.2397
  44   0.0000       0.265410         7.2222

MULLIKEN ATOMIC CHARGES
-----------------------
   0 Pt:    0.084128
   1 Cl:   -0.433460
   2 Cl:   -0.328800
   3 Cl:   -0.440268
   4 C :   -0.870019
   5 H :    0.235584
   6 H :    0.226462
   7 H :    0.249116
   8 H :    0.277258
Sum of atomic charges:   -1.0000000

LOEWDIN ATOMIC CHARGES
----------------------
   0 Pt:   -0.920810
   1 Cl:   -0.144920
   2 Cl:   -0.028795
   3 Cl:   -0.150173
   4 C :   -0.447874
   5 H :    0.133008
   6 H :    0.231994
   7 H :    0.135056
   8 H :    0.192513

  Mayer bond orders larger than 0.100000
B(  0-Pt,  1-Cl) :   0.7987 B(  0-Pt,  2-Cl) :   0.9545 B(  0-Pt,  3-Cl) :   0.7809
B(  0-Pt,  4-C ) :   0.1870 B(  0-Pt,  6-H ) :   0.1527 B(  1-Cl,  3-Cl) :   0.1144
B(  4-C ,  5-H ) :   0.9039 B(  4-C ,  6-H ) :   0.7616 B(  4-C ,  7-H ) :   0.8987
B(  4-C ,  8-H ) :   0.8905

Dispersion correction           -0.005037658
FINAL SINGLE POINT ENERGY     -1538.997985704958
Dispersion correction            ... done

DIPOLE MOMENT
-------------
                                X             Y             Z
Electronic contribution:      6.16366       0.19879       1.41689
Nuclear contribution   :     -4.92563       0.84966      -1.99943
                        -----------------------------------------
Total Dipole Moment    :      1.23803       1.04845      -0.58255
                        -----------------------------------------
Magnitude (a.u.)       :      1.72376
Magnitude (Debye)      :      4.38144

Rotational constants in cm-1:     0.054600     0.042997     0.024276
Rotational constants in MHz :  1636.860917  1289.009049   727.783786

                             ****ORCA TERMINATED NORMALLY****
TOTAL RUN TIME: 0 days 0 hours 0 minutes 44 seconds 975 msec
