                         Program Version 5.0.3 -  RELEASE  -
|  1> ! EnGrad PBEh-3c
|  2> %output
|  3> xyzfile=True
|  4> end
|  5> %scf
|  6> maxiter 250
|  7> end
|  8> %output
|  9> Print[P_Hirshfeld] = 1
| 10> end
| 11> % maxcore
| 12> 4000
| 13> *xyz -1 1
| 14> Pt  -0.82471271  -0.83104623   0.47991925
| 15> Cl  -0.19167992  -0.40097917   2.66589810
| 16> Cl  -2.59740463  -2.08073633   1.12781991
| 17> Cl  -1.41725127  -1.14851099  -1.74290835
| 18> C    0.97482695   0.84132001  -0.45640660
| 19> H    1.43236117   1.68724727   0.09444472
| 20> H    1.09041187  -0.15952748   0.09969219
| 21> H    1.52591619   0.73412418  -1.41502840
| 22> H    0.00386277   1.35841104  -0.85250859
| 23> *
| 24>
| 25>                          ****END OF INPUT****

CARTESIAN COORDINATES (ANGSTROEM)
---------------------------------
  Pt    -0.824713   -0.831046    0.479919
  Cl    -0.191680   -0.400979    2.665898
  Cl    -2.597405   -2.080736    1.127820
  Cl    -1.417251   -1.148511   -1.742908
  C      0.974827    0.841320   -0.456407
  H      1.432361    1.687247    0.094445
  H      1.090412   -0.159527    0.099692
  H      1.525916    0.734124   -1.415028
  H      0.003863    1.358411   -0.852509

 Total Charge           Charge          ....   -1
 Multiplicity           Mult            ....    1
 Number of Electrons    NEL             ....   80
 Basis Dimension        Dim             ....  109

ORBITAL ENERGIES
----------------

  NO   OCC          E(Eh)            E(eV)
   0   2.0000    -102.104138     -2778.3949
   1   2.0000    -102.085809     -2777.8961
   2   2.0000    -102.084751     -2777.8673
   3   2.0000     -10.347586      -281.5721
   4   2.0000      -9.568163      -260.3629
   5   2.0000      -9.550040      -259.8698
   6   2.0000      -9.548892      -259.8386
   7   2.0000      -7.255455      -197.4310
   8   2.0000      -7.248398      -197.2389
   9   2.0000      -7.248030      -197.2289
  10   2.0000      -7.235963      -196.9006
  11   2.0000      -7.234827      -196.8697
  12   2.0000      -7.230956      -196.7643
  13   2.0000      -7.230933      -196.7637
  14   2.0000      -7.229835      -196.7338
  15   2.0000      -7.229779      -196.7323
  16   2.0000      -3.942283      -107.2750
  17   2.0000      -2.159132       -58.7530
  18   2.0000      -2.155397       -58.6513
  19   2.0000      -2.119364       -57.6708
  20   2.0000      -0.700341       -19.0573
  21   2.0000      -0.683421       -18.5968
  22   2.0000      -0.676117       -18.3981
  23   2.0000      -0.673180       -18.3182
  24   2.0000      -0.393938       -10.7196
  25   2.0000      -0.348350        -9.4791
  26   2.0000      -0.332394        -9.0449
  27   2.0000      -0.284795        -7.7497
  28   2.0000      -0.268217        -7.2986
  29   2.0000      -0.257630        -7.0105
  30   2.0000      -0.229563        -6.2467
  31   2.0000      -0.223532        -6.0826
  32   2.0000      -0.197984        -5.3874
  33   2.0000      -0.176901        -4.8137
  34   2.0000      -0.172168        -4.6849
  35   2.0000      -0.150046        -4.0830
  36   2.0000      -0.144819        -3.9407
  37   2.0000      -0.135039        -3.6746
  38   2.0000      -0.126427        -3.4403
  39   2.0000      -0.113297        -3.0830
  40   0.0000       0.088482         2.4077
  41   0.0000       0.190663         5.1882
  42   0.0000       0.205919         5.6033
  43   0.0000       0.246120         6.6973
  44   0.0000       0.271945         7.4000

MULLIKEN ATOMIC CHARGES
-----------------------
   0 Pt:    0.067513
   1 Cl:   -0.432457
   2 Cl:   -0.312403
   3 Cl:   -0.439624
   4 C :   -0.917988
   5 H :    0.236369
   6 H :    0.275283
   7 H :    0.239969
   8 H :    0.283336
Sum of atomic charges:   -1.0000000

LOEWDIN ATOMIC CHARGES
----------------------
   0 Pt:   -0.932386
   1 Cl:   -0.138030
   2 Cl:   -0.005728
   3 Cl:   -0.143915
   4 C :   -0.461725
   5 H :    0.135635
   6 H :    0.211319
   7 H :    0.137334
   8 H :    0.197496

  Mayer bond orders larger than 0.100000
B(  0-Pt,  1-Cl) :   0.8035 B(  0-Pt,  2-Cl) :   0.9819 B(  0-Pt,  3-Cl) :   0.7808
B(  0-Pt,  4-C ) :   0.1700 B(  0-Pt,  6-H ) :   0.1134 B(  1-Cl,  3-Cl) :   0.1147
B(  4-C ,  5-H ) :   0.9073 B(  4-C ,  6-H ) :   0.7799 B(  4-C ,  7-H ) :   0.9070
B(  4-C ,  8-H ) :   0.8825

Dispersion correction           -0.004996845
FINAL SINGLE POINT ENERGY     -1539.031278009887
Dispersion correction            ... done

DIPOLE MOMENT
-------------
                                X             Y             Z
Electronic contribution:      7.28703      -0.77730       0.96828
Nuclear contribution   :     -6.12269       1.77484      -1.53774
                        -----------------------------------------
Total Dipole Moment    :      1.16434       0.99754      -0.56947
                        -----------------------------------------
Magnitude (a.u.)       :      1.63556
Magnitude (Debye)      :      4.15727

Rotational constants in cm-1:     0.057395     0.043643     0.025010
Rotational constants in MHz :  1720.649488  1308.386409   749.771944

                             ****ORCA TERMINATED NORMALLY****
TOTAL RUN TIME: 0 days 0 hours 0 minutes 44 seconds 543 msec
