                         Program Version 5.0.3 -  RELEASE  -
|  1> ! EnGrad PBEh-3c
|  2> %output
|  3> xyzfile=True
|  4> end
|  5> %scf
|  6> maxiter 250
|  7> end
|  8> %output
|  9> Print[P_Hirshfeld] = 1
| 10> end
| 11> % maxcore
| 12> 4000
| 13> *xyz -1 1
| 14> Pt  -0.82364928  -0.83122747   0.47731814
| 15> Cl  -0.18938248  -0.39658401   2.66377676
| 16> Cl  -2.59038163  -2.07327618   1.12669763
| 17> Cl  -1.41088975  -1.14927218  -1.74304863
| 18> C    0.96237228   0.85090352  -0.46332171
| 19> H    1.43292808   1.67074295   0.10033187
| 20> H    1.07161600  -0.13536700   0.08140930
| 21> H    1.52323727   0.72984805  -1.40968266
| 22> H    0.01989689   1.33477158  -0.83222294
| 23> *
| 24>
| 25>                          ****END OF INPUT****

CARTESIAN COORDINATES (ANGSTROEM)
---------------------------------
  Pt    -0.823649   -0.831227    0.477318
  Cl    -0.189382   -0.396584    2.663777
  Cl    -2.590382   -2.073276    1.126698
  Cl    -1.410890   -1.149272   -1.743049
  C      0.962372    0.850904   -0.463322
  H      1.432928    1.670743    0.100332
  H      1.071616   -0.135367    0.081409
  H      1.523237    0.729848   -1.409683
  H      0.019897    1.334772   -0.832223

 Total Charge           Charge          ....   -1
 Multiplicity           Mult            ....    1
 Number of Electrons    NEL             ....   80
 Basis Dimension        Dim             ....  109

ORBITAL ENERGIES
----------------

  NO   OCC          E(Eh)            E(eV)
   0   2.0000    -102.104521     -2778.4053
   1   2.0000    -102.085482     -2777.8872
   2   2.0000    -102.085225     -2777.8802
   3   2.0000     -10.339968      -281.3648
   4   2.0000      -9.568666      -260.3766
   5   2.0000      -9.549697      -259.8605
   6   2.0000      -9.549404      -259.8525
   7   2.0000      -7.255963      -197.4448
   8   2.0000      -7.248886      -197.2522
   9   2.0000      -7.248516      -197.2421
  10   2.0000      -7.235611      -196.8910
  11   2.0000      -7.235334      -196.8835
  12   2.0000      -7.230624      -196.7553
  13   2.0000      -7.230592      -196.7544
  14   2.0000      -7.230341      -196.7476
  15   2.0000      -7.230296      -196.7464
  16   2.0000      -3.942081      -107.2695
  17   2.0000      -2.159241       -58.7559
  18   2.0000      -2.155187       -58.6456
  19   2.0000      -2.119119       -57.6641
  20   2.0000      -0.701737       -19.0952
  21   2.0000      -0.685420       -18.6512
  22   2.0000      -0.679647       -18.4941
  23   2.0000      -0.673582       -18.3291
  24   2.0000      -0.396065       -10.7775
  25   2.0000      -0.350017        -9.5245
  26   2.0000      -0.340601        -9.2682
  27   2.0000      -0.285030        -7.7561
  28   2.0000      -0.269235        -7.3263
  29   2.0000      -0.259087        -7.0501
  30   2.0000      -0.229673        -6.2497
  31   2.0000      -0.224665        -6.1134
  32   2.0000      -0.198287        -5.3957
  33   2.0000      -0.177122        -4.8197
  34   2.0000      -0.172515        -4.6944
  35   2.0000      -0.150182        -4.0867
  36   2.0000      -0.144597        -3.9347
  37   2.0000      -0.134783        -3.6676
  38   2.0000      -0.126230        -3.4349
  39   2.0000      -0.113143        -3.0788
  40   0.0000       0.089378         2.4321
  41   0.0000       0.192631         5.2418
  42   0.0000       0.206913         5.6304
  43   0.0000       0.255659         6.9568
  44   0.0000       0.272454         7.4139

MULLIKEN ATOMIC CHARGES
-----------------------
   0 Pt:    0.062924
   1 Cl:   -0.432924
   2 Cl:   -0.310111
   3 Cl:   -0.439460
   4 C :   -0.923219
   5 H :    0.236783
   6 H :    0.275097
   7 H :    0.239254
   8 H :    0.291656
Sum of atomic charges:   -1.0000000

LOEWDIN ATOMIC CHARGES
----------------------
   0 Pt:   -0.931934
   1 Cl:   -0.139461
   2 Cl:   -0.000572
   3 Cl:   -0.141741
   4 C :   -0.460277
   5 H :    0.135914
   6 H :    0.206430
   7 H :    0.137661
   8 H :    0.193981

  Mayer bond orders larger than 0.100000
B(  0-Pt,  1-Cl) :   0.8034 B(  0-Pt,  2-Cl) :   0.9862 B(  0-Pt,  3-Cl) :   0.7814
B(  0-Pt,  4-C ) :   0.1703 B(  0-Pt,  6-H ) :   0.1123 B(  1-Cl,  3-Cl) :   0.1144
B(  4-C ,  5-H ) :   0.9090 B(  4-C ,  6-H ) :   0.7807 B(  4-C ,  7-H ) :   0.9097
B(  4-C ,  8-H ) :   0.8786

Dispersion correction           -0.005010841
FINAL SINGLE POINT ENERGY     -1539.037183061886
Dispersion correction            ... done

DIPOLE MOMENT
-------------
                                X             Y             Z
Electronic contribution:      7.16843      -1.00301       0.89072
Nuclear contribution   :     -6.01948       1.98261      -1.46052
                        -----------------------------------------
Total Dipole Moment    :      1.14895       0.97960      -0.56980
                        -----------------------------------------
Magnitude (a.u.)       :      1.61381
Magnitude (Debye)      :      4.10197

Rotational constants in cm-1:     0.057718     0.043688     0.025083
Rotational constants in MHz :  1730.342833  1309.719008   751.965438

                             ****ORCA TERMINATED NORMALLY****
TOTAL RUN TIME: 0 days 0 hours 0 minutes 44 seconds 827 msec
