                         Program Version 5.0.3 -  RELEASE  -
|  1> ! EnGrad PBEh-3c
|  2> %output
|  3> xyzfile=True
|  4> end
|  5> %scf
|  6> maxiter 250
|  7> end
|  8> %output
|  9> Print[P_Hirshfeld] = 1
| 10> end
| 11> % maxcore
| 12> 4000
| 13> *xyz -1 1
| 14> Pt  -0.81587926  -0.82914375   0.47389656
| 15> Cl  -0.18680997  -0.39172441   2.66230275
| 16> Cl  -2.58422869  -2.06660544   1.12572099
| 17> Cl  -1.40458962  -1.15045027  -1.74438519
| 18> C    0.95850790   0.86219259  -0.47386233
| 19> H    1.43246744   1.65676016   0.10658028
| 20> H    1.05504839  -0.12926313   0.07489215
| 21> H    1.51791609   0.72604544  -1.40320884
| 22> H    0.02296587   1.32296440  -0.82033804
| 23> *
| 24>
| 25>                          ****END OF INPUT****

CARTESIAN COORDINATES (ANGSTROEM)
---------------------------------
  Pt    -0.815879   -0.829144    0.473897
  Cl    -0.186810   -0.391724    2.662303
  Cl    -2.584229   -2.066605    1.125721
  Cl    -1.404590   -1.150450   -1.744385
  C      0.958508    0.862193   -0.473862
  H      1.432467    1.656760    0.106580
  H      1.055048   -0.129263    0.074892
  H      1.517916    0.726045   -1.403209
  H      0.022966    1.322964   -0.820338

 Total Charge           Charge          ....   -1
 Multiplicity           Mult            ....    1
 Number of Electrons    NEL             ....   80
 Basis Dimension        Dim             ....  109

ORBITAL ENERGIES
----------------

  NO   OCC          E(Eh)            E(eV)
   0   2.0000    -102.104290     -2778.3990
   1   2.0000    -102.085416     -2777.8854
   2   2.0000    -102.085318     -2777.8827
   3   2.0000     -10.336464      -281.2695
   4   2.0000      -9.568459      -260.3710
   5   2.0000      -9.549609      -259.8581
   6   2.0000      -9.549522      -259.8557
   7   2.0000      -7.255746      -197.4389
   8   2.0000      -7.248684      -197.2467
   9   2.0000      -7.248310      -197.2365
  10   2.0000      -7.235537      -196.8890
  11   2.0000      -7.235440      -196.8863
  12   2.0000      -7.230543      -196.7531
  13   2.0000      -7.230494      -196.7517
  14   2.0000      -7.230450      -196.7506
  15   2.0000      -7.230420      -196.7497
  16   2.0000      -3.942238      -107.2738
  17   2.0000      -2.159477       -58.7624
  18   2.0000      -2.155294       -58.6485
  19   2.0000      -2.119265       -57.6681
  20   2.0000      -0.702257       -19.1094
  21   2.0000      -0.687192       -18.6994
  22   2.0000      -0.680776       -18.5249
  23   2.0000      -0.673640       -18.3307
  24   2.0000      -0.394284       -10.7290
  25   2.0000      -0.354312        -9.6413
  26   2.0000      -0.346780        -9.4364
  27   2.0000      -0.285136        -7.7589
  28   2.0000      -0.269552        -7.3349
  29   2.0000      -0.258986        -7.0474
  30   2.0000      -0.229747        -6.2517
  31   2.0000      -0.224816        -6.1175
  32   2.0000      -0.198276        -5.3954
  33   2.0000      -0.177153        -4.8206
  34   2.0000      -0.172501        -4.6940
  35   2.0000      -0.150043        -4.0829
  36   2.0000      -0.144708        -3.9377
  37   2.0000      -0.134864        -3.6698
  38   2.0000      -0.126374        -3.4388
  39   2.0000      -0.113179        -3.0797
  40   0.0000       0.089857         2.4451
  41   0.0000       0.192635         5.2419
  42   0.0000       0.207385         5.6432
  43   0.0000       0.260026         7.0757
  44   0.0000       0.272518         7.4156

MULLIKEN ATOMIC CHARGES
-----------------------
   0 Pt:    0.058511
   1 Cl:   -0.432653
   2 Cl:   -0.310040
   3 Cl:   -0.439463
   4 C :   -0.920451
   5 H :    0.238280
   6 H :    0.269359
   7 H :    0.242403
   8 H :    0.294054
Sum of atomic charges:   -1.0000000

LOEWDIN ATOMIC CHARGES
----------------------
   0 Pt:   -0.932427
   1 Cl:   -0.140032
   2 Cl:   -0.000971
   3 Cl:   -0.141010
   4 C :   -0.456031
   5 H :    0.136514
   6 H :    0.204179
   7 H :    0.138402
   8 H :    0.191376

  Mayer bond orders larger than 0.100000
B(  0-Pt,  1-Cl) :   0.8034 B(  0-Pt,  2-Cl) :   0.9849 B(  0-Pt,  3-Cl) :   0.7812
B(  0-Pt,  4-C ) :   0.1747 B(  0-Pt,  6-H ) :   0.1176 B(  1-Cl,  3-Cl) :   0.1145
B(  4-C ,  5-H ) :   0.9091 B(  4-C ,  6-H ) :   0.7774 B(  4-C ,  7-H ) :   0.9091
B(  4-C ,  8-H ) :   0.8776

Dispersion correction           -0.005022378
FINAL SINGLE POINT ENERGY     -1539.039695384920
Dispersion correction            ... done

DIPOLE MOMENT
-------------
                                X             Y             Z
Electronic contribution:      7.43913      -1.07584       0.78298
Nuclear contribution   :     -6.28503       2.05332      -1.35594
                        -----------------------------------------
Total Dipole Moment    :      1.15411       0.97748      -0.57295
                        -----------------------------------------
Magnitude (a.u.)       :      1.61732
Magnitude (Debye)      :      4.11089

Rotational constants in cm-1:     0.057840     0.043682     0.025107
Rotational constants in MHz :  1733.995794  1309.564912   752.700178

                             ****ORCA TERMINATED NORMALLY****
TOTAL RUN TIME: 0 days 0 hours 0 minutes 42 seconds 712 msec
