                         Program Version 5.0.3 -  RELEASE  -
|  1> ! EnGrad PBEh-3c
|  2> %output
|  3> xyzfile=True
|  4> end
|  5> %scf
|  6> maxiter 250
|  7> end
|  8> %output
|  9> Print[P_Hirshfeld] = 1
| 10> end
| 11> % maxcore
| 12> 4000
| 13> *xyz -1 1
| 14> Pt  -0.76749364  -0.81612052   0.45479004
| 15> Cl  -0.17006531  -0.36223778   2.65347357
| 16> Cl  -2.54465517  -2.02567683   1.11886092
| 17> Cl  -1.36571096  -1.15751025  -1.75412156
| 18> C    0.94531416   0.88238603  -0.49550627
| 19> H    1.43305531   1.58923805   0.14637347
| 20> H    0.95942233  -0.09453825   0.03698134
| 21> H    1.49541273   0.70367213  -1.38597980
| 22> H    0.00826304   1.28277587  -0.77123744
| 23> *
| 24>
| 25>                          ****END OF INPUT****

CARTESIAN COORDINATES (ANGSTROEM)
---------------------------------
  Pt    -0.767494   -0.816121    0.454790
  Cl    -0.170065   -0.362238    2.653474
  Cl    -2.544655   -2.025677    1.118861
  Cl    -1.365711   -1.157510   -1.754122
  C      0.945314    0.882386   -0.495506
  H      1.433055    1.589238    0.146373
  H      0.959422   -0.094538    0.036981
  H      1.495413    0.703672   -1.385980
  H      0.008263    1.282776   -0.771237

 Total Charge           Charge          ....   -1
 Multiplicity           Mult            ....    1
 Number of Electrons    NEL             ....   80
 Basis Dimension        Dim             ....  109

ORBITAL ENERGIES
----------------

  NO   OCC          E(Eh)            E(eV)
   0   2.0000    -102.102606     -2778.3532
   1   2.0000    -102.086047     -2777.9026
   2   2.0000    -102.084682     -2777.8654
   3   2.0000     -10.327812      -281.0340
   4   2.0000      -9.566943      -260.3297
   5   2.0000      -9.550294      -259.8767
   6   2.0000      -9.548830      -259.8369
   7   2.0000      -7.254170      -197.3960
   8   2.0000      -7.247195      -197.2062
   9   2.0000      -7.246802      -197.1955
  10   2.0000      -7.236238      -196.9080
  11   2.0000      -7.234763      -196.8679
  12   2.0000      -7.231226      -196.7717
  13   2.0000      -7.231156      -196.7698
  14   2.0000      -7.229752      -196.7315
  15   2.0000      -7.229730      -196.7309
  16   2.0000      -3.943020      -107.2950
  17   2.0000      -2.161000       -58.8038
  18   2.0000      -2.155832       -58.6632
  19   2.0000      -2.120007       -57.6883
  20   2.0000      -0.707670       -19.2567
  21   2.0000      -0.693604       -18.8739
  22   2.0000      -0.681697       -18.5499
  23   2.0000      -0.673645       -18.3308
  24   2.0000      -0.395101       -10.7512
  25   2.0000      -0.367715       -10.0060
  26   2.0000      -0.366419        -9.9708
  27   2.0000      -0.285567        -7.7707
  28   2.0000      -0.270779        -7.3683
  29   2.0000      -0.257979        -7.0200
  30   2.0000      -0.230113        -6.2617
  31   2.0000      -0.225432        -6.1343
  32   2.0000      -0.197971        -5.3871
  33   2.0000      -0.177018        -4.8169
  34   2.0000      -0.172323        -4.6892
  35   2.0000      -0.148855        -4.0505
  36   2.0000      -0.145326        -3.9545
  37   2.0000      -0.134907        -3.6710
  38   2.0000      -0.127337        -3.4650
  39   2.0000      -0.113455        -3.0873
  40   0.0000       0.092827         2.5260
  41   0.0000       0.193984         5.2786
  42   0.0000       0.208736         5.6800
  43   0.0000       0.267637         7.2828
  44   0.0000       0.273011         7.4290

MULLIKEN ATOMIC CHARGES
-----------------------
   0 Pt:    0.035594
   1 Cl:   -0.431306
   2 Cl:   -0.307781
   3 Cl:   -0.439252
   4 C :   -0.908469
   5 H :    0.245114
   6 H :    0.256502
   7 H :    0.251305
   8 H :    0.298293
Sum of atomic charges:   -1.0000000

LOEWDIN ATOMIC CHARGES
----------------------
   0 Pt:   -0.937733
   1 Cl:   -0.142311
   2 Cl:   -0.002826
   3 Cl:   -0.138556
   4 C :   -0.437454
   5 H :    0.140495
   6 H :    0.189402
   7 H :    0.141811
   8 H :    0.187172

  Mayer bond orders larger than 0.100000
B(  0-Pt,  1-Cl) :   0.8023 B(  0-Pt,  2-Cl) :   0.9813 B(  0-Pt,  3-Cl) :   0.7798
B(  0-Pt,  4-C ) :   0.1972 B(  0-Pt,  6-H ) :   0.1379 B(  1-Cl,  3-Cl) :   0.1151
B(  4-C ,  5-H ) :   0.9077 B(  4-C ,  6-H ) :   0.7562 B(  4-C ,  7-H ) :   0.9077
B(  4-C ,  8-H ) :   0.8748

Dispersion correction           -0.005091714
FINAL SINGLE POINT ENERGY     -1539.041866383307
Dispersion correction            ... done

DIPOLE MOMENT
-------------
                                X             Y             Z
Electronic contribution:      9.04483      -1.28123       0.08038
Nuclear contribution   :     -7.86881       2.26070      -0.67268
                        -----------------------------------------
Total Dipole Moment    :      1.17601       0.97947      -0.59231
                        -----------------------------------------
Magnitude (a.u.)       :      1.64110
Magnitude (Debye)      :      4.17134

Rotational constants in cm-1:     0.059033     0.043624     0.025330
Rotational constants in MHz :  1769.753492  1307.814122   759.377366

                             ****ORCA TERMINATED NORMALLY****
TOTAL RUN TIME: 0 days 0 hours 0 minutes 43 seconds 294 msec
