                         Program Version 5.0.3 -  RELEASE  -
|  1> ! EnGrad PBEh-3c
|  2> %output
|  3> xyzfile=True
|  4> end
|  5> %scf
|  6> maxiter 250
|  7> end
|  8> %output
|  9> Print[P_Hirshfeld] = 1
| 10> end
| 11> % maxcore
| 12> 4000
| 13> *xyz -1 1
| 14> Pt  -0.77231537  -0.81121092   0.45432075
| 15> Cl  -0.15913553  -0.35270996   2.65286802
| 16> Cl  -2.53144983  -2.01898615   1.11906751
| 17> Cl  -1.35147670  -1.16013026  -1.76480779
| 18> C    0.93831458   0.89357056  -0.49132697
| 19> H    1.43930085   1.58104192   0.16532810
| 20> H    0.95755731  -0.12044183   0.05139938
| 21> H    1.50278722   0.68940643  -1.40294266
| 22> H   -0.03058151   1.30160111  -0.77900229
| 23> *
| 24>
| 25>                          ****END OF INPUT****

CARTESIAN COORDINATES (ANGSTROEM)
---------------------------------
  Pt    -0.772315   -0.811211    0.454321
  Cl    -0.159136   -0.352710    2.652868
  Cl    -2.531450   -2.018986    1.119068
  Cl    -1.351477   -1.160130   -1.764808
  C      0.938315    0.893571   -0.491327
  H      1.439301    1.581042    0.165328
  H      0.957557   -0.120442    0.051399
  H      1.502787    0.689406   -1.402943
  H     -0.030582    1.301601   -0.779002

 Total Charge           Charge          ....   -1
 Multiplicity           Mult            ....    1
 Number of Electrons    NEL             ....   80
 Basis Dimension        Dim             ....  109

ORBITAL ENERGIES
----------------

  NO   OCC          E(Eh)            E(eV)
   0   2.0000    -102.102287     -2778.3445
   1   2.0000    -102.085974     -2777.9006
   2   2.0000    -102.084747     -2777.8672
   3   2.0000     -10.338328      -281.3202
   4   2.0000      -9.566893      -260.3284
   5   2.0000      -9.550132      -259.8723
   6   2.0000      -9.548843      -259.8372
   7   2.0000      -7.254081      -197.3936
   8   2.0000      -7.247144      -197.2048
   9   2.0000      -7.246739      -197.1938
  10   2.0000      -7.236073      -196.9036
  11   2.0000      -7.234787      -196.8686
  12   2.0000      -7.231077      -196.7676
  13   2.0000      -7.231008      -196.7657
  14   2.0000      -7.229760      -196.7318
  15   2.0000      -7.229745      -196.7314
  16   2.0000      -3.943394      -107.3052
  17   2.0000      -2.161648       -58.8214
  18   2.0000      -2.155822       -58.6629
  19   2.0000      -2.120402       -57.6991
  20   2.0000      -0.704526       -19.1711
  21   2.0000      -0.689213       -18.7544
  22   2.0000      -0.680941       -18.5294
  23   2.0000      -0.673402       -18.3242
  24   2.0000      -0.387523       -10.5450
  25   2.0000      -0.367455        -9.9989
  26   2.0000      -0.360677        -9.8145
  27   2.0000      -0.284720        -7.7476
  28   2.0000      -0.271158        -7.3786
  29   2.0000      -0.258451        -7.0328
  30   2.0000      -0.229773        -6.2524
  31   2.0000      -0.226658        -6.1677
  32   2.0000      -0.198070        -5.3898
  33   2.0000      -0.176830        -4.8118
  34   2.0000      -0.171992        -4.6801
  35   2.0000      -0.148733        -4.0472
  36   2.0000      -0.145524        -3.9599
  37   2.0000      -0.134045        -3.6476
  38   2.0000      -0.127156        -3.4601
  39   2.0000      -0.114047        -3.1034
  40   0.0000       0.094673         2.5762
  41   0.0000       0.192726         5.2443
  42   0.0000       0.207205         5.6383
  43   0.0000       0.265635         7.2283
  44   0.0000       0.273036         7.4297

MULLIKEN ATOMIC CHARGES
-----------------------
   0 Pt:    0.033757
   1 Cl:   -0.431855
   2 Cl:   -0.308033
   3 Cl:   -0.440517
   4 C :   -0.891417
   5 H :    0.247494
   6 H :    0.252146
   7 H :    0.245647
   8 H :    0.292778
Sum of atomic charges:   -1.0000000

LOEWDIN ATOMIC CHARGES
----------------------
   0 Pt:   -0.948301
   1 Cl:   -0.144564
   2 Cl:    0.002416
   3 Cl:   -0.142122
   4 C :   -0.433893
   5 H :    0.140538
   6 H :    0.192826
   7 H :    0.141996
   8 H :    0.191103

  Mayer bond orders larger than 0.100000
B(  0-Pt,  1-Cl) :   0.7996 B(  0-Pt,  2-Cl) :   0.9807 B(  0-Pt,  3-Cl) :   0.7765
B(  0-Pt,  4-C ) :   0.2055 B(  0-Pt,  6-H ) :   0.1501 B(  1-Cl,  3-Cl) :   0.1148
B(  4-C ,  5-H ) :   0.9028 B(  4-C ,  6-H ) :   0.7433 B(  4-C ,  7-H ) :   0.9083
B(  4-C ,  8-H ) :   0.8769

Dispersion correction           -0.005095703
FINAL SINGLE POINT ENERGY     -1539.042809481008
Dispersion correction            ... done

DIPOLE MOMENT
-------------
                                X             Y             Z
Electronic contribution:      8.23699      -1.22910       0.19883
Nuclear contribution   :     -7.07570       2.20932      -0.78090
                        -----------------------------------------
Total Dipole Moment    :      1.16129       0.98022      -0.58207
                        -----------------------------------------
Magnitude (a.u.)       :      1.62734
Magnitude (Debye)      :      4.13636

Rotational constants in cm-1:     0.059434     0.043412     0.025336
Rotational constants in MHz :  1781.786537  1301.453017   759.555875

                             ****ORCA TERMINATED NORMALLY****
TOTAL RUN TIME: 0 days 0 hours 0 minutes 39 seconds 581 msec
