                         Program Version 5.0.3 -  RELEASE  -
|  1> ! EnGrad PBEh-3c
|  2> %output
|  3> xyzfile=True
|  4> end
|  5> %scf
|  6> maxiter 250
|  7> end
|  8> %output
|  9> Print[P_Hirshfeld] = 1
| 10> end
| 11> % maxcore
| 12> 4000
| 13> *xyz -1 1
| 14> Pd  -2.28940024  -1.64969869   0.80865457
| 15> Cl  -3.70276243  -3.23072402  -0.06992667
| 16> Cl  -1.00336206  -4.27704448   1.65738086
| 17> Cl  -3.79230541  -0.02153432   0.36039422
| 18> N   -0.91637779  -0.18926876   1.43479865
| 19> C   -1.21780757   0.35093818   2.59952710
| 20> C   -0.73754877   1.58995384   3.02626555
| 21> C    0.08355792   2.28198172   2.17579378
| 22> C   -0.07218287   0.44293027   0.59423631
| 23> C    0.43067462   1.71333621   0.94397737
| 24> H    0.46530189   3.25446262   2.46520987
| 25> H   -1.91041190  -0.19921781   3.22656016
| 26> H   -1.02436936   1.98358952   3.99176063
| 27> C    0.35619875  -0.21794912  -0.61049566
| 28> C    1.28002321   2.41123787   0.03432652
| 29> C    1.61306021   1.84930371  -1.14460878
| 30> C    1.18269246   0.52798332  -1.48170291
| 31> H    1.64219445   3.40023512   0.29568070
| 32> H    2.24731311   2.40142889  -1.83280287
| 33> C    0.02310829  -1.55337036  -0.92041621
| 34> C    1.63296703  -0.04666838  -2.67913684
| 35> C    0.45864661  -2.06035540  -2.13016074
| 36> C    1.29253581  -1.33880792  -2.99045193
| 37> H    2.25986785   0.51995737  -3.35930725
| 38> H    1.65612150  -1.76921937  -3.91703215
| 39> H   -0.16670722  -3.09834745  -0.05987436
| 40> H    0.20896537  -3.07513255  -2.41865649
| 41> *
| 42>
| 43>                          ****END OF INPUT****

CARTESIAN COORDINATES (ANGSTROEM)
---------------------------------
  Pd    -2.289400   -1.649699    0.808655
  Cl    -3.702762   -3.230724   -0.069927
  Cl    -1.003362   -4.277044    1.657381
  Cl    -3.792305   -0.021534    0.360394
  N     -0.916378   -0.189269    1.434799
  C     -1.217808    0.350938    2.599527
  C     -0.737549    1.589954    3.026266
  C      0.083558    2.281982    2.175794
  C     -0.072183    0.442930    0.594236
  C      0.430675    1.713336    0.943977
  H      0.465302    3.254463    2.465210
  H     -1.910412   -0.199218    3.226560
  H     -1.024369    1.983590    3.991761
  C      0.356199   -0.217949   -0.610496
  C      1.280023    2.411238    0.034327
  C      1.613060    1.849304   -1.144609
  C      1.182692    0.527983   -1.481703
  H      1.642194    3.400235    0.295681
  H      2.247313    2.401429   -1.832803
  C      0.023108   -1.553370   -0.920416
  C      1.632967   -0.046668   -2.679137
  C      0.458647   -2.060355   -2.130161
  C      1.292536   -1.338808   -2.990452
  H      2.259868    0.519957   -3.359307
  H      1.656122   -1.769219   -3.917032
  H     -0.166707   -3.098347   -0.059874
  H      0.208965   -3.075133   -2.418656

 Total Charge           Charge          ....   -1
 Multiplicity           Mult            ....    1
 Number of Electrons    NEL             ....  164
 Basis Dimension        Dim             ....  313

ORBITAL ENERGIES
----------------

  NO   OCC          E(Eh)            E(eV)
   0   2.0000    -102.105808     -2778.4403
   1   2.0000    -102.082707     -2777.8117
   2   2.0000    -102.058242     -2777.1459
   3   2.0000     -14.600198      -397.2916
   4   2.0000     -10.420776      -283.5637
   5   2.0000     -10.415154      -283.4108
   6   2.0000     -10.399344      -282.9805
   7   2.0000     -10.392979      -282.8073
   8   2.0000     -10.384485      -282.5762
   9   2.0000     -10.380788      -282.4756
  10   2.0000     -10.379962      -282.4531
  11   2.0000     -10.379726      -282.4467
  12   2.0000     -10.376887      -282.3694
  13   2.0000     -10.366042      -282.0743
  14   2.0000     -10.362719      -281.9839
  15   2.0000     -10.361445      -281.9492
  16   2.0000     -10.349544      -281.6254
  17   2.0000      -9.569819      -260.4080
  18   2.0000      -9.547053      -259.7885
  19   2.0000      -9.520141      -259.0562
  20   2.0000      -7.256264      -197.4530
  21   2.0000      -7.250520      -197.2967
  22   2.0000      -7.250247      -197.2892
  23   2.0000      -7.233634      -196.8372
  24   2.0000      -7.227684      -196.6753
  25   2.0000      -7.227248      -196.6634
  26   2.0000      -7.204507      -196.0446
  27   2.0000      -7.202887      -196.0005
  28   2.0000      -7.201279      -195.9568
  29   2.0000      -3.522113       -95.8416
  30   2.0000      -2.172522       -59.1173
  31   2.0000      -2.163337       -58.8674
  32   2.0000      -2.133113       -58.0450
  33   2.0000      -0.997265       -27.1370
  34   2.0000      -0.893854       -24.3230
  35   2.0000      -0.855309       -23.2742
  36   2.0000      -0.822575       -22.3834
  37   2.0000      -0.787113       -21.4184
  38   2.0000      -0.751808       -20.4577
  39   2.0000      -0.729165       -19.8416
  40   2.0000      -0.695948       -18.9377
  41   2.0000      -0.670838       -18.2544
  42   2.0000      -0.654280       -17.8039
  43   2.0000      -0.650436       -17.6993
  44   2.0000      -0.635739       -17.2993
  45   2.0000      -0.617222       -16.7955
  46   2.0000      -0.582677       -15.8554
  47   2.0000      -0.536239       -14.5918
  48   2.0000      -0.525065       -14.2878
  49   2.0000      -0.503724       -13.7070
  50   2.0000      -0.468398       -12.7457
  51   2.0000      -0.467990       -12.7347
  52   2.0000      -0.439015       -11.9462
  53   2.0000      -0.420816       -11.4510
  54   2.0000      -0.417528       -11.3615
  55   2.0000      -0.407496       -11.0885
  56   2.0000      -0.395608       -10.7651
  57   2.0000      -0.384908       -10.4739
  58   2.0000      -0.362481        -9.8636
  59   2.0000      -0.352057        -9.5800
  60   2.0000      -0.345061        -9.3896
  61   2.0000      -0.323079        -8.7914
  62   2.0000      -0.311928        -8.4880
  63   2.0000      -0.301614        -8.2073
  64   2.0000      -0.276125        -7.5137
  65   2.0000      -0.268574        -7.3083
  66   2.0000      -0.261130        -7.1057
  67   2.0000      -0.251596        -6.8463
  68   2.0000      -0.236090        -6.4243
  69   2.0000      -0.230512        -6.2726
  70   2.0000      -0.229669        -6.2496
  71   2.0000      -0.217467        -5.9176
  72   2.0000      -0.194635        -5.2963
  73   2.0000      -0.179312        -4.8793
  74   2.0000      -0.165299        -4.4980
  75   2.0000      -0.164310        -4.4711
  76   2.0000      -0.163528        -4.4498
  77   2.0000      -0.153194        -4.1686
  78   2.0000      -0.143871        -3.9149
  79   2.0000      -0.141331        -3.8458
  80   2.0000      -0.126562        -3.4439
  81   2.0000      -0.123602        -3.3634
  82   0.0000       0.037075         1.0089
  83   0.0000       0.057035         1.5520
  84   0.0000       0.061161         1.6643
  85   0.0000       0.100416         2.7324
  86   0.0000       0.110740         3.0134

MULLIKEN ATOMIC CHARGES
-----------------------
   0 Pd:    0.189696
   1 Cl:   -0.307211
   2 Cl:   -0.530217
   3 Cl:   -0.354481
   4 N :   -0.564533
   5 C :    0.047680
   6 C :   -0.310553
   7 C :   -0.156881
   8 C :    0.397041
   9 C :    0.034888
  10 H :    0.213749
  11 H :    0.280680
  12 H :    0.223432
  13 C :   -0.019600
  14 C :   -0.298083
  15 C :   -0.276707
  16 C :    0.123139
  17 H :    0.197401
  18 H :    0.198841
  19 C :   -0.179608
  20 C :   -0.314514
  21 C :   -0.251955
  22 C :   -0.198706
  23 H :    0.192312
  24 H :    0.199326
  25 H :    0.235046
  26 H :    0.229817
Sum of atomic charges:   -1.0000000

LOEWDIN ATOMIC CHARGES
----------------------
   0 Pd:   -0.811937
   1 Cl:   -0.056069
   2 Cl:   -0.440818
   3 Cl:   -0.058695
   4 N :    0.031907
   5 C :    0.017643
   6 C :   -0.162896
   7 C :   -0.082560
   8 C :    0.093493
   9 C :   -0.049677
  10 H :    0.136834
  11 H :    0.166642
  12 H :    0.142198
  13 C :   -0.034117
  14 C :   -0.138910
  15 C :   -0.115615
  16 C :   -0.029983
  17 H :    0.131235
  18 H :    0.132984
  19 C :   -0.099734
  20 C :   -0.146587
  21 C :   -0.142610
  22 C :   -0.133149
  23 H :    0.125992
  24 H :    0.127492
  25 H :    0.259134
  26 H :    0.137802

  Mayer bond orders larger than 0.100000
B(  0-Pd,  1-Cl) :   0.9536 B(  0-Pd,  2-Cl) :   0.3735 B(  0-Pd,  3-Cl) :   0.9222
B(  0-Pd,  4-N ) :   0.3667 B(  2-Cl, 25-H ) :   0.2754 B(  4-N ,  5-C ) :   1.4629
B(  4-N ,  8-C ) :   1.1923 B(  5-C ,  6-C ) :   1.3217 B(  5-C , 11-H ) :   0.8940
B(  6-C ,  7-C ) :   1.4631 B(  6-C , 12-H ) :   0.9177 B(  7-C ,  9-C ) :   1.2785
B(  7-C , 10-H ) :   0.9278 B(  8-C ,  9-C ) :   1.2230 B(  8-C , 13-C ) :   1.1147
B(  9-C , 14-C ) :   1.1641 B( 13-C , 16-C ) :   1.2921 B( 13-C , 19-C ) :   1.3364
B( 14-C , 15-C ) :   1.6492 B( 14-C , 17-H ) :   0.9292 B( 15-C , 16-C ) :   1.1521
B( 15-C , 18-H ) :   0.9277 B( 16-C , 20-C ) :   1.2807 B( 19-C , 21-C ) :   1.4630
B( 19-C , 25-H ) :   0.5753 B( 20-C , 22-C ) :   1.4933 B( 20-C , 23-H ) :   0.9308
B( 21-C , 22-C ) :   1.3526 B( 21-C , 26-H ) :   0.9159 B( 22-C , 24-H ) :   0.9210

Dispersion correction           -0.024733705
FINAL SINGLE POINT ENERGY     -2061.389526781710
Dispersion correction            ... done

DIPOLE MOMENT
-------------
                                X             Y             Z
Electronic contribution:    -90.01546     -60.03508      35.25609
Nuclear contribution   :     93.17901      64.33639     -35.28261
                        -----------------------------------------
Total Dipole Moment    :      3.16355       4.30131      -0.02651
                        -----------------------------------------
Magnitude (a.u.)       :      5.33948
Magnitude (Debye)      :     13.57187

Rotational constants in cm-1:     0.011861     0.007198     0.005775
Rotational constants in MHz :   355.587484   215.781762   173.116856

                             ****ORCA TERMINATED NORMALLY****
TOTAL RUN TIME: 0 days 0 hours 13 minutes 0 seconds 990 msec
