                         Program Version 5.0.3 -  RELEASE  -
|  1> ! EnGrad PBEh-3c
|  2> %output
|  3> xyzfile=True
|  4> end
|  5> %scf
|  6> maxiter 250
|  7> end
|  8> %output
|  9> Print[P_Hirshfeld] = 1
| 10> end
| 11> % maxcore
| 12> 4000
| 13> *xyz -1 1
| 14> Pd  -2.14477850  -1.76717617   0.69613144
| 15> Cl  -3.55246676  -3.27206525  -0.16803622
| 16> Cl  -0.70334747  -4.30270661   1.28742145
| 17> Cl  -3.93073799  -0.24303182   0.73370158
| 18> N   -0.96702754  -0.13732362   1.43585432
| 19> C   -1.28458758   0.43382245   2.58522805
| 20> C   -0.76322518   1.66461180   3.00558671
| 21> C    0.08219252   2.33742925   2.16509406
| 22> C   -0.07022316   0.45096435   0.61875461
| 23> C    0.44383030   1.74414648   0.94572861
| 24> H    0.48638945   3.30810492   2.43794727
| 25> H   -1.96535524  -0.11657589   3.22200437
| 26> H   -1.06973791   2.07994963   3.95507088
| 27> C    0.35384299  -0.29862601  -0.55770244
| 28> C    1.33014747   2.42043436   0.04863682
| 29> C    1.65835260   1.82558179  -1.11512930
| 30> C    1.17490475   0.49372074  -1.44205443
| 31> H    1.72310767   3.40253853   0.31998217
| 32> H    2.33893228   2.34592380  -1.80373808
| 33> C    0.02166374  -1.70541884  -0.82294247
| 34> C    1.64628733  -0.05971387  -2.65303172
| 35> C    0.37092726  -2.06759609  -2.11284693
| 36> C    1.19770308  -1.31387197  -2.98993630
| 37> H    2.33123836   0.49220264  -3.30840162
| 38> H    1.58492914  -1.78656648  -3.88932027
| 39> H   -0.32664766  -2.90049665  -0.11579208
| 40> H    0.02867399  -3.02887541  -2.47250028
| 41> *
| 42>
| 43>                          ****END OF INPUT****

CARTESIAN COORDINATES (ANGSTROEM)
---------------------------------
  Pd    -2.144779   -1.767176    0.696131
  Cl    -3.552467   -3.272065   -0.168036
  Cl    -0.703347   -4.302707    1.287421
  Cl    -3.930738   -0.243032    0.733702
  N     -0.967028   -0.137324    1.435854
  C     -1.284588    0.433822    2.585228
  C     -0.763225    1.664612    3.005587
  C      0.082193    2.337429    2.165094
  C     -0.070223    0.450964    0.618755
  C      0.443830    1.744146    0.945729
  H      0.486389    3.308105    2.437947
  H     -1.965355   -0.116576    3.222004
  H     -1.069738    2.079950    3.955071
  C      0.353843   -0.298626   -0.557702
  C      1.330147    2.420434    0.048637
  C      1.658353    1.825582   -1.115129
  C      1.174905    0.493721   -1.442054
  H      1.723108    3.402539    0.319982
  H      2.338932    2.345924   -1.803738
  C      0.021664   -1.705419   -0.822942
  C      1.646287   -0.059714   -2.653032
  C      0.370927   -2.067596   -2.112847
  C      1.197703   -1.313872   -2.989936
  H      2.331238    0.492203   -3.308402
  H      1.584929   -1.786566   -3.889320
  H     -0.326648   -2.900497   -0.115792
  H      0.028674   -3.028875   -2.472500

 Total Charge           Charge          ....   -1
 Multiplicity           Mult            ....    1
 Number of Electrons    NEL             ....  164
 Basis Dimension        Dim             ....  313

ORBITAL ENERGIES
----------------

  NO   OCC          E(Eh)            E(eV)
   0   2.0000    -102.101382     -2778.3198
   1   2.0000    -102.090320     -2778.0188
   2   2.0000    -102.051208     -2776.9545
   3   2.0000     -14.599109      -397.2620
   4   2.0000     -10.422631      -283.6142
   5   2.0000     -10.413721      -283.3718
   6   2.0000     -10.398583      -282.9598
   7   2.0000     -10.394969      -282.8615
   8   2.0000     -10.389590      -282.7151
   9   2.0000     -10.386241      -282.6240
  10   2.0000     -10.384372      -282.5731
  11   2.0000     -10.383604      -282.5522
  12   2.0000     -10.381236      -282.4878
  13   2.0000     -10.369840      -282.1777
  14   2.0000     -10.367115      -282.1035
  15   2.0000     -10.365217      -282.0519
  16   2.0000     -10.353242      -281.7261
  17   2.0000      -9.564701      -260.2687
  18   2.0000      -9.555413      -260.0160
  19   2.0000      -9.514036      -258.8901
  20   2.0000      -7.251127      -197.3132
  21   2.0000      -7.245483      -197.1596
  22   2.0000      -7.245200      -197.1519
  23   2.0000      -7.242150      -197.0689
  24   2.0000      -7.235885      -196.8984
  25   2.0000      -7.235378      -196.8846
  26   2.0000      -7.198384      -195.8780
  27   2.0000      -7.196532      -195.8276
  28   2.0000      -7.195325      -195.7948
  29   2.0000      -3.524253       -95.8998
  30   2.0000      -2.176446       -59.2241
  31   2.0000      -2.162992       -58.8580
  32   2.0000      -2.136153       -58.1277
  33   2.0000      -0.993128       -27.0244
  34   2.0000      -0.885750       -24.1025
  35   2.0000      -0.852097       -23.1867
  36   2.0000      -0.818683       -22.2775
  37   2.0000      -0.783076       -21.3086
  38   2.0000      -0.744632       -20.2625
  39   2.0000      -0.732322       -19.9275
  40   2.0000      -0.691025       -18.8037
  41   2.0000      -0.678602       -18.4657
  42   2.0000      -0.650796       -17.7090
  43   2.0000      -0.646122       -17.5819
  44   2.0000      -0.636760       -17.3271
  45   2.0000      -0.612676       -16.6718
  46   2.0000      -0.582764       -15.8578
  47   2.0000      -0.533249       -14.5104
  48   2.0000      -0.521561       -14.1924
  49   2.0000      -0.501893       -13.6572
  50   2.0000      -0.467421       -12.7192
  51   2.0000      -0.465051       -12.6547
  52   2.0000      -0.434974       -11.8362
  53   2.0000      -0.418947       -11.4001
  54   2.0000      -0.412335       -11.2202
  55   2.0000      -0.405121       -11.0239
  56   2.0000      -0.392077       -10.6690
  57   2.0000      -0.387672       -10.5491
  58   2.0000      -0.368653       -10.0315
  59   2.0000      -0.347615        -9.4591
  60   2.0000      -0.345466        -9.4006
  61   2.0000      -0.319316        -8.6890
  62   2.0000      -0.312905        -8.5146
  63   2.0000      -0.302533        -8.2323
  64   2.0000      -0.297748        -8.1021
  65   2.0000      -0.273266        -7.4359
  66   2.0000      -0.262902        -7.1539
  67   2.0000      -0.252877        -6.8811
  68   2.0000      -0.239302        -6.5117
  69   2.0000      -0.234537        -6.3821
  70   2.0000      -0.228438        -6.2161
  71   2.0000      -0.226743        -6.1700
  72   2.0000      -0.189389        -5.1535
  73   2.0000      -0.182352        -4.9620
  74   2.0000      -0.169945        -4.6244
  75   2.0000      -0.168618        -4.5883
  76   2.0000      -0.164209        -4.4684
  77   2.0000      -0.152803        -4.1580
  78   2.0000      -0.147826        -4.0225
  79   2.0000      -0.139228        -3.7886
  80   2.0000      -0.128836        -3.5058
  81   2.0000      -0.123174        -3.3517
  82   0.0000       0.041137         1.1194
  83   0.0000       0.053741         1.4624
  84   0.0000       0.058889         1.6025
  85   0.0000       0.098614         2.6834
  86   0.0000       0.126118         3.4318

MULLIKEN ATOMIC CHARGES
-----------------------
   0 Pd:    0.193994
   1 Cl:   -0.279216
   2 Cl:   -0.541573
   3 Cl:   -0.374227
   4 N :   -0.553025
   5 C :    0.050999
   6 C :   -0.324716
   7 C :   -0.150907
   8 C :    0.356906
   9 C :    0.040849
  10 H :    0.213624
  11 H :    0.278429
  12 H :    0.222010
  13 C :   -0.011329
  14 C :   -0.296521
  15 C :   -0.259797
  16 C :    0.102636
  17 H :    0.198083
  18 H :    0.198798
  19 C :   -0.271758
  20 C :   -0.306089
  21 C :   -0.222222
  22 C :   -0.198608
  23 H :    0.195337
  24 H :    0.199080
  25 H :    0.302268
  26 H :    0.236975
Sum of atomic charges:   -1.0000000

LOEWDIN ATOMIC CHARGES
----------------------
   0 Pd:   -0.815478
   1 Cl:   -0.007649
   2 Cl:   -0.451018
   3 Cl:   -0.110234
   4 N :    0.026300
   5 C :    0.012719
   6 C :   -0.166170
   7 C :   -0.087313
   8 C :    0.087207
   9 C :   -0.050120
  10 H :    0.136775
  11 H :    0.164538
  12 H :    0.141330
  13 C :   -0.014793
  14 C :   -0.141929
  15 C :   -0.119165
  16 C :   -0.028672
  17 H :    0.131240
  18 H :    0.133698
  19 C :   -0.112721
  20 C :   -0.145671
  21 C :   -0.125418
  22 C :   -0.133805
  23 H :    0.127847
  24 H :    0.128777
  25 H :    0.276304
  26 H :    0.143420

  Mayer bond orders larger than 0.100000
B(  0-Pd,  1-Cl) :   0.9849 B(  0-Pd,  2-Cl) :   0.3708 B(  0-Pd,  3-Cl) :   0.8586
B(  0-Pd,  4-N ) :   0.3537 B(  2-Cl, 25-H ) :   0.2976 B(  4-N ,  5-C ) :   1.4719
B(  4-N ,  8-C ) :   1.1963 B(  5-C ,  6-C ) :   1.3221 B(  5-C , 11-H ) :   0.8939
B(  6-C ,  7-C ) :   1.4547 B(  6-C , 12-H ) :   0.9181 B(  7-C ,  9-C ) :   1.2831
B(  7-C , 10-H ) :   0.9274 B(  8-C ,  9-C ) :   1.2075 B(  8-C , 13-C ) :   1.1059
B(  9-C , 14-C ) :   1.1657 B( 13-C , 16-C ) :   1.3030 B( 13-C , 19-C ) :   1.2385
B( 14-C , 15-C ) :   1.6391 B( 14-C , 17-H ) :   0.9280 B( 15-C , 16-C ) :   1.1441
B( 15-C , 18-H ) :   0.9276 B( 16-C , 20-C ) :   1.2666 B( 19-C , 21-C ) :   1.4485
B( 19-C , 25-H ) :   0.5606 B( 20-C , 22-C ) :   1.5052 B( 20-C , 23-H ) :   0.9287
B( 21-C , 22-C ) :   1.3258 B( 21-C , 26-H ) :   0.9114 B( 22-C , 24-H ) :   0.9246

Dispersion correction           -0.024440695
FINAL SINGLE POINT ENERGY     -2061.437744298986
Dispersion correction            ... done

DIPOLE MOMENT
-------------
                                X             Y             Z
Electronic contribution:    -83.69139     -65.07104      29.53858
Nuclear contribution   :     86.64164      69.41533     -29.66400
                        -----------------------------------------
Total Dipole Moment    :      2.95025       4.34429      -0.12542
                        -----------------------------------------
Magnitude (a.u.)       :      5.25286
Magnitude (Debye)      :     13.35171

Rotational constants in cm-1:     0.011821     0.007503     0.005748
Rotational constants in MHz :   354.395215   224.928544   172.327175

                             ****ORCA TERMINATED NORMALLY****
TOTAL RUN TIME: 0 days 0 hours 13 minutes 36 seconds 785 msec
