                         Program Version 5.0.3 -  RELEASE  -
|  1> ! EnGrad PBEh-3c
|  2> %output
|  3> xyzfile=True
|  4> end
|  5> %scf
|  6> maxiter 250
|  7> end
|  8> %output
|  9> Print[P_Hirshfeld] = 1
| 10> end
| 11> % maxcore
| 12> 4000
| 13> *xyz -1 1
| 14> Pd  -2.13267861  -1.75993827   0.68126092
| 15> Cl  -3.53684541  -3.27960288  -0.18087926
| 16> Cl  -0.66831063  -4.29709311   1.23762133
| 17> Cl  -3.94126847  -0.26858707   0.77500319
| 18> N   -0.96848226  -0.13449639   1.43527645
| 19> C   -1.29111526   0.43992208   2.58388293
| 20> C   -0.76673955   1.67143208   3.00161227
| 21> C    0.08075182   2.33991395   2.16349095
| 22> C   -0.06945435   0.45013921   0.62015618
| 23> C    0.44518892   1.74426682   0.94496965
| 24> H    0.48786417   3.31273839   2.43455202
| 25> H   -1.97346115  -0.10718857   3.22047456
| 26> H   -1.07425790   2.08899949   3.95220986
| 27> C    0.35810111  -0.30158294  -0.55154468
| 28> C    1.33421982   2.41787022   0.04874529
| 29> C    1.66087861   1.82044192  -1.11036502
| 30> C    1.17725855   0.48802023  -1.43603149
| 31> H    1.73046899   3.40163164   0.32218128
| 32> H    2.34534360   2.33721488  -1.79997877
| 33> C    0.01625364  -1.70160968  -0.82009989
| 34> C    1.64400620  -0.06275217  -2.64948430
| 35> C    0.36195466  -2.06887485  -2.10995053
| 36> C    1.18984417  -1.31691928  -2.98627178
| 37> H    2.33544183   0.48697451  -3.30025324
| 38> H    1.57396457  -1.78738858  -3.88659610
| 39> H   -0.33731369  -2.88738766  -0.10493470
| 40> H    0.01233971  -3.02659934  -2.47807454
| 41> *
| 42>
| 43>                          ****END OF INPUT****

CARTESIAN COORDINATES (ANGSTROEM)
---------------------------------
  Pd    -2.132679   -1.759938    0.681261
  Cl    -3.536845   -3.279603   -0.180879
  Cl    -0.668311   -4.297093    1.237621
  Cl    -3.941268   -0.268587    0.775003
  N     -0.968482   -0.134496    1.435276
  C     -1.291115    0.439922    2.583883
  C     -0.766740    1.671432    3.001612
  C      0.080752    2.339914    2.163491
  C     -0.069454    0.450139    0.620156
  C      0.445189    1.744267    0.944970
  H      0.487864    3.312738    2.434552
  H     -1.973461   -0.107189    3.220475
  H     -1.074258    2.088999    3.952210
  C      0.358101   -0.301583   -0.551545
  C      1.334220    2.417870    0.048745
  C      1.660879    1.820442   -1.110365
  C      1.177259    0.488020   -1.436031
  H      1.730469    3.401632    0.322181
  H      2.345344    2.337215   -1.799979
  C      0.016254   -1.701610   -0.820100
  C      1.644006   -0.062752   -2.649484
  C      0.361955   -2.068875   -2.109951
  C      1.189844   -1.316919   -2.986272
  H      2.335442    0.486975   -3.300253
  H      1.573965   -1.787389   -3.886596
  H     -0.337314   -2.887388   -0.104935
  H      0.012340   -3.026599   -2.478075

 Total Charge           Charge          ....   -1
 Multiplicity           Mult            ....    1
 Number of Electrons    NEL             ....  164
 Basis Dimension        Dim             ....  313

ORBITAL ENERGIES
----------------

  NO   OCC          E(Eh)            E(eV)
   0   2.0000    -102.101939     -2778.3350
   1   2.0000    -102.090020     -2778.0107
   2   2.0000    -102.051165     -2776.9534
   3   2.0000     -14.599654      -397.2768
   4   2.0000     -10.422419      -283.6084
   5   2.0000     -10.414180      -283.3842
   6   2.0000     -10.398651      -282.9617
   7   2.0000     -10.394883      -282.8592
   8   2.0000     -10.388108      -282.6748
   9   2.0000     -10.385366      -282.6002
  10   2.0000     -10.383825      -282.5582
  11   2.0000     -10.383763      -282.5565
  12   2.0000     -10.380973      -282.4806
  13   2.0000     -10.367530      -282.1148
  14   2.0000     -10.366795      -282.0948
  15   2.0000     -10.364660      -282.0367
  16   2.0000     -10.352956      -281.7182
  17   2.0000      -9.565268      -260.2842
  18   2.0000      -9.555021      -260.0054
  19   2.0000      -9.514181      -258.8940
  20   2.0000      -7.251681      -197.3283
  21   2.0000      -7.246063      -197.1754
  22   2.0000      -7.245767      -197.1674
  23   2.0000      -7.241757      -197.0582
  24   2.0000      -7.235505      -196.8881
  25   2.0000      -7.235002      -196.8744
  26   2.0000      -7.198522      -195.8817
  27   2.0000      -7.196652      -195.8309
  28   2.0000      -7.195453      -195.7982
  29   2.0000      -3.525024       -95.9208
  30   2.0000      -2.177191       -59.2444
  31   2.0000      -2.163794       -58.8798
  32   2.0000      -2.136851       -58.1467
  33   2.0000      -0.993280       -27.0285
  34   2.0000      -0.885849       -24.1052
  35   2.0000      -0.852053       -23.1855
  36   2.0000      -0.818762       -22.2796
  37   2.0000      -0.783002       -21.3066
  38   2.0000      -0.744583       -20.2611
  39   2.0000      -0.731864       -19.9150
  40   2.0000      -0.691200       -18.8085
  41   2.0000      -0.678393       -18.4600
  42   2.0000      -0.650728       -17.7072
  43   2.0000      -0.646107       -17.5815
  44   2.0000      -0.638018       -17.3614
  45   2.0000      -0.612283       -16.6611
  46   2.0000      -0.582483       -15.8502
  47   2.0000      -0.532909       -14.5012
  48   2.0000      -0.521472       -14.1900
  49   2.0000      -0.501761       -13.6536
  50   2.0000      -0.467080       -12.7099
  51   2.0000      -0.464725       -12.6458
  52   2.0000      -0.434599       -11.8260
  53   2.0000      -0.419166       -11.4061
  54   2.0000      -0.412239       -11.2176
  55   2.0000      -0.405087       -11.0230
  56   2.0000      -0.391975       -10.6662
  57   2.0000      -0.387770       -10.5518
  58   2.0000      -0.368770       -10.0347
  59   2.0000      -0.347581        -9.4582
  60   2.0000      -0.345223        -9.3940
  61   2.0000      -0.319547        -8.6953
  62   2.0000      -0.313272        -8.5246
  63   2.0000      -0.303194        -8.2503
  64   2.0000      -0.297937        -8.1073
  65   2.0000      -0.273349        -7.4382
  66   2.0000      -0.263318        -7.1653
  67   2.0000      -0.253209        -6.8902
  68   2.0000      -0.238770        -6.4973
  69   2.0000      -0.234653        -6.3852
  70   2.0000      -0.228643        -6.2217
  71   2.0000      -0.226871        -6.1735
  72   2.0000      -0.189286        -5.1507
  73   2.0000      -0.182458        -4.9649
  74   2.0000      -0.170560        -4.6412
  75   2.0000      -0.169216        -4.6046
  76   2.0000      -0.164224        -4.4688
  77   2.0000      -0.153303        -4.1716
  78   2.0000      -0.148099        -4.0300
  79   2.0000      -0.139832        -3.8050
  80   2.0000      -0.128165        -3.4875
  81   2.0000      -0.122916        -3.3447
  82   0.0000       0.041369         1.1257
  83   0.0000       0.053377         1.4525
  84   0.0000       0.059166         1.6100
  85   0.0000       0.098720         2.6863
  86   0.0000       0.126970         3.4550

MULLIKEN ATOMIC CHARGES
-----------------------
   0 Pd:    0.197854
   1 Cl:   -0.280970
   2 Cl:   -0.539151
   3 Cl:   -0.372634
   4 N :   -0.555387
   5 C :    0.050829
   6 C :   -0.325786
   7 C :   -0.150132
   8 C :    0.356567
   9 C :    0.039465
  10 H :    0.213389
  11 H :    0.279037
  12 H :    0.221769
  13 C :   -0.006219
  14 C :   -0.295290
  15 C :   -0.260500
  16 C :    0.103580
  17 H :    0.197668
  18 H :    0.198168
  19 C :   -0.272474
  20 C :   -0.307113
  21 C :   -0.224034
  22 C :   -0.199066
  23 H :    0.195245
  24 H :    0.198866
  25 H :    0.298951
  26 H :    0.237369
Sum of atomic charges:   -1.0000000

LOEWDIN ATOMIC CHARGES
----------------------
   0 Pd:   -0.812947
   1 Cl:   -0.012080
   2 Cl:   -0.450842
   3 Cl:   -0.108122
   4 N :    0.026806
   5 C :    0.013005
   6 C :   -0.166468
   7 C :   -0.087566
   8 C :    0.087280
   9 C :   -0.049925
  10 H :    0.136740
  11 H :    0.164762
  12 H :    0.141309
  13 C :   -0.015790
  14 C :   -0.142290
  15 C :   -0.118833
  16 C :   -0.028744
  17 H :    0.131182
  18 H :    0.133412
  19 C :   -0.114396
  20 C :   -0.145814
  21 C :   -0.123642
  22 C :   -0.133597
  23 H :    0.127808
  24 H :    0.128549
  25 H :    0.276150
  26 H :    0.144055

  Mayer bond orders larger than 0.100000
B(  0-Pd,  1-Cl) :   0.9816 B(  0-Pd,  2-Cl) :   0.3524 B(  0-Pd,  3-Cl) :   0.8600
B(  0-Pd,  4-N ) :   0.3579 B(  2-Cl, 25-H ) :   0.3171 B(  4-N ,  5-C ) :   1.4694
B(  4-N ,  8-C ) :   1.1934 B(  5-C ,  6-C ) :   1.3229 B(  5-C , 11-H ) :   0.8934
B(  6-C ,  7-C ) :   1.4537 B(  6-C , 12-H ) :   0.9182 B(  7-C ,  9-C ) :   1.2837
B(  7-C , 10-H ) :   0.9274 B(  8-C ,  9-C ) :   1.2082 B(  8-C , 13-C ) :   1.1070
B(  9-C , 14-C ) :   1.1647 B( 13-C , 16-C ) :   1.3025 B( 13-C , 19-C ) :   1.2304
B( 14-C , 15-C ) :   1.6398 B( 14-C , 17-H ) :   0.9281 B( 15-C , 16-C ) :   1.1430
B( 15-C , 18-H ) :   0.9278 B( 16-C , 20-C ) :   1.2683 B( 19-C , 21-C ) :   1.4476
B( 19-C , 25-H ) :   0.5384 B( 20-C , 22-C ) :   1.5027 B( 20-C , 23-H ) :   0.9288
B( 21-C , 22-C ) :   1.3277 B( 21-C , 26-H ) :   0.9110 B( 22-C , 24-H ) :   0.9245

Dispersion correction           -0.024451552
FINAL SINGLE POINT ENERGY     -2061.439384282679
Dispersion correction            ... done

DIPOLE MOMENT
-------------
                                X             Y             Z
Electronic contribution:    -83.21697     -64.60246      28.85742
Nuclear contribution   :     86.13604      68.96052     -28.95800
                        -----------------------------------------
Total Dipole Moment    :      2.91906       4.35806      -0.10058
                        -----------------------------------------
Magnitude (a.u.)       :      5.24630
Magnitude (Debye)      :     13.33504

Rotational constants in cm-1:     0.011824     0.007558     0.005753
Rotational constants in MHz :   354.469972   226.583930   172.468431

                             ****ORCA TERMINATED NORMALLY****
TOTAL RUN TIME: 0 days 0 hours 18 minutes 6 seconds 707 msec
