                         Program Version 5.0.3 -  RELEASE  -
|  1> ! EnGrad PBEh-3c
|  2> %output
|  3> xyzfile=True
|  4> end
|  5> %scf
|  6> maxiter 250
|  7> end
|  8> %output
|  9> Print[P_Hirshfeld] = 1
| 10> end
| 11> % maxcore
| 12> 4000
| 13> *xyz -1 1
| 14> Pd  -2.14213543  -1.76559514   0.69288316
| 15> Cl  -3.54905446  -3.27371175  -0.17084162
| 16> Cl  -0.69569410  -4.30148041   1.27654322
| 17> Cl  -3.93303824  -0.24861405   0.74272341
| 18> N   -0.96734531  -0.13670604   1.43572809
| 19> C   -1.28601347   0.43515484   2.58493423
| 20> C   -0.76399285   1.66610161   3.00471854
| 21> C    0.08187781   2.33797200   2.16474388
| 22> C   -0.07005522   0.45078411   0.61906076
| 23> C    0.44412707   1.74417277   0.94556282
| 24> H    0.48671159   3.30911705   2.43720562
| 25> H   -1.96712588  -0.11452534   3.22167020
| 26> H   -1.07072525   2.08192646   3.95444592
| 27> C    0.35477313  -0.29927191  -0.55635736
| 28> C    1.33103703   2.41987425   0.04866051
| 29> C    1.65890438   1.82445905  -1.11408860
| 30> C    1.17541891   0.49247554  -1.44073879
| 31> H    1.72471567   3.40234043   0.32046254
| 32> H    2.34033276   2.34402144  -1.80291690
| 33> C    0.02048197  -1.70458677  -0.82232155
| 34> C    1.64578904  -0.06037755  -2.65225683
| 35> C    0.36896730  -2.06787542  -2.11221424
| 36> C    1.19598640  -1.31453761  -2.98913583
| 37> H    2.33215656   0.49106062  -3.30662171
| 38> H    1.58253406  -1.78674606  -3.88872521
| 39> H   -0.32897753  -2.89763315  -0.11342042
| 40> H    0.02510597  -3.02837823  -2.47371791
| 41> *
| 42>
| 43>                          ****END OF INPUT****

CARTESIAN COORDINATES (ANGSTROEM)
---------------------------------
  Pd    -2.142135   -1.765595    0.692883
  Cl    -3.549054   -3.273712   -0.170842
  Cl    -0.695694   -4.301480    1.276543
  Cl    -3.933038   -0.248614    0.742723
  N     -0.967345   -0.136706    1.435728
  C     -1.286013    0.435155    2.584934
  C     -0.763993    1.666102    3.004719
  C      0.081878    2.337972    2.164744
  C     -0.070055    0.450784    0.619061
  C      0.444127    1.744173    0.945563
  H      0.486712    3.309117    2.437206
  H     -1.967126   -0.114525    3.221670
  H     -1.070725    2.081926    3.954446
  C      0.354773   -0.299272   -0.556357
  C      1.331037    2.419874    0.048661
  C      1.658904    1.824459   -1.114089
  C      1.175419    0.492476   -1.440739
  H      1.724716    3.402340    0.320463
  H      2.340333    2.344021   -1.802917
  C      0.020482   -1.704587   -0.822322
  C      1.645789   -0.060378   -2.652257
  C      0.368967   -2.067875   -2.112214
  C      1.195986   -1.314538   -2.989136
  H      2.332157    0.491061   -3.306622
  H      1.582534   -1.786746   -3.888725
  H     -0.328978   -2.897633   -0.113420
  H      0.025106   -3.028378   -2.473718

 Total Charge           Charge          ....   -1
 Multiplicity           Mult            ....    1
 Number of Electrons    NEL             ....  164
 Basis Dimension        Dim             ....  313

ORBITAL ENERGIES
----------------

  NO   OCC          E(Eh)            E(eV)
   0   2.0000    -102.101516     -2778.3235
   1   2.0000    -102.090256     -2778.0171
   2   2.0000    -102.051207     -2776.9545
   3   2.0000     -14.599225      -397.2651
   4   2.0000     -10.422580      -283.6128
   5   2.0000     -10.413819      -283.3744
   6   2.0000     -10.398595      -282.9602
   7   2.0000     -10.394947      -282.8609
   8   2.0000     -10.389259      -282.7061
   9   2.0000     -10.386044      -282.6186
  10   2.0000     -10.384249      -282.5698
  11   2.0000     -10.383636      -282.5531
  12   2.0000     -10.381174      -282.4861
  13   2.0000     -10.369318      -282.1635
  14   2.0000     -10.367037      -282.1014
  15   2.0000     -10.365088      -282.0484
  16   2.0000     -10.353169      -281.7241
  17   2.0000      -9.564839      -260.2725
  18   2.0000      -9.555329      -260.0137
  19   2.0000      -9.514074      -258.8911
  20   2.0000      -7.251262      -197.3169
  21   2.0000      -7.245624      -197.1634
  22   2.0000      -7.245338      -197.1557
  23   2.0000      -7.242066      -197.0666
  24   2.0000      -7.235804      -196.8962
  25   2.0000      -7.235297      -196.8824
  26   2.0000      -7.198420      -195.8790
  27   2.0000      -7.196566      -195.8285
  28   2.0000      -7.195360      -195.7957
  29   2.0000      -3.524420       -95.9043
  30   2.0000      -2.176606       -59.2285
  31   2.0000      -2.163167       -58.8628
  32   2.0000      -2.136304       -58.1318
  33   2.0000      -0.993159       -27.0252
  34   2.0000      -0.885767       -24.1029
  35   2.0000      -0.852083       -23.1863
  36   2.0000      -0.818697       -22.2779
  37   2.0000      -0.783055       -21.3080
  38   2.0000      -0.744617       -20.2621
  39   2.0000      -0.732215       -19.9246
  40   2.0000      -0.691072       -18.8050
  41   2.0000      -0.678568       -18.4648
  42   2.0000      -0.650772       -17.7084
  43   2.0000      -0.646117       -17.5817
  44   2.0000      -0.637034       -17.3346
  45   2.0000      -0.612586       -16.6693
  46   2.0000      -0.582697       -15.8560
  47   2.0000      -0.533170       -14.5083
  48   2.0000      -0.521537       -14.1918
  49   2.0000      -0.501862       -13.6564
  50   2.0000      -0.467340       -12.7170
  51   2.0000      -0.464977       -12.6527
  52   2.0000      -0.434889       -11.8339
  53   2.0000      -0.418991       -11.4013
  54   2.0000      -0.412309       -11.2195
  55   2.0000      -0.405112       -11.0237
  56   2.0000      -0.392047       -10.6681
  57   2.0000      -0.387689       -10.5496
  58   2.0000      -0.368669       -10.0320
  59   2.0000      -0.347604        -9.4588
  60   2.0000      -0.345410        -9.3991
  61   2.0000      -0.319366        -8.6904
  62   2.0000      -0.312979        -8.5166
  63   2.0000      -0.302666        -8.2360
  64   2.0000      -0.297794        -8.1034
  65   2.0000      -0.273286        -7.4365
  66   2.0000      -0.262992        -7.1564
  67   2.0000      -0.252973        -6.8837
  68   2.0000      -0.239180        -6.5084
  69   2.0000      -0.234547        -6.3824
  70   2.0000      -0.228464        -6.2168
  71   2.0000      -0.226818        -6.1720
  72   2.0000      -0.189362        -5.1528
  73   2.0000      -0.182373        -4.9626
  74   2.0000      -0.170066        -4.6277
  75   2.0000      -0.168761        -4.5922
  76   2.0000      -0.164219        -4.4686
  77   2.0000      -0.152919        -4.1611
  78   2.0000      -0.147888        -4.0242
  79   2.0000      -0.139363        -3.7923
  80   2.0000      -0.128676        -3.5015
  81   2.0000      -0.123130        -3.3505
  82   0.0000       0.041193         1.1209
  83   0.0000       0.053669         1.4604
  84   0.0000       0.058953         1.6042
  85   0.0000       0.098642         2.6842
  86   0.0000       0.126312         3.4371

MULLIKEN ATOMIC CHARGES
-----------------------
   0 Pd:    0.194853
   1 Cl:   -0.279593
   2 Cl:   -0.541047
   3 Cl:   -0.373827
   4 N :   -0.553547
   5 C :    0.050965
   6 C :   -0.324954
   7 C :   -0.150737
   8 C :    0.356843
   9 C :    0.040546
  10 H :    0.213573
  11 H :    0.278557
  12 H :    0.221957
  13 C :   -0.010247
  14 C :   -0.296258
  15 C :   -0.259953
  16 C :    0.102860
  17 H :    0.197990
  18 H :    0.198659
  19 C :   -0.271947
  20 C :   -0.306334
  21 C :   -0.222631
  22 C :   -0.198697
  23 H :    0.195313
  24 H :    0.199026
  25 H :    0.301569
  26 H :    0.237061
Sum of atomic charges:   -1.0000000

LOEWDIN ATOMIC CHARGES
----------------------
   0 Pd:   -0.814975
   1 Cl:   -0.008612
   2 Cl:   -0.450968
   3 Cl:   -0.109662
   4 N :    0.026410
   5 C :    0.012782
   6 C :   -0.166238
   7 C :   -0.087369
   8 C :    0.087223
   9 C :   -0.050078
  10 H :    0.136767
  11 H :    0.164585
  12 H :    0.141325
  13 C :   -0.015017
  14 C :   -0.142012
  15 C :   -0.119092
  16 C :   -0.028688
  17 H :    0.131227
  18 H :    0.133635
  19 C :   -0.113118
  20 C :   -0.145709
  21 C :   -0.125040
  22 C :   -0.133760
  23 H :    0.127836
  24 H :    0.128724
  25 H :    0.276270
  26 H :    0.143554

  Mayer bond orders larger than 0.100000
B(  0-Pd,  1-Cl) :   0.9842 B(  0-Pd,  2-Cl) :   0.3668 B(  0-Pd,  3-Cl) :   0.8590
B(  0-Pd,  4-N ) :   0.3546 B(  2-Cl, 25-H ) :   0.3018 B(  4-N ,  5-C ) :   1.4713
B(  4-N ,  8-C ) :   1.1957 B(  5-C ,  6-C ) :   1.3223 B(  5-C , 11-H ) :   0.8938
B(  6-C ,  7-C ) :   1.4545 B(  6-C , 12-H ) :   0.9182 B(  7-C ,  9-C ) :   1.2833
B(  7-C , 10-H ) :   0.9274 B(  8-C ,  9-C ) :   1.2076 B(  8-C , 13-C ) :   1.1062
B(  9-C , 14-C ) :   1.1655 B( 13-C , 16-C ) :   1.3029 B( 13-C , 19-C ) :   1.2368
B( 14-C , 15-C ) :   1.6393 B( 14-C , 17-H ) :   0.9281 B( 15-C , 16-C ) :   1.1439
B( 15-C , 18-H ) :   0.9277 B( 16-C , 20-C ) :   1.2669 B( 19-C , 21-C ) :   1.4483
B( 19-C , 25-H ) :   0.5559 B( 20-C , 22-C ) :   1.5047 B( 20-C , 23-H ) :   0.9287
B( 21-C , 22-C ) :   1.3262 B( 21-C , 26-H ) :   0.9113 B( 22-C , 24-H ) :   0.9246

Dispersion correction           -0.024443115
FINAL SINGLE POINT ENERGY     -2061.438133584334
Dispersion correction            ... done

DIPOLE MOMENT
-------------
                                X             Y             Z
Electronic contribution:    -83.58817     -64.96875      29.38999
Nuclear contribution   :     86.53120      69.31598     -29.50978
                        -----------------------------------------
Total Dipole Moment    :      2.94303       4.34722      -0.11980
                        -----------------------------------------
Magnitude (a.u.)       :      5.25111
Magnitude (Debye)      :     13.34725

Rotational constants in cm-1:     0.011822     0.007515     0.005749
Rotational constants in MHz :   354.416524   225.291103   172.360380

                             ****ORCA TERMINATED NORMALLY****
TOTAL RUN TIME: 0 days 0 hours 16 minutes 26 seconds 262 msec
