                         Program Version 5.0.3 -  RELEASE  -
|  1> ! EnGrad PBEh-3c
|  2> %output
|  3> xyzfile=True
|  4> end
|  5> %scf
|  6> maxiter 250
|  7> end
|  8> %output
|  9> Print[P_Hirshfeld] = 1
| 10> end
| 11> % maxcore
| 12> 4000
| 13> *xyz -1 1
| 14> Pd  -2.13589393  -1.76186160   0.68521248
| 15> Cl  -3.54099649  -3.27759990  -0.17746647
| 16> Cl  -0.67762101  -4.29858480   1.25085477
| 17> Cl  -3.93847019  -0.26179625   0.76402806
| 18> N   -0.96809570  -0.13524767   1.43543001
| 19> C   -1.28938065   0.43830122   2.58424037
| 20> C   -0.76580567   1.66961972   3.00266840
| 21> C    0.08113466   2.33925369   2.16391694
| 22> C   -0.06965865   0.45035847   0.61978374
| 23> C    0.44482789   1.74423484   0.94517133
| 24> H    0.48747230   3.31150714   2.43545425
| 25> H   -1.97130715  -0.10968307   3.22088108
| 26> H   -1.07305680   2.08659466   3.95297012
| 27> C    0.35696960  -0.30079719  -0.55318099
| 28> C    1.33313767   2.41855159   0.04871647
| 29> C    1.66020737   1.82180774  -1.11163104
| 30> C    1.17663307   0.48953504  -1.43763198
| 31> H    1.72851286   3.40187263   0.32159691
| 32> H    2.34363991   2.33952911  -1.80097773
| 33> C    0.01769128  -1.70262189  -0.82085526
| 34> C    1.64461237  -0.06194480  -2.65042696
| 35> C    0.36433896  -2.06853504  -2.11072020
| 36> C    1.19193253  -1.31610951  -2.98724555
| 37> H    2.33432484   0.48836379  -3.30241852
| 38> H    1.57687819  -1.78717012  -3.88732000
| 39> H   -0.33447939  -2.89087113  -0.10781984
| 40> H    0.01668024  -3.02720416  -2.47659328
| 41> *
| 42>
| 43>                          ****END OF INPUT****

CARTESIAN COORDINATES (ANGSTROEM)
---------------------------------
  Pd    -2.135894   -1.761862    0.685212
  Cl    -3.540996   -3.277600   -0.177466
  Cl    -0.677621   -4.298585    1.250855
  Cl    -3.938470   -0.261796    0.764028
  N     -0.968096   -0.135248    1.435430
  C     -1.289381    0.438301    2.584240
  C     -0.765806    1.669620    3.002668
  C      0.081135    2.339254    2.163917
  C     -0.069659    0.450358    0.619784
  C      0.444828    1.744235    0.945171
  H      0.487472    3.311507    2.435454
  H     -1.971307   -0.109683    3.220881
  H     -1.073057    2.086595    3.952970
  C      0.356970   -0.300797   -0.553181
  C      1.333138    2.418552    0.048716
  C      1.660207    1.821808   -1.111631
  C      1.176633    0.489535   -1.437632
  H      1.728513    3.401873    0.321597
  H      2.343640    2.339529   -1.800978
  C      0.017691   -1.702622   -0.820855
  C      1.644612   -0.061945   -2.650427
  C      0.364339   -2.068535   -2.110720
  C      1.191933   -1.316110   -2.987246
  H      2.334325    0.488364   -3.302419
  H      1.576878   -1.787170   -3.887320
  H     -0.334479   -2.890871   -0.107820
  H      0.016680   -3.027204   -2.476593

 Total Charge           Charge          ....   -1
 Multiplicity           Mult            ....    1
 Number of Electrons    NEL             ....  164
 Basis Dimension        Dim             ....  313

ORBITAL ENERGIES
----------------

  NO   OCC          E(Eh)            E(eV)
   0   2.0000    -102.101806     -2778.3314
   1   2.0000    -102.090101     -2778.0129
   2   2.0000    -102.051186     -2776.9540
   3   2.0000     -14.599506      -397.2728
   4   2.0000     -10.422470      -283.6098
   5   2.0000     -10.414056      -283.3809
   6   2.0000     -10.398630      -282.9611
   7   2.0000     -10.394902      -282.8597
   8   2.0000     -10.388493      -282.6853
   9   2.0000     -10.385592      -282.6063
  10   2.0000     -10.383966      -282.5621
  11   2.0000     -10.383717      -282.5553
  12   2.0000     -10.381038      -282.4824
  13   2.0000     -10.368123      -282.1310
  14   2.0000     -10.366871      -282.0969
  15   2.0000     -10.364800      -282.0405
  16   2.0000     -10.353020      -281.7200
  17   2.0000      -9.565134      -260.2805
  18   2.0000      -9.555128      -260.0082
  19   2.0000      -9.514150      -258.8932
  20   2.0000      -7.251550      -197.3247
  21   2.0000      -7.245925      -197.1716
  22   2.0000      -7.245633      -197.1637
  23   2.0000      -7.241863      -197.0611
  24   2.0000      -7.235608      -196.8909
  25   2.0000      -7.235104      -196.8772
  26   2.0000      -7.198492      -195.8809
  27   2.0000      -7.196629      -195.8302
  28   2.0000      -7.195427      -195.7975
  29   2.0000      -3.524818       -95.9152
  30   2.0000      -2.176991       -59.2389
  31   2.0000      -2.163581       -58.8740
  32   2.0000      -2.136664       -58.1416
  33   2.0000      -0.993237       -27.0274
  34   2.0000      -0.885817       -24.1043
  35   2.0000      -0.852059       -23.1857
  36   2.0000      -0.818737       -22.2790
  37   2.0000      -0.783016       -21.3070
  38   2.0000      -0.744591       -20.2613
  39   2.0000      -0.731978       -19.9181
  40   2.0000      -0.691165       -18.8075
  41   2.0000      -0.678462       -18.4619
  42   2.0000      -0.650736       -17.7074
  43   2.0000      -0.646108       -17.5815
  44   2.0000      -0.637683       -17.3522
  45   2.0000      -0.612382       -16.6638
  46   2.0000      -0.582551       -15.8520
  47   2.0000      -0.532994       -14.5035
  48   2.0000      -0.521491       -14.1905
  49   2.0000      -0.501793       -13.6545
  50   2.0000      -0.467163       -12.7122
  51   2.0000      -0.464809       -12.6481
  52   2.0000      -0.434695       -11.8286
  53   2.0000      -0.419104       -11.4044
  54   2.0000      -0.412259       -11.2181
  55   2.0000      -0.405094       -11.0232
  56   2.0000      -0.391993       -10.6667
  57   2.0000      -0.387739       -10.5509
  58   2.0000      -0.368728       -10.0336
  59   2.0000      -0.347586        -9.4583
  60   2.0000      -0.345284        -9.3956
  61   2.0000      -0.319485        -8.6936
  62   2.0000      -0.313166        -8.5217
  63   2.0000      -0.303006        -8.2452
  64   2.0000      -0.297892        -8.1060
  65   2.0000      -0.273329        -7.4377
  66   2.0000      -0.263206        -7.1622
  67   2.0000      -0.253148        -6.8885
  68   2.0000      -0.238905        -6.5009
  69   2.0000      -0.234604        -6.3839
  70   2.0000      -0.228571        -6.2197
  71   2.0000      -0.226889        -6.1740
  72   2.0000      -0.189308        -5.1513
  73   2.0000      -0.182427        -4.9641
  74   2.0000      -0.170382        -4.6363
  75   2.0000      -0.169071        -4.6007
  76   2.0000      -0.164227        -4.4688
  77   2.0000      -0.153177        -4.1682
  78   2.0000      -0.148029        -4.0281
  79   2.0000      -0.139675        -3.8008
  80   2.0000      -0.128328        -3.4920
  81   2.0000      -0.122999        -3.3470
  82   0.0000       0.041314         1.1242
  83   0.0000       0.053483         1.4553
  84   0.0000       0.059096         1.6081
  85   0.0000       0.098697         2.6857
  86   0.0000       0.126752         3.4491

MULLIKEN ATOMIC CHARGES
-----------------------
   0 Pd:    0.196847
   1 Cl:   -0.280495
   2 Cl:   -0.539798
   3 Cl:   -0.372998
   4 N :   -0.554766
   5 C :    0.050876
   6 C :   -0.325508
   7 C :   -0.150339
   8 C :    0.356668
   9 C :    0.039833
  10 H :    0.213451
  11 H :    0.278873
  12 H :    0.221832
  13 C :   -0.007614
  14 C :   -0.295624
  15 C :   -0.260317
  16 C :    0.103352
  17 H :    0.197776
  18 H :    0.198334
  19 C :   -0.272321
  20 C :   -0.306866
  21 C :   -0.223569
  22 C :   -0.198935
  23 H :    0.195265
  24 H :    0.198916
  25 H :    0.299862
  26 H :    0.237264
Sum of atomic charges:   -1.0000000

LOEWDIN ATOMIC CHARGES
----------------------
   0 Pd:   -0.813675
   1 Cl:   -0.010897
   2 Cl:   -0.450876
   3 Cl:   -0.108555
   4 N :    0.026671
   5 C :    0.012929
   6 C :   -0.166392
   7 C :   -0.087499
   8 C :    0.087261
   9 C :   -0.049978
  10 H :    0.136749
  11 H :    0.164701
  12 H :    0.141314
  13 C :   -0.015532
  14 C :   -0.142199
  15 C :   -0.118920
  16 C :   -0.028726
  17 H :    0.131196
  18 H :    0.133488
  19 C :   -0.113988
  20 C :   -0.145784
  21 C :   -0.124126
  22 C :   -0.133653
  23 H :    0.127815
  24 H :    0.128607
  25 H :    0.276190
  26 H :    0.143880

  Mayer bond orders larger than 0.100000
B(  0-Pd,  1-Cl) :   0.9825 B(  0-Pd,  2-Cl) :   0.3573 B(  0-Pd,  3-Cl) :   0.8597
B(  0-Pd,  4-N ) :   0.3568 B(  2-Cl, 25-H ) :   0.3119 B(  4-N ,  5-C ) :   1.4700
B(  4-N ,  8-C ) :   1.1942 B(  5-C ,  6-C ) :   1.3227 B(  5-C , 11-H ) :   0.8935
B(  6-C ,  7-C ) :   1.4539 B(  6-C , 12-H ) :   0.9182 B(  7-C ,  9-C ) :   1.2836
B(  7-C , 10-H ) :   0.9274 B(  8-C ,  9-C ) :   1.2080 B(  8-C , 13-C ) :   1.1067
B(  9-C , 14-C ) :   1.1650 B( 13-C , 16-C ) :   1.3026 B( 13-C , 19-C ) :   1.2326
B( 14-C , 15-C ) :   1.6396 B( 14-C , 17-H ) :   0.9281 B( 15-C , 16-C ) :   1.1433
B( 15-C , 18-H ) :   0.9277 B( 16-C , 20-C ) :   1.2678 B( 19-C , 21-C ) :   1.4478
B( 19-C , 25-H ) :   0.5444 B( 20-C , 22-C ) :   1.5034 B( 20-C , 23-H ) :   0.9287
B( 21-C , 22-C ) :   1.3272 B( 21-C , 26-H ) :   0.9111 B( 22-C , 24-H ) :   0.9245

Dispersion correction           -0.024448681
FINAL SINGLE POINT ENERGY     -2061.438983330047
Dispersion correction            ... done

DIPOLE MOMENT
-------------
                                X             Y             Z
Electronic contribution:    -83.34352     -64.72706      29.03866
Nuclear contribution   :     86.27039      69.08137     -29.14561
                        -----------------------------------------
Total Dipole Moment    :      2.92687       4.35431      -0.10695
                        -----------------------------------------
Magnitude (a.u.)       :      5.24767
Magnitude (Debye)      :     13.33851

Rotational constants in cm-1:     0.011823     0.007543     0.005752
Rotational constants in MHz :   354.455825   226.145154   172.433577

                             ****ORCA TERMINATED NORMALLY****
TOTAL RUN TIME: 0 days 0 hours 18 minutes 46 seconds 470 msec
