                         Program Version 5.0.3 -  RELEASE  -
|  1> ! EnGrad PBEh-3c
|  2> %output
|  3> xyzfile=True
|  4> end
|  5> %scf
|  6> maxiter 250
|  7> end
|  8> %output
|  9> Print[P_Hirshfeld] = 1
| 10> end
| 11> % maxcore
| 12> 4000
| 13> *xyz -1 1
| 14> Pd  -2.23480213  -1.75642872   0.75994340
| 15> Cl  -3.63287873  -3.22470110  -0.09712653
| 16> Cl  -0.88777998  -4.30336809   1.53263599
| 17> Cl  -3.85817683  -0.09484141   0.49669486
| 18> N   -0.96095088  -0.15969017   1.44483864
| 19> C   -1.24638551   0.39213129   2.60533552
| 20> C   -0.74378540   1.61394206   3.01125249
| 21> C    0.07628140   2.29783530   2.17916888
| 22> C   -0.06508004   0.44355738   0.61898565
| 23> C    0.44758008   1.75330353   0.94118946
| 24> H    0.47605633   3.27603488   2.45274515
| 25> H   -1.91759301  -0.16435330   3.21646370
| 26> H   -1.04296263   2.02196814   3.97518368
| 27> C    0.34023558  -0.20240056  -0.58438125
| 28> C    1.30200959   2.41695721   0.03720166
| 29> C    1.63771010   1.85462233  -1.12648655
| 30> C    1.20234944   0.54109428  -1.50630856
| 31> H    1.67206654   3.39681418   0.30468236
| 32> H    2.28184961   2.37822926  -1.81914790
| 33> C    0.01453225  -1.73358920  -0.86826020
| 34> C    1.64731686  -0.05975743  -2.67308133
| 35> C    0.43413222  -2.04703887  -2.14790906
| 36> C    1.25421056  -1.31162463  -2.99654958
| 37> H    2.28268604   0.50898344  -3.33501829
| 38> H    1.63463827  -1.77802277  -3.90164461
| 39> H   -0.24890014  -3.02311226  -0.09904296
| 40> H    0.13290950  -3.03666326  -2.42280292
| 41> *
| 42>
| 43>                          ****END OF INPUT****

CARTESIAN COORDINATES (ANGSTROEM)
---------------------------------
  Pd    -2.234802   -1.756429    0.759943
  Cl    -3.632879   -3.224701   -0.097127
  Cl    -0.887780   -4.303368    1.532636
  Cl    -3.858177   -0.094841    0.496695
  N     -0.960951   -0.159690    1.444839
  C     -1.246386    0.392131    2.605336
  C     -0.743785    1.613942    3.011252
  C      0.076281    2.297835    2.179169
  C     -0.065080    0.443557    0.618986
  C      0.447580    1.753304    0.941189
  H      0.476056    3.276035    2.452745
  H     -1.917593   -0.164353    3.216464
  H     -1.042963    2.021968    3.975184
  C      0.340236   -0.202401   -0.584381
  C      1.302010    2.416957    0.037202
  C      1.637710    1.854622   -1.126487
  C      1.202349    0.541094   -1.506309
  H      1.672067    3.396814    0.304682
  H      2.281850    2.378229   -1.819148
  C      0.014532   -1.733589   -0.868260
  C      1.647317   -0.059757   -2.673081
  C      0.434132   -2.047039   -2.147909
  C      1.254211   -1.311625   -2.996550
  H      2.282686    0.508983   -3.335018
  H      1.634638   -1.778023   -3.901645
  H     -0.248900   -3.023112   -0.099043
  H      0.132909   -3.036663   -2.422803

 Total Charge           Charge          ....   -1
 Multiplicity           Mult            ....    1
 Number of Electrons    NEL             ....  164
 Basis Dimension        Dim             ....  313

ORBITAL ENERGIES
----------------

  NO   OCC          E(Eh)            E(eV)
   0   2.0000    -102.100932     -2778.3076
   1   2.0000    -102.091136     -2778.0411
   2   2.0000    -102.055130     -2777.0613
   3   2.0000     -14.597040      -397.2057
   4   2.0000     -10.420467      -283.5553
   5   2.0000     -10.409676      -283.2617
   6   2.0000     -10.396597      -282.9058
   7   2.0000     -10.394052      -282.8365
   8   2.0000     -10.392801      -282.8025
   9   2.0000     -10.386152      -282.6216
  10   2.0000     -10.384521      -282.5772
  11   2.0000     -10.380556      -282.4693
  12   2.0000     -10.380296      -282.4622
  13   2.0000     -10.378499      -282.4133
  14   2.0000     -10.364053      -282.0202
  15   2.0000     -10.361377      -281.9474
  16   2.0000     -10.346255      -281.5359
  17   2.0000      -9.564261      -260.2568
  18   2.0000      -9.556741      -260.0521
  19   2.0000      -9.517354      -258.9804
  20   2.0000      -7.250676      -197.3009
  21   2.0000      -7.245050      -197.1478
  22   2.0000      -7.244783      -197.1406
  23   2.0000      -7.243429      -197.1037
  24   2.0000      -7.237174      -196.9335
  25   2.0000      -7.236675      -196.9199
  26   2.0000      -7.201692      -195.9680
  27   2.0000      -7.199992      -195.9217
  28   2.0000      -7.198639      -195.8849
  29   2.0000      -3.522145       -95.8424
  30   2.0000      -2.174443       -59.1696
  31   2.0000      -2.161109       -58.8068
  32   2.0000      -2.133961       -58.0680
  33   2.0000      -0.991313       -26.9750
  34   2.0000      -0.888568       -24.1792
  35   2.0000      -0.853022       -23.2119
  36   2.0000      -0.824107       -22.4251
  37   2.0000      -0.784278       -21.3413
  38   2.0000      -0.748145       -20.3581
  39   2.0000      -0.730499       -19.8779
  40   2.0000      -0.692059       -18.8319
  41   2.0000      -0.680507       -18.5175
  42   2.0000      -0.655515       -17.8375
  43   2.0000      -0.647556       -17.6209
  44   2.0000      -0.636083       -17.3087
  45   2.0000      -0.608805       -16.5664
  46   2.0000      -0.584682       -15.9100
  47   2.0000      -0.532923       -14.5016
  48   2.0000      -0.523776       -14.2527
  49   2.0000      -0.505138       -13.7455
  50   2.0000      -0.468979       -12.7616
  51   2.0000      -0.468122       -12.7382
  52   2.0000      -0.434776       -11.8309
  53   2.0000      -0.418102       -11.3771
  54   2.0000      -0.412582       -11.2269
  55   2.0000      -0.406037       -11.0488
  56   2.0000      -0.390124       -10.6158
  57   2.0000      -0.384008       -10.4494
  58   2.0000      -0.367986       -10.0134
  59   2.0000      -0.349532        -9.5113
  60   2.0000      -0.344036        -9.3617
  61   2.0000      -0.319255        -8.6874
  62   2.0000      -0.310130        -8.4391
  63   2.0000      -0.302032        -8.2187
  64   2.0000      -0.285234        -7.7616
  65   2.0000      -0.275000        -7.4831
  66   2.0000      -0.263360        -7.1664
  67   2.0000      -0.252862        -6.8807
  68   2.0000      -0.242664        -6.6032
  69   2.0000      -0.233794        -6.3619
  70   2.0000      -0.229755        -6.2520
  71   2.0000      -0.226084        -6.1521
  72   2.0000      -0.188961        -5.1419
  73   2.0000      -0.181500        -4.9389
  74   2.0000      -0.167735        -4.5643
  75   2.0000      -0.166446        -4.5292
  76   2.0000      -0.164862        -4.4861
  77   2.0000      -0.151918        -4.1339
  78   2.0000      -0.146211        -3.9786
  79   2.0000      -0.140168        -3.8142
  80   2.0000      -0.133132        -3.6227
  81   2.0000      -0.125430        -3.4131
  82   0.0000       0.037442         1.0189
  83   0.0000       0.053791         1.4637
  84   0.0000       0.059854         1.6287
  85   0.0000       0.105020         2.8577
  86   0.0000       0.124404         3.3852

MULLIKEN ATOMIC CHARGES
-----------------------
   0 Pd:    0.181486
   1 Cl:   -0.272064
   2 Cl:   -0.543017
   3 Cl:   -0.375506
   4 N :   -0.548829
   5 C :    0.053817
   6 C :   -0.318453
   7 C :   -0.151368
   8 C :    0.391812
   9 C :    0.037675
  10 H :    0.209238
  11 H :    0.278618
  12 H :    0.220409
  13 C :   -0.121568
  14 C :   -0.274630
  15 C :   -0.281721
  16 C :    0.158002
  17 H :    0.197296
  18 H :    0.197170
  19 C :   -0.251026
  20 C :   -0.300709
  21 C :   -0.224110
  22 C :   -0.178650
  23 H :    0.192633
  24 H :    0.202151
  25 H :    0.292575
  26 H :    0.228771
Sum of atomic charges:   -1.0000000

LOEWDIN ATOMIC CHARGES
----------------------
   0 Pd:   -0.827252
   1 Cl:    0.011288
   2 Cl:   -0.448218
   3 Cl:   -0.107003
   4 N :    0.024441
   5 C :    0.013077
   6 C :   -0.166099
   7 C :   -0.084390
   8 C :    0.081178
   9 C :   -0.049291
  10 H :    0.134945
  11 H :    0.163235
  12 H :    0.142123
  13 C :   -0.008663
  14 C :   -0.139016
  15 C :   -0.118645
  16 C :   -0.031024
  17 H :    0.132171
  18 H :    0.132097
  19 C :   -0.099547
  20 C :   -0.149049
  21 C :   -0.152725
  22 C :   -0.127794
  23 H :    0.126836
  24 H :    0.131516
  25 H :    0.275501
  26 H :    0.140310

  Mayer bond orders larger than 0.100000
B(  0-Pd,  1-Cl) :   0.9999 B(  0-Pd,  2-Cl) :   0.4078 B(  0-Pd,  3-Cl) :   0.8690
B(  0-Pd,  4-N ) :   0.3442 B(  2-Cl, 25-H ) :   0.2545 B(  4-N ,  5-C ) :   1.4884
B(  4-N ,  8-C ) :   1.1850 B(  5-C ,  6-C ) :   1.3113 B(  5-C , 11-H ) :   0.8955
B(  6-C ,  7-C ) :   1.4652 B(  6-C , 12-H ) :   0.9189 B(  7-C ,  9-C ) :   1.2791
B(  7-C , 10-H ) :   0.9288 B(  8-C ,  9-C ) :   1.2178 B(  8-C , 13-C ) :   1.1526
B(  9-C , 14-C ) :   1.1874 B( 13-C , 16-C ) :   1.3087 B( 13-C , 19-C ) :   1.2362
B( 14-C , 15-C ) :   1.6211 B( 14-C , 17-H ) :   0.9288 B( 15-C , 16-C ) :   1.1734
B( 15-C , 18-H ) :   0.9264 B( 16-C , 20-C ) :   1.2539 B( 19-C , 21-C ) :   1.4815
B( 19-C , 25-H ) :   0.6100 B( 20-C , 22-C ) :   1.5191 B( 20-C , 23-H ) :   0.9283
B( 21-C , 22-C ) :   1.3087 B( 21-C , 26-H ) :   0.9141 B( 22-C , 24-H ) :   0.9234

Dispersion correction           -0.024611749
FINAL SINGLE POINT ENERGY     -2061.406789022994
Dispersion correction            ... done

DIPOLE MOMENT
-------------
                                X             Y             Z
Electronic contribution:    -87.66941     -65.29781      32.64083
Nuclear contribution   :     90.71715      69.49028     -32.79455
                        -----------------------------------------
Total Dipole Moment    :      3.04775       4.19247      -0.15372
                        -----------------------------------------
Magnitude (a.u.)       :      5.18548
Magnitude (Debye)      :     13.18044

Rotational constants in cm-1:     0.011804     0.007253     0.005736
Rotational constants in MHz :   353.864772   217.450379   171.967133

                             ****ORCA TERMINATED NORMALLY****
TOTAL RUN TIME: 0 days 0 hours 14 minutes 42 seconds 485 msec
