                         Program Version 5.0.3 -  RELEASE  -
|  1> ! EnGrad PBEh-3c
|  2> %output
|  3> xyzfile=True
|  4> end
|  5> %scf
|  6> maxiter 250
|  7> end
|  8> %output
|  9> Print[P_Hirshfeld] = 1
| 10> end
| 11> % maxcore
| 12> 4000
| 13> *xyz -1 1
| 14> Pd  -2.19954078  -1.78721801   0.73732011
| 15> Cl  -3.60101564  -3.23469343  -0.11930355
| 16> Cl  -0.82149279  -4.31035194   1.45274388
| 17> Cl  -3.88997451  -0.14530358   0.58077435
| 18> N   -0.97295684  -0.14961368   1.44517438
| 19> C   -1.26115759   0.40718510   2.59467694
| 20> C   -0.75472987   1.63407965   3.02144473
| 21> C    0.08683251   2.32216397   2.16816619
| 22> C   -0.06427914   0.46010348   0.62971683
| 23> C    0.44286690   1.74980602   0.94674876
| 24> H    0.47883717   3.28485405   2.44690702
| 25> H   -1.93153590  -0.14719022   3.21855549
| 26> H   -1.05170484   2.04232507   3.96198698
| 27> C    0.34175881  -0.24680774  -0.58757785
| 28> C    1.31305897   2.42859675   0.05000996
| 29> C    1.65357317   1.84273203  -1.13657554
| 30> C    1.18592058   0.53730152  -1.47327625
| 31> H    1.69081512   3.39723478   0.30963320
| 32> H    2.30415959   2.36837189  -1.81203084
| 33> C    0.02190303  -1.75846411  -0.83837643
| 34> C    1.65881839  -0.05780436  -2.67665539
| 35> C    0.40465038  -2.06147765  -2.13465429
| 36> C    1.23627389  -1.30489410  -3.00752884
| 37> H    2.30011702   0.50252375  -3.32479333
| 38> H    1.61864459  -1.78082705  -3.89297204
| 39> H   -0.28702508  -2.96804448  -0.12285763
| 40> H    0.09335046  -3.02473290  -2.43744761
| 41> *
| 42>
| 43>                          ****END OF INPUT****

CARTESIAN COORDINATES (ANGSTROEM)
---------------------------------
  Pd    -2.199541   -1.787218    0.737320
  Cl    -3.601016   -3.234693   -0.119304
  Cl    -0.821493   -4.310352    1.452744
  Cl    -3.889975   -0.145304    0.580774
  N     -0.972957   -0.149614    1.445174
  C     -1.261158    0.407185    2.594677
  C     -0.754730    1.634080    3.021445
  C      0.086833    2.322164    2.168166
  C     -0.064279    0.460103    0.629717
  C      0.442867    1.749806    0.946749
  H      0.478837    3.284854    2.446907
  H     -1.931536   -0.147190    3.218555
  H     -1.051705    2.042325    3.961987
  C      0.341759   -0.246808   -0.587578
  C      1.313059    2.428597    0.050010
  C      1.653573    1.842732   -1.136576
  C      1.185921    0.537302   -1.473276
  H      1.690815    3.397235    0.309633
  H      2.304160    2.368372   -1.812031
  C      0.021903   -1.758464   -0.838376
  C      1.658818   -0.057804   -2.676655
  C      0.404650   -2.061478   -2.134654
  C      1.236274   -1.304894   -3.007529
  H      2.300117    0.502524   -3.324793
  H      1.618645   -1.780827   -3.892972
  H     -0.287025   -2.968044   -0.122858
  H      0.093350   -3.024733   -2.437448

 Total Charge           Charge          ....   -1
 Multiplicity           Mult            ....    1
 Number of Electrons    NEL             ....  164
 Basis Dimension        Dim             ....  313

ORBITAL ENERGIES
----------------

  NO   OCC          E(Eh)            E(eV)
   0   2.0000    -102.099378     -2778.2653
   1   2.0000    -102.092796     -2778.0862
   2   2.0000    -102.052992     -2777.0031
   3   2.0000     -14.596943      -397.2030
   4   2.0000     -10.422088      -283.5994
   5   2.0000     -10.409714      -283.2627
   6   2.0000     -10.397917      -282.9417
   7   2.0000     -10.397770      -282.9377
   8   2.0000     -10.392839      -282.8035
   9   2.0000     -10.387580      -282.6604
  10   2.0000     -10.382891      -282.5328
  11   2.0000     -10.382263      -282.5157
  12   2.0000     -10.382097      -282.5112
  13   2.0000     -10.381123      -282.4847
  14   2.0000     -10.365283      -282.0537
  15   2.0000     -10.364179      -282.0237
  16   2.0000     -10.349710      -281.6299
  17   2.0000      -9.562569      -260.2107
  18   2.0000      -9.558571      -260.1019
  19   2.0000      -9.515405      -258.9273
  20   2.0000      -7.248992      -197.2551
  21   2.0000      -7.245306      -197.1548
  22   2.0000      -7.243366      -197.1020
  23   2.0000      -7.243100      -197.0948
  24   2.0000      -7.238961      -196.9821
  25   2.0000      -7.238446      -196.9681
  26   2.0000      -7.199789      -195.9162
  27   2.0000      -7.197936      -195.8658
  28   2.0000      -7.196731      -195.8330
  29   2.0000      -3.522442       -95.8505
  30   2.0000      -2.175216       -59.1906
  31   2.0000      -2.160880       -58.8005
  32   2.0000      -2.134502       -58.0828
  33   2.0000      -0.991251       -26.9733
  34   2.0000      -0.885074       -24.0841
  35   2.0000      -0.850419       -23.1411
  36   2.0000      -0.817250       -22.2385
  37   2.0000      -0.782495       -21.2928
  38   2.0000      -0.743759       -20.2387
  39   2.0000      -0.731243       -19.8981
  40   2.0000      -0.692709       -18.8496
  41   2.0000      -0.679891       -18.5008
  42   2.0000      -0.653582       -17.7849
  43   2.0000      -0.644966       -17.5504
  44   2.0000      -0.635554       -17.2943
  45   2.0000      -0.612571       -16.6689
  46   2.0000      -0.585017       -15.9191
  47   2.0000      -0.532666       -14.4946
  48   2.0000      -0.522558       -14.2195
  49   2.0000      -0.502979       -13.6868
  50   2.0000      -0.469287       -12.7700
  51   2.0000      -0.468689       -12.7537
  52   2.0000      -0.435922       -11.8620
  53   2.0000      -0.416861       -11.3434
  54   2.0000      -0.412719       -11.2306
  55   2.0000      -0.405171       -11.0253
  56   2.0000      -0.392703       -10.6860
  57   2.0000      -0.386434       -10.5154
  58   2.0000      -0.368824       -10.0362
  59   2.0000      -0.347048        -9.4436
  60   2.0000      -0.345937        -9.4134
  61   2.0000      -0.318411        -8.6644
  62   2.0000      -0.311219        -8.4687
  63   2.0000      -0.302884        -8.2419
  64   2.0000      -0.293387        -7.9835
  65   2.0000      -0.273013        -7.4290
  66   2.0000      -0.261486        -7.1154
  67   2.0000      -0.250689        -6.8216
  68   2.0000      -0.243884        -6.6364
  69   2.0000      -0.234913        -6.3923
  70   2.0000      -0.231021        -6.2864
  71   2.0000      -0.225046        -6.1238
  72   2.0000      -0.187757        -5.1091
  73   2.0000      -0.181802        -4.9471
  74   2.0000      -0.168367        -4.5815
  75   2.0000      -0.166938        -4.5426
  76   2.0000      -0.164362        -4.4725
  77   2.0000      -0.151618        -4.1257
  78   2.0000      -0.146898        -3.9973
  79   2.0000      -0.139156        -3.7866
  80   2.0000      -0.132903        -3.6165
  81   2.0000      -0.124951        -3.4001
  82   0.0000       0.038105         1.0369
  83   0.0000       0.054375         1.4796
  84   0.0000       0.059944         1.6312
  85   0.0000       0.101553         2.7634
  86   0.0000       0.119757         3.2588

MULLIKEN ATOMIC CHARGES
-----------------------
   0 Pd:    0.180150
   1 Cl:   -0.266389
   2 Cl:   -0.545705
   3 Cl:   -0.381232
   4 N :   -0.539818
   5 C :    0.055483
   6 C :   -0.322351
   7 C :   -0.160231
   8 C :    0.354348
   9 C :    0.062868
  10 H :    0.212904
  11 H :    0.275869
  12 H :    0.222816
  13 C :   -0.072326
  14 C :   -0.301264
  15 C :   -0.264300
  16 C :    0.121143
  17 H :    0.199650
  18 H :    0.201472
  19 C :   -0.270768
  20 C :   -0.296558
  21 C :   -0.216279
  22 C :   -0.188629
  23 H :    0.195129
  24 H :    0.201974
  25 H :    0.310065
  26 H :    0.231981
Sum of atomic charges:   -1.0000000

LOEWDIN ATOMIC CHARGES
----------------------
   0 Pd:   -0.827883
   1 Cl:    0.021705
   2 Cl:   -0.449501
   3 Cl:   -0.121144
   4 N :    0.023604
   5 C :    0.010733
   6 C :   -0.166437
   7 C :   -0.082964
   8 C :    0.084700
   9 C :   -0.053384
  10 H :    0.135909
  11 H :    0.161920
  12 H :    0.141509
  13 C :   -0.002458
  14 C :   -0.138693
  15 C :   -0.121203
  16 C :   -0.032701
  17 H :    0.131738
  18 H :    0.134081
  19 C :   -0.104616
  20 C :   -0.145715
  21 C :   -0.141163
  22 C :   -0.132651
  23 H :    0.127059
  24 H :    0.130944
  25 H :    0.276228
  26 H :    0.140380

  Mayer bond orders larger than 0.100000
B(  0-Pd,  1-Cl) :   1.0062 B(  0-Pd,  2-Cl) :   0.4162 B(  0-Pd,  3-Cl) :   0.8514
B(  0-Pd,  4-N ) :   0.3376 B(  2-Cl, 25-H ) :   0.2510 B(  4-N ,  5-C ) :   1.4961
B(  4-N ,  8-C ) :   1.1925 B(  5-C ,  6-C ) :   1.3104 B(  5-C , 11-H ) :   0.8960
B(  6-C ,  7-C ) :   1.4693 B(  6-C , 12-H ) :   0.9187 B(  7-C ,  9-C ) :   1.2724
B(  7-C , 10-H ) :   0.9281 B(  8-C ,  9-C ) :   1.2135 B(  8-C , 13-C ) :   1.1333
B(  9-C , 14-C ) :   1.1818 B( 13-C , 16-C ) :   1.3158 B( 13-C , 19-C ) :   1.2214
B( 14-C , 15-C ) :   1.6195 B( 14-C , 17-H ) :   0.9281 B( 15-C , 16-C ) :   1.1724
B( 15-C , 18-H ) :   0.9265 B( 16-C , 20-C ) :   1.2356 B( 19-C , 21-C ) :   1.4889
B( 19-C , 25-H ) :   0.6140 B( 20-C , 22-C ) :   1.5482 B( 20-C , 23-H ) :   0.9273
B( 21-C , 22-C ) :   1.2881 B( 21-C , 26-H ) :   0.9131 B( 22-C , 24-H ) :   0.9242

Dispersion correction           -0.024364410
FINAL SINGLE POINT ENERGY     -2061.420129235240
Dispersion correction            ... done

DIPOLE MOMENT
-------------
                                X             Y             Z
Electronic contribution:    -86.07769     -66.60900      31.47362
Nuclear contribution   :     89.09658      70.84351     -31.65003
                        -----------------------------------------
Total Dipole Moment    :      3.01889       4.23451      -0.17641
                        -----------------------------------------
Magnitude (a.u.)       :      5.20345
Magnitude (Debye)      :     13.22611

Rotational constants in cm-1:     0.011781     0.007313     0.005724
Rotational constants in MHz :   353.177875   219.242836   171.603976

                             ****ORCA TERMINATED NORMALLY****
TOTAL RUN TIME: 0 days 0 hours 13 minutes 48 seconds 782 msec
