                         Program Version 5.0.3 -  RELEASE  -
|  1> ! EnGrad PBEh-3c
|  2> %output
|  3> xyzfile=True
|  4> end
|  5> %scf
|  6> maxiter 250
|  7> end
|  8> %output
|  9> Print[P_Hirshfeld] = 1
| 10> end
| 11> % maxcore
| 12> 4000
| 13> *xyz -1 1
| 14> Pd  -2.19188446  -1.77338228   0.73501282
| 15> Cl  -3.59892696  -3.24430589  -0.12727809
| 16> Cl  -0.80885195  -4.30714506   1.43183103
| 17> Cl  -3.89229071  -0.15928139   0.59984485
| 18> N   -0.96510465  -0.14975261   1.43977638
| 19> C   -1.26407544   0.40917351   2.59274821
| 20> C   -0.75299094   1.64033861   3.01684718
| 21> C    0.08453073   2.32331078   2.17011186
| 22> C   -0.06789284   0.45704648   0.62314100
| 23> C    0.44134938   1.74438575   0.94696012
| 24> H    0.47974576   3.28856814   2.44655145
| 25> H   -1.93856647  -0.14473158   3.22140017
| 26> H   -1.05417549   2.04720469   3.96333894
| 27> C    0.34554556  -0.26550190  -0.58313119
| 28> C    1.31513136   2.42369923   0.04582330
| 29> C    1.65073014   1.84067483  -1.12983741
| 30> C    1.17827883   0.52298657  -1.46254402
| 31> H    1.69566168   3.40081308   0.31159906
| 32> H    2.31011955   2.36752377  -1.81308545
| 33> C    0.02584840  -1.72472093  -0.84051543
| 34> C    1.65477892  -0.05491965  -2.67082968
| 35> C    0.39926167  -2.06360816  -2.12456407
| 36> C    1.23029814  -1.30988743  -3.00316623
| 37> H    2.30651229   0.50255256  -3.32563582
| 38> H    1.61447812  -1.78158898  -3.89462419
| 39> H   -0.28757311  -2.95784730  -0.12187518
| 40> H    0.08643515  -3.03187484  -2.44664195
| 41> *
| 42>
| 43>                          ****END OF INPUT****

CARTESIAN COORDINATES (ANGSTROEM)
---------------------------------
  Pd    -2.191884   -1.773382    0.735013
  Cl    -3.598927   -3.244306   -0.127278
  Cl    -0.808852   -4.307145    1.431831
  Cl    -3.892291   -0.159281    0.599845
  N     -0.965105   -0.149753    1.439776
  C     -1.264075    0.409174    2.592748
  C     -0.752991    1.640339    3.016847
  C      0.084531    2.323311    2.170112
  C     -0.067893    0.457046    0.623141
  C      0.441349    1.744386    0.946960
  H      0.479746    3.288568    2.446551
  H     -1.938566   -0.144732    3.221400
  H     -1.054175    2.047205    3.963339
  C      0.345546   -0.265502   -0.583131
  C      1.315131    2.423699    0.045823
  C      1.650730    1.840675   -1.129837
  C      1.178279    0.522987   -1.462544
  H      1.695662    3.400813    0.311599
  H      2.310120    2.367524   -1.813085
  C      0.025848   -1.724721   -0.840515
  C      1.654779   -0.054920   -2.670830
  C      0.399262   -2.063608   -2.124564
  C      1.230298   -1.309887   -3.003166
  H      2.306512    0.502553   -3.325636
  H      1.614478   -1.781589   -3.894624
  H     -0.287573   -2.957847   -0.121875
  H      0.086435   -3.031875   -2.446642

 Total Charge           Charge          ....   -1
 Multiplicity           Mult            ....    1
 Number of Electrons    NEL             ....  164
 Basis Dimension        Dim             ....  313

ORBITAL ENERGIES
----------------

  NO   OCC          E(Eh)            E(eV)
   0   2.0000    -102.100353     -2778.2919
   1   2.0000    -102.091111     -2778.0404
   2   2.0000    -102.052778     -2776.9973
   3   2.0000     -14.597993      -397.2316
   4   2.0000     -10.422243      -283.6037
   5   2.0000     -10.411907      -283.3224
   6   2.0000     -10.397924      -282.9419
   7   2.0000     -10.393996      -282.8350
   8   2.0000     -10.393733      -282.8279
   9   2.0000     -10.386922      -282.6425
  10   2.0000     -10.383357      -282.5455
  11   2.0000     -10.382842      -282.5315
  12   2.0000     -10.381081      -282.4836
  13   2.0000     -10.376923      -282.3704
  14   2.0000     -10.365744      -282.0662
  15   2.0000     -10.364991      -282.0457
  16   2.0000     -10.350817      -281.6601
  17   2.0000      -9.563655      -260.2403
  18   2.0000      -9.556553      -260.0470
  19   2.0000      -9.515210      -258.9220
  20   2.0000      -7.250094      -197.2851
  21   2.0000      -7.244430      -197.1310
  22   2.0000      -7.244162      -197.1237
  23   2.0000      -7.243275      -197.0995
  24   2.0000      -7.236990      -196.9285
  25   2.0000      -7.236483      -196.9147
  26   2.0000      -7.199581      -195.9106
  27   2.0000      -7.197758      -195.8610
  28   2.0000      -7.196518      -195.8272
  29   2.0000      -3.522551       -95.8535
  30   2.0000      -2.174898       -59.1820
  31   2.0000      -2.161312       -58.8123
  32   2.0000      -2.134480       -58.0822
  33   2.0000      -0.992306       -27.0020
  34   2.0000      -0.885590       -24.0981
  35   2.0000      -0.851358       -23.1666
  36   2.0000      -0.818257       -22.2659
  37   2.0000      -0.782883       -21.3033
  38   2.0000      -0.744331       -20.2543
  39   2.0000      -0.732101       -19.9215
  40   2.0000      -0.691409       -18.8142
  41   2.0000      -0.679528       -18.4909
  42   2.0000      -0.652421       -17.7533
  43   2.0000      -0.645797       -17.5730
  44   2.0000      -0.635433       -17.2910
  45   2.0000      -0.613031       -16.6814
  46   2.0000      -0.583984       -15.8910
  47   2.0000      -0.533044       -14.5049
  48   2.0000      -0.522499       -14.2179
  49   2.0000      -0.502735       -13.6801
  50   2.0000      -0.468285       -12.7427
  51   2.0000      -0.467313       -12.7162
  52   2.0000      -0.436058       -11.8657
  53   2.0000      -0.418051       -11.3757
  54   2.0000      -0.412643       -11.2286
  55   2.0000      -0.405237       -11.0271
  56   2.0000      -0.392161       -10.6712
  57   2.0000      -0.386872       -10.5273
  58   2.0000      -0.367572       -10.0021
  59   2.0000      -0.347022        -9.4430
  60   2.0000      -0.346337        -9.4243
  61   2.0000      -0.319128        -8.6839
  62   2.0000      -0.311261        -8.4699
  63   2.0000      -0.300942        -8.1890
  64   2.0000      -0.294743        -8.0204
  65   2.0000      -0.273323        -7.4375
  66   2.0000      -0.261749        -7.1225
  67   2.0000      -0.252030        -6.8581
  68   2.0000      -0.241529        -6.5723
  69   2.0000      -0.234076        -6.3695
  70   2.0000      -0.229492        -6.2448
  71   2.0000      -0.225793        -6.1441
  72   2.0000      -0.188978        -5.1423
  73   2.0000      -0.181999        -4.9524
  74   2.0000      -0.168464        -4.5841
  75   2.0000      -0.167049        -4.5456
  76   2.0000      -0.164362        -4.4725
  77   2.0000      -0.152026        -4.1368
  78   2.0000      -0.146832        -3.9955
  79   2.0000      -0.139030        -3.7832
  80   2.0000      -0.131559        -3.5799
  81   2.0000      -0.124311        -3.3827
  82   0.0000       0.039731         1.0811
  83   0.0000       0.055314         1.5052
  84   0.0000       0.059582         1.6213
  85   0.0000       0.100083         2.7234
  86   0.0000       0.122234         3.3261

MULLIKEN ATOMIC CHARGES
-----------------------
   0 Pd:    0.184666
   1 Cl:   -0.273539
   2 Cl:   -0.544210
   3 Cl:   -0.377186
   4 N :   -0.546286
   5 C :    0.053049
   6 C :   -0.322821
   7 C :   -0.153842
   8 C :    0.356838
   9 C :    0.053622
  10 H :    0.213321
  11 H :    0.277508
  12 H :    0.222534
  13 C :   -0.048418
  14 C :   -0.300786
  15 C :   -0.259521
  16 C :    0.110589
  17 H :    0.198465
  18 H :    0.200732
  19 C :   -0.264913
  20 C :   -0.301910
  21 C :   -0.217814
  22 C :   -0.193768
  23 H :    0.195287
  24 H :    0.200981
  25 H :    0.304202
  26 H :    0.233218
Sum of atomic charges:   -1.0000000

LOEWDIN ATOMIC CHARGES
----------------------
   0 Pd:   -0.824056
   1 Cl:    0.006661
   2 Cl:   -0.449465
   3 Cl:   -0.112767
   4 N :    0.025264
   5 C :    0.012891
   6 C :   -0.165679
   7 C :   -0.084852
   8 C :    0.086164
   9 C :   -0.051922
  10 H :    0.136361
  11 H :    0.163264
  12 H :    0.141499
  13 C :   -0.008351
  14 C :   -0.139488
  15 C :   -0.120335
  16 C :   -0.030950
  17 H :    0.131292
  18 H :    0.134228
  19 C :   -0.109318
  20 C :   -0.145945
  21 C :   -0.135712
  22 C :   -0.133380
  23 H :    0.127213
  24 H :    0.129897
  25 H :    0.276825
  26 H :    0.140658

  Mayer bond orders larger than 0.100000
B(  0-Pd,  1-Cl) :   0.9960 B(  0-Pd,  2-Cl) :   0.4056 B(  0-Pd,  3-Cl) :   0.8595
B(  0-Pd,  4-N ) :   0.3438 B(  2-Cl, 25-H ) :   0.2609 B(  4-N ,  5-C ) :   1.4854
B(  4-N ,  8-C ) :   1.1965 B(  5-C ,  6-C ) :   1.3146 B(  5-C , 11-H ) :   0.8951
B(  6-C ,  7-C ) :   1.4649 B(  6-C , 12-H ) :   0.9185 B(  7-C ,  9-C ) :   1.2759
B(  7-C , 10-H ) :   0.9278 B(  8-C ,  9-C ) :   1.2133 B(  8-C , 13-C ) :   1.1179
B(  9-C , 14-C ) :   1.1726 B( 13-C , 16-C ) :   1.3136 B( 13-C , 19-C ) :   1.2423
B( 14-C , 15-C ) :   1.6310 B( 14-C , 17-H ) :   0.9283 B( 15-C , 16-C ) :   1.1580
B( 15-C , 18-H ) :   0.9270 B( 16-C , 20-C ) :   1.2474 B( 19-C , 21-C ) :   1.4744
B( 19-C , 25-H ) :   0.6028 B( 20-C , 22-C ) :   1.5333 B( 20-C , 23-H ) :   0.9279
B( 21-C , 22-C ) :   1.3036 B( 21-C , 26-H ) :   0.9128 B( 22-C , 24-H ) :   0.9241

Dispersion correction           -0.024468055
FINAL SINGLE POINT ENERGY     -2061.428033559798
Dispersion correction            ... done

DIPOLE MOMENT
-------------
                                X             Y             Z
Electronic contribution:    -85.71886     -65.79480      31.39639
Nuclear contribution   :     88.73701      70.06960     -31.54864
                        -----------------------------------------
Total Dipole Moment    :      3.01815       4.27480      -0.15226
                        -----------------------------------------
Magnitude (a.u.)       :      5.23511
Magnitude (Debye)      :     13.30659

Rotational constants in cm-1:     0.011804     0.007349     0.005736
Rotational constants in MHz :   353.881657   220.315846   171.970827

                             ****ORCA TERMINATED NORMALLY****
TOTAL RUN TIME: 0 days 0 hours 13 minutes 50 seconds 390 msec
