                         Program Version 5.0.3 -  RELEASE  -
|  1> ! EnGrad PBEh-3c
|  2> %output
|  3> xyzfile=True
|  4> end
|  5> %scf
|  6> maxiter 250
|  7> end
|  8> %output
|  9> Print[P_Hirshfeld] = 1
| 10> end
| 11> % maxcore
| 12> 4000
| 13> *xyz -1 1
| 14> Pd  -2.13429106  -1.77986441   0.69576725
| 15> Cl  -3.54895515  -3.27528252  -0.17189183
| 16> Cl  -0.69465939  -4.30890206   1.27983547
| 17> Cl  -3.93812655  -0.25282848   0.74923909
| 18> N   -0.96570980  -0.13402948   1.43157057
| 19> C   -1.28857233   0.43889073   2.58467370
| 20> C   -0.75882611   1.67226700   3.00106848
| 21> C    0.07949023   2.34075794   2.16969631
| 22> C   -0.07386811   0.44996542   0.61560693
| 23> C    0.44365275   1.74514750   0.94691516
| 24> H    0.48819540   3.31255287   2.43784134
| 25> H   -1.96840286  -0.11486535   3.22496706
| 26> H   -1.07255545   2.08570298   3.95538300
| 27> C    0.35126583  -0.32052233  -0.55526722
| 28> C    1.33390564   2.41794827   0.04355831
| 29> C    1.65832582   1.82897168  -1.10784886
| 30> C    1.16530101   0.48467407  -1.43589959
| 31> H    1.72877789   3.40715980   0.32235055
| 32> H    2.34806303   2.34817816  -1.80568507
| 33> C    0.03053924  -1.70317978  -0.81431129
| 34> C    1.64796482  -0.05582821  -2.64946830
| 35> C    0.36603912  -2.06782376  -2.10626770
| 36> C    1.18955457  -1.31125639  -2.99035653
| 37> H    2.34009798   0.49449207  -3.31173714
| 38> H    1.58517410  -1.78864022  -3.89038733
| 39> H   -0.33587710  -2.88307260  -0.13358958
| 40> H    0.01904095  -3.03141465  -2.47965821
| 41> *
| 42>
| 43>                          ****END OF INPUT****

CARTESIAN COORDINATES (ANGSTROEM)
---------------------------------
  Pd    -2.134291   -1.779864    0.695767
  Cl    -3.548955   -3.275283   -0.171892
  Cl    -0.694659   -4.308902    1.279835
  Cl    -3.938127   -0.252828    0.749239
  N     -0.965710   -0.134029    1.431571
  C     -1.288572    0.438891    2.584674
  C     -0.758826    1.672267    3.001068
  C      0.079490    2.340758    2.169696
  C     -0.073868    0.449965    0.615607
  C      0.443653    1.745148    0.946915
  H      0.488195    3.312553    2.437841
  H     -1.968403   -0.114865    3.224967
  H     -1.072555    2.085703    3.955383
  C      0.351266   -0.320522   -0.555267
  C      1.333906    2.417948    0.043558
  C      1.658326    1.828972   -1.107849
  C      1.165301    0.484674   -1.435900
  H      1.728778    3.407160    0.322351
  H      2.348063    2.348178   -1.805685
  C      0.030539   -1.703180   -0.814311
  C      1.647965   -0.055828   -2.649468
  C      0.366039   -2.067824   -2.106268
  C      1.189555   -1.311256   -2.990357
  H      2.340098    0.494492   -3.311737
  H      1.585174   -1.788640   -3.890387
  H     -0.335877   -2.883073   -0.133590
  H      0.019041   -3.031415   -2.479658

 Total Charge           Charge          ....   -1
 Multiplicity           Mult            ....    1
 Number of Electrons    NEL             ....  164
 Basis Dimension        Dim             ....  313

ORBITAL ENERGIES
----------------

  NO   OCC          E(Eh)            E(eV)
   0   2.0000    -102.100400     -2778.2931
   1   2.0000    -102.090774     -2778.0312
   2   2.0000    -102.049702     -2776.9136
   3   2.0000     -14.599275      -397.2665
   4   2.0000     -10.423358      -283.6340
   5   2.0000     -10.415106      -283.4095
   6   2.0000     -10.398241      -282.9505
   7   2.0000     -10.396283      -282.8972
   8   2.0000     -10.389649      -282.7167
   9   2.0000     -10.387770      -282.6656
  10   2.0000     -10.385415      -282.6015
  11   2.0000     -10.383853      -282.5590
  12   2.0000     -10.381189      -282.4865
  13   2.0000     -10.369346      -282.1643
  14   2.0000     -10.369034      -282.1558
  15   2.0000     -10.366737      -282.0932
  16   2.0000     -10.355917      -281.7988
  17   2.0000      -9.563592      -260.2386
  18   2.0000      -9.555860      -260.0282
  19   2.0000      -9.512519      -258.8488
  20   2.0000      -7.249995      -197.2824
  21   2.0000      -7.244405      -197.1303
  22   2.0000      -7.244120      -197.1225
  23   2.0000      -7.242618      -197.0817
  24   2.0000      -7.236324      -196.9104
  25   2.0000      -7.235809      -196.8964
  26   2.0000      -7.196881      -195.8371
  27   2.0000      -7.194984      -195.7855
  28   2.0000      -7.193838      -195.7543
  29   2.0000      -3.524163       -95.8974
  30   2.0000      -2.176448       -59.2242
  31   2.0000      -2.162649       -58.8487
  32   2.0000      -2.136218       -58.1294
  33   2.0000      -0.993218       -27.0268
  34   2.0000      -0.885728       -24.1019
  35   2.0000      -0.853219       -23.2173
  36   2.0000      -0.819948       -22.3119
  37   2.0000      -0.783468       -21.3192
  38   2.0000      -0.744170       -20.2499
  39   2.0000      -0.734414       -19.9844
  40   2.0000      -0.690187       -18.7809
  41   2.0000      -0.678144       -18.4532
  42   2.0000      -0.650081       -17.6896
  43   2.0000      -0.646193       -17.5838
  44   2.0000      -0.635183       -17.2842
  45   2.0000      -0.612300       -16.6615
  46   2.0000      -0.582655       -15.8548
  47   2.0000      -0.533591       -14.5198
  48   2.0000      -0.521370       -14.1872
  49   2.0000      -0.501784       -13.6542
  50   2.0000      -0.466761       -12.7012
  51   2.0000      -0.464049       -12.6274
  52   2.0000      -0.435173       -11.8417
  53   2.0000      -0.419903       -11.4261
  54   2.0000      -0.412054       -11.2126
  55   2.0000      -0.405075       -11.0227
  56   2.0000      -0.392513       -10.6808
  57   2.0000      -0.388780       -10.5792
  58   2.0000      -0.369289       -10.0489
  59   2.0000      -0.347532        -9.4568
  60   2.0000      -0.344677        -9.3791
  61   2.0000      -0.319386        -8.6909
  62   2.0000      -0.313688        -8.5359
  63   2.0000      -0.302472        -8.2307
  64   2.0000      -0.298520        -8.1231
  65   2.0000      -0.273913        -7.4535
  66   2.0000      -0.263276        -7.1641
  67   2.0000      -0.251531        -6.8445
  68   2.0000      -0.239654        -6.5213
  69   2.0000      -0.234675        -6.3858
  70   2.0000      -0.227883        -6.2010
  71   2.0000      -0.225755        -6.1431
  72   2.0000      -0.189954        -5.1689
  73   2.0000      -0.183051        -4.9811
  74   2.0000      -0.170438        -4.6379
  75   2.0000      -0.168395        -4.5823
  76   2.0000      -0.164089        -4.4651
  77   2.0000      -0.152157        -4.1404
  78   2.0000      -0.148099        -4.0300
  79   2.0000      -0.137988        -3.7548
  80   2.0000      -0.128623        -3.5000
  81   2.0000      -0.122567        -3.3352
  82   0.0000       0.042704         1.1620
  83   0.0000       0.053054         1.4437
  84   0.0000       0.058183         1.5832
  85   0.0000       0.096715         2.6317
  86   0.0000       0.126797         3.4503

MULLIKEN ATOMIC CHARGES
-----------------------
   0 Pd:    0.190910
   1 Cl:   -0.278218
   2 Cl:   -0.544801
   3 Cl:   -0.378578
   4 N :   -0.551721
   5 C :    0.049009
   6 C :   -0.325254
   7 C :   -0.143611
   8 C :    0.347682
   9 C :    0.035388
  10 H :    0.213652
  11 H :    0.279330
  12 H :    0.221309
  13 C :    0.009600
  14 C :   -0.293201
  15 C :   -0.250038
  16 C :    0.084165
  17 H :    0.196653
  18 H :    0.198323
  19 C :   -0.272209
  20 C :   -0.304693
  21 C :   -0.220397
  22 C :   -0.202881
  23 H :    0.196153
  24 H :    0.198656
  25 H :    0.306626
  26 H :    0.238145
Sum of atomic charges:   -1.0000000

LOEWDIN ATOMIC CHARGES
----------------------
   0 Pd:   -0.813085
   1 Cl:   -0.005992
   2 Cl:   -0.452967
   3 Cl:   -0.119791
   4 N :    0.026134
   5 C :    0.013950
   6 C :   -0.165278
   7 C :   -0.089699
   8 C :    0.087123
   9 C :   -0.048728
  10 H :    0.137089
  11 H :    0.165356
  12 H :    0.141259
  13 C :   -0.016067
  14 C :   -0.142481
  15 C :   -0.119146
  16 C :   -0.026962
  17 H :    0.130598
  18 H :    0.134073
  19 C :   -0.111761
  20 C :   -0.145041
  21 C :   -0.120338
  22 C :   -0.135330
  23 H :    0.128392
  24 H :    0.128503
  25 H :    0.276102
  26 H :    0.144086

  Mayer bond orders larger than 0.100000
B(  0-Pd,  1-Cl) :   0.9857 B(  0-Pd,  2-Cl) :   0.3822 B(  0-Pd,  3-Cl) :   0.8491
B(  0-Pd,  4-N ) :   0.3515 B(  2-Cl, 25-H ) :   0.2848 B(  4-N ,  5-C ) :   1.4665
B(  4-N ,  8-C ) :   1.2055 B(  5-C ,  6-C ) :   1.3229 B(  5-C , 11-H ) :   0.8935
B(  6-C ,  7-C ) :   1.4525 B(  6-C , 12-H ) :   0.9180 B(  7-C ,  9-C ) :   1.2855
B(  7-C , 10-H ) :   0.9271 B(  8-C ,  9-C ) :   1.2077 B(  8-C , 13-C ) :   1.0894
B(  9-C , 14-C ) :   1.1587 B( 13-C , 16-C ) :   1.2991 B( 13-C , 19-C ) :   1.2450
B( 14-C , 15-C ) :   1.6475 B( 14-C , 17-H ) :   0.9278 B( 15-C , 16-C ) :   1.1327
B( 15-C , 18-H ) :   0.9276 B( 16-C , 20-C ) :   1.2770 B( 19-C , 21-C ) :   1.4340
B( 19-C , 25-H ) :   0.5733 B( 20-C , 22-C ) :   1.4943 B( 20-C , 23-H ) :   0.9285
B( 21-C , 22-C ) :   1.3346 B( 21-C , 26-H ) :   0.9110 B( 22-C , 24-H ) :   0.9248

Dispersion correction           -0.024396756
FINAL SINGLE POINT ENERGY     -2061.435913446599
Dispersion correction            ... done

DIPOLE MOMENT
-------------
                                X             Y             Z
Electronic contribution:    -83.14703     -65.63382      29.46256
Nuclear contribution   :     86.11366      69.99678     -29.61551
                        -----------------------------------------
Total Dipole Moment    :      2.96662       4.36296      -0.15295
                        -----------------------------------------
Magnitude (a.u.)       :      5.27823
Magnitude (Debye)      :     13.41618

Rotational constants in cm-1:     0.011821     0.007504     0.005744
Rotational constants in MHz :   354.387394   224.974497   172.203532

                             ****ORCA TERMINATED NORMALLY****
TOTAL RUN TIME: 0 days 0 hours 17 minutes 32 seconds 203 msec
