                         Program Version 5.0.3 -  RELEASE  -
|  1> ! EnGrad PBEh-3c
|  2> %output
|  3> xyzfile=True
|  4> end
|  5> %scf
|  6> maxiter 250
|  7> end
|  8> %output
|  9> Print[P_Hirshfeld] = 1
| 10> end
| 11> % maxcore
| 12> 4000
| 13> *xyz -1 1
| 14> Pd  -2.17500382  -1.77528219   0.72350993
| 15> Cl  -3.58428021  -3.25338514  -0.14035439
| 16> Cl  -0.77538209  -4.30766004   1.38728110
| 17> Cl  -3.90572520  -0.18670006   0.64363234
| 18> N   -0.96528202  -0.14514416   1.43737126
| 19> C   -1.27125548   0.41788364   2.59038157
| 20> C   -0.75470123   1.64969683   3.01222244
| 21> C    0.08305335   2.32842454   2.16999006
| 22> C   -0.06964420   0.45497102   0.62093276
| 23> C    0.44202450   1.74460902   0.94694694
| 24> H    0.48222235   3.29559807   2.44399852
| 25> H   -1.94731152  -0.13597778   3.22244563
| 26> H   -1.05956266   2.05848855   3.96100705
| 27> C    0.34722217  -0.28162840  -0.57496425
| 28> C    1.32063410   2.42201362   0.04515943
| 29> C    1.65295643   1.83724463  -1.12339256
| 30> C    1.17447503   0.51175717  -1.45473453
| 31> H    1.70536805   3.40267330   0.31475032
| 32> H    2.32124079   2.36185357  -1.81091640
| 33> C    0.02722329  -1.71840721  -0.83283499
| 34> C    1.65278171  -0.05518595  -2.66456865
| 35> C    0.38952413  -2.06484375  -2.11920140
| 36> C    1.21835619  -1.31028867  -2.99941170
| 37> H    2.31635626   0.50019003  -3.32156211
| 38> H    1.60588911  -1.78365570  -3.89338237
| 39> H   -0.30173102  -2.93593082  -0.12530867
| 40> H    0.06668190  -3.03173996  -2.45631902
| 41> *
| 42>
| 43>                          ****END OF INPUT****

CARTESIAN COORDINATES (ANGSTROEM)
---------------------------------
  Pd    -2.175004   -1.775282    0.723510
  Cl    -3.584280   -3.253385   -0.140354
  Cl    -0.775382   -4.307660    1.387281
  Cl    -3.905725   -0.186700    0.643632
  N     -0.965282   -0.145144    1.437371
  C     -1.271255    0.417884    2.590382
  C     -0.754701    1.649697    3.012222
  C      0.083053    2.328425    2.169990
  C     -0.069644    0.454971    0.620933
  C      0.442024    1.744609    0.946947
  H      0.482222    3.295598    2.443999
  H     -1.947312   -0.135978    3.222446
  H     -1.059563    2.058489    3.961007
  C      0.347222   -0.281628   -0.574964
  C      1.320634    2.422014    0.045159
  C      1.652956    1.837245   -1.123393
  C      1.174475    0.511757   -1.454735
  H      1.705368    3.402673    0.314750
  H      2.321241    2.361854   -1.810916
  C      0.027223   -1.718407   -0.832835
  C      1.652782   -0.055186   -2.664569
  C      0.389524   -2.064844   -2.119201
  C      1.218356   -1.310289   -2.999412
  H      2.316356    0.500190   -3.321562
  H      1.605889   -1.783656   -3.893382
  H     -0.301731   -2.935931   -0.125309
  H      0.066682   -3.031740   -2.456319

 Total Charge           Charge          ....   -1
 Multiplicity           Mult            ....    1
 Number of Electrons    NEL             ....  164
 Basis Dimension        Dim             ....  313

ORBITAL ENERGIES
----------------

  NO   OCC          E(Eh)            E(eV)
   0   2.0000    -102.100463     -2778.2948
   1   2.0000    -102.090949     -2778.0360
   2   2.0000    -102.052062     -2776.9778
   3   2.0000     -14.598318      -397.2404
   4   2.0000     -10.422504      -283.6107
   5   2.0000     -10.412812      -283.3470
   6   2.0000     -10.397970      -282.9432
   7   2.0000     -10.394429      -282.8468
   8   2.0000     -10.392692      -282.7995
   9   2.0000     -10.387112      -282.6477
  10   2.0000     -10.383935      -282.5612
  11   2.0000     -10.383090      -282.5383
  12   2.0000     -10.381090      -282.4838
  13   2.0000     -10.374499      -282.3045
  14   2.0000     -10.366609      -282.0898
  15   2.0000     -10.365495      -282.0595
  16   2.0000     -10.352177      -281.6971
  17   2.0000      -9.563762      -260.2432
  18   2.0000      -9.556285      -260.0397
  19   2.0000      -9.514598      -258.9054
  20   2.0000      -7.250203      -197.2881
  21   2.0000      -7.244533      -197.1338
  22   2.0000      -7.244265      -197.1265
  23   2.0000      -7.243017      -197.0925
  24   2.0000      -7.236732      -196.9215
  25   2.0000      -7.236222      -196.9076
  26   2.0000      -7.198970      -195.8939
  27   2.0000      -7.197124      -195.8437
  28   2.0000      -7.195907      -195.8106
  29   2.0000      -3.522952       -95.8644
  30   2.0000      -2.175258       -59.1918
  31   2.0000      -2.161669       -58.8220
  32   2.0000      -2.134911       -58.0939
  33   2.0000      -0.992508       -27.0075
  34   2.0000      -0.885469       -24.0948
  35   2.0000      -0.851785       -23.1783
  36   2.0000      -0.818678       -22.2774
  37   2.0000      -0.782887       -21.3034
  38   2.0000      -0.744310       -20.2537
  39   2.0000      -0.732653       -19.9365
  40   2.0000      -0.691149       -18.8071
  41   2.0000      -0.679185       -18.4816
  42   2.0000      -0.651571       -17.7302
  43   2.0000      -0.645935       -17.5768
  44   2.0000      -0.635497       -17.2927
  45   2.0000      -0.612792       -16.6749
  46   2.0000      -0.583478       -15.8772
  47   2.0000      -0.533173       -14.5084
  48   2.0000      -0.522120       -14.2076
  49   2.0000      -0.502444       -13.6722
  50   2.0000      -0.467767       -12.7286
  51   2.0000      -0.466288       -12.6883
  52   2.0000      -0.435716       -11.8564
  53   2.0000      -0.418556       -11.3895
  54   2.0000      -0.412318       -11.2198
  55   2.0000      -0.405079       -11.0227
  56   2.0000      -0.392058       -10.6684
  57   2.0000      -0.387454       -10.5432
  58   2.0000      -0.367787       -10.0080
  59   2.0000      -0.347147        -9.4464
  60   2.0000      -0.346109        -9.4181
  61   2.0000      -0.319236        -8.6869
  62   2.0000      -0.312000        -8.4900
  63   2.0000      -0.301366        -8.2006
  64   2.0000      -0.296098        -8.0572
  65   2.0000      -0.273464        -7.4413
  66   2.0000      -0.262177        -7.1342
  67   2.0000      -0.252135        -6.8609
  68   2.0000      -0.240866        -6.5543
  69   2.0000      -0.234111        -6.3705
  70   2.0000      -0.229063        -6.2331
  71   2.0000      -0.225936        -6.1480
  72   2.0000      -0.189261        -5.1501
  73   2.0000      -0.182268        -4.9598
  74   2.0000      -0.168969        -4.5979
  75   2.0000      -0.167471        -4.5571
  76   2.0000      -0.164276        -4.4702
  77   2.0000      -0.152143        -4.1400
  78   2.0000      -0.147163        -4.0045
  79   2.0000      -0.138841        -3.7781
  80   2.0000      -0.130715        -3.5569
  81   2.0000      -0.123902        -3.3715
  82   0.0000       0.040702         1.1075
  83   0.0000       0.054826         1.4919
  84   0.0000       0.059232         1.6118
  85   0.0000       0.099161         2.6983
  86   0.0000       0.123722         3.3666

MULLIKEN ATOMIC CHARGES
-----------------------
   0 Pd:    0.186747
   1 Cl:   -0.275081
   2 Cl:   -0.544034
   3 Cl:   -0.376986
   4 N :   -0.548157
   5 C :    0.051907
   6 C :   -0.323762
   7 C :   -0.150597
   8 C :    0.355211
   9 C :    0.048054
  10 H :    0.213414
  11 H :    0.278029
  12 H :    0.222176
  13 C :   -0.032705
  14 C :   -0.298919
  15 C :   -0.256977
  16 C :    0.103429
  17 H :    0.197947
  18 H :    0.200088
  19 C :   -0.267424
  20 C :   -0.303320
  21 C :   -0.218674
  22 C :   -0.196216
  23 H :    0.195548
  24 H :    0.200251
  25 H :    0.305429
  26 H :    0.234625
Sum of atomic charges:   -1.0000000

LOEWDIN ATOMIC CHARGES
----------------------
   0 Pd:   -0.821593
   1 Cl:    0.002748
   2 Cl:   -0.450010
   3 Cl:   -0.113470
   4 N :    0.025481
   5 C :    0.013257
   6 C :   -0.165613
   7 C :   -0.086292
   8 C :    0.086472
   9 C :   -0.051014
  10 H :    0.136565
  11 H :    0.163847
  12 H :    0.141429
  13 C :   -0.010744
  14 C :   -0.140372
  15 C :   -0.120006
  16 C :   -0.029762
  17 H :    0.131102
  18 H :    0.134211
  19 C :   -0.110405
  20 C :   -0.145822
  21 C :   -0.131263
  22 C :   -0.133921
  23 H :    0.127524
  24 H :    0.129470
  25 H :    0.276655
  26 H :    0.141526

  Mayer bond orders larger than 0.100000
B(  0-Pd,  1-Cl) :   0.9928 B(  0-Pd,  2-Cl) :   0.3990 B(  0-Pd,  3-Cl) :   0.8574
B(  0-Pd,  4-N ) :   0.3460 B(  2-Cl, 25-H ) :   0.2682 B(  4-N ,  5-C ) :   1.4800
B(  4-N ,  8-C ) :   1.1990 B(  5-C ,  6-C ) :   1.3171 B(  5-C , 11-H ) :   0.8947
B(  6-C ,  7-C ) :   1.4611 B(  6-C , 12-H ) :   0.9183 B(  7-C ,  9-C ) :   1.2788
B(  7-C , 10-H ) :   0.9276 B(  8-C ,  9-C ) :   1.2116 B(  8-C , 13-C ) :   1.1095
B(  9-C , 14-C ) :   1.1684 B( 13-C , 16-C ) :   1.3104 B( 13-C , 19-C ) :   1.2448
B( 14-C , 15-C ) :   1.6360 B( 14-C , 17-H ) :   0.9282 B( 15-C , 16-C ) :   1.1504
B( 15-C , 18-H ) :   0.9272 B( 16-C , 20-C ) :   1.2555 B( 19-C , 21-C ) :   1.4626
B( 19-C , 25-H ) :   0.5942 B( 20-C , 22-C ) :   1.5221 B( 20-C , 23-H ) :   0.9281
B( 21-C , 22-C ) :   1.3125 B( 21-C , 26-H ) :   0.9124 B( 22-C , 24-H ) :   0.9243

Dispersion correction           -0.024439772
FINAL SINGLE POINT ENERGY     -2061.432406531191
Dispersion correction            ... done

DIPOLE MOMENT
-------------
                                X             Y             Z
Electronic contribution:    -84.96820     -65.74979      30.83195
Nuclear contribution   :     87.96811      70.04826     -30.98204
                        -----------------------------------------
Total Dipole Moment    :      2.99991       4.29847      -0.15009
                        -----------------------------------------
Magnitude (a.u.)       :      5.24393
Magnitude (Debye)      :     13.32901

Rotational constants in cm-1:     0.011811     0.007395     0.005740
Rotational constants in MHz :   354.096562   221.702886   172.072296

                             ****ORCA TERMINATED NORMALLY****
TOTAL RUN TIME: 0 days 0 hours 13 minutes 43 seconds 102 msec
