                         Program Version 5.0.3 -  RELEASE  -
|  1> ! EnGrad PBEh-3c
|  2> %output
|  3> xyzfile=True
|  4> end
|  5> %scf
|  6> maxiter 250
|  7> end
|  8> %output
|  9> Print[P_Hirshfeld] = 1
| 10> end
| 11> % maxcore
| 12> 4000
| 13> *xyz -1 1
| 14> Pd  -2.08827388  -1.75838285   0.65117772
| 15> Cl  -3.49758998  -3.30689185  -0.21698012
| 16> Cl  -0.57855848  -4.29922970   1.11638838
| 17> Cl  -3.97667404  -0.34355522   0.89372646
| 18> N   -0.96908653  -0.12222004   1.43297169
| 19> C   -1.30761474   0.46406691   2.57445018
| 20> C   -0.77899773   1.69114136   2.99528109
| 21> C    0.08232924   2.35604733   2.15537279
| 22> C   -0.07289937   0.44223346   0.61106104
| 23> C    0.44619350   1.74279515   0.94388306
| 24> H    0.49448781   3.33208046   2.42818439
| 25> H   -1.99768106  -0.08288616   3.22333500
| 26> H   -1.08804858   2.11933960   3.94474553
| 27> C    0.36365933  -0.33653117  -0.52423366
| 28> C    1.34751177   2.42055948   0.05718232
| 29> C    1.66785775   1.80452898  -1.10200141
| 30> C    1.17223264   0.45758151  -1.41985786
| 31> H    1.75585720   3.40364525   0.32959607
| 32> H    2.37307443   2.31985853  -1.79172942
| 33> C    0.01634320  -1.67892294  -0.80266862
| 34> C    1.63363872  -0.06622612  -2.62975787
| 35> C    0.33859519  -2.07245961  -2.10152918
| 36> C    1.15844167  -1.31800157  -2.97201754
| 37> H    2.36185398   0.48050528  -3.28838638
| 38> H    1.54984556  -1.79255465  -3.88347551
| 39> H   -0.37212675  -2.83254019  -0.10922792
| 40> H   -0.04059748  -3.02531922  -2.50418945
| 41> *
| 42>
| 43>                          ****END OF INPUT****

CARTESIAN COORDINATES (ANGSTROEM)
---------------------------------
  Pd    -2.088274   -1.758383    0.651178
  Cl    -3.497590   -3.306892   -0.216980
  Cl    -0.578558   -4.299230    1.116388
  Cl    -3.976674   -0.343555    0.893726
  N     -0.969087   -0.122220    1.432972
  C     -1.307615    0.464067    2.574450
  C     -0.778998    1.691141    2.995281
  C      0.082329    2.356047    2.155373
  C     -0.072899    0.442233    0.611061
  C      0.446194    1.742795    0.943883
  H      0.494488    3.332080    2.428184
  H     -1.997681   -0.082886    3.223335
  H     -1.088049    2.119340    3.944746
  C      0.363659   -0.336531   -0.524234
  C      1.347512    2.420559    0.057182
  C      1.667858    1.804529   -1.102001
  C      1.172233    0.457582   -1.419858
  H      1.755857    3.403645    0.329596
  H      2.373074    2.319859   -1.791729
  C      0.016343   -1.678923   -0.802669
  C      1.633639   -0.066226   -2.629758
  C      0.338595   -2.072460   -2.101529
  C      1.158442   -1.318002   -2.972018
  H      2.361854    0.480505   -3.288386
  H      1.549846   -1.792555   -3.883476
  H     -0.372127   -2.832540   -0.109228
  H     -0.040597   -3.025319   -2.504189

 Total Charge           Charge          ....   -1
 Multiplicity           Mult            ....    1
 Number of Electrons    NEL             ....  164
 Basis Dimension        Dim             ....  313

ORBITAL ENERGIES
----------------

  NO   OCC          E(Eh)            E(eV)
   0   2.0000    -102.101207     -2778.3151
   1   2.0000    -102.089389     -2777.9935
   2   2.0000    -102.047083     -2776.8423
   3   2.0000     -14.600861      -397.3096
   4   2.0000     -10.424121      -283.6547
   5   2.0000     -10.415619      -283.4234
   6   2.0000     -10.400485      -283.0116
   7   2.0000     -10.397107      -282.9197
   8   2.0000     -10.387079      -282.6468
   9   2.0000     -10.386372      -282.6276
  10   2.0000     -10.385151      -282.5943
  11   2.0000     -10.385114      -282.5933
  12   2.0000     -10.382679      -282.5271
  13   2.0000     -10.370280      -282.1897
  14   2.0000     -10.366450      -282.0854
  15   2.0000     -10.364467      -282.0315
  16   2.0000     -10.357948      -281.8541
  17   2.0000      -9.564331      -260.2587
  18   2.0000      -9.554038      -259.9786
  19   2.0000      -9.510473      -258.7931
  20   2.0000      -7.250701      -197.3016
  21   2.0000      -7.245175      -197.1512
  22   2.0000      -7.244878      -197.1431
  23   2.0000      -7.240801      -197.0322
  24   2.0000      -7.234552      -196.8622
  25   2.0000      -7.234042      -196.8483
  26   2.0000      -7.194785      -195.7800
  27   2.0000      -7.192869      -195.7279
  28   2.0000      -7.191779      -195.6982
  29   2.0000      -3.526953       -95.9733
  30   2.0000      -2.179026       -59.2943
  31   2.0000      -2.165430       -58.9243
  32   2.0000      -2.138826       -58.2004
  33   2.0000      -0.994956       -27.0741
  34   2.0000      -0.887726       -24.1563
  35   2.0000      -0.853518       -23.2254
  36   2.0000      -0.819300       -22.2943
  37   2.0000      -0.784868       -21.3573
  38   2.0000      -0.746219       -20.3057
  39   2.0000      -0.733400       -19.9568
  40   2.0000      -0.689068       -18.7505
  41   2.0000      -0.676320       -18.4036
  42   2.0000      -0.650131       -17.6910
  43   2.0000      -0.646923       -17.6037
  44   2.0000      -0.636796       -17.3281
  45   2.0000      -0.613657       -16.6984
  46   2.0000      -0.582465       -15.8497
  47   2.0000      -0.534540       -14.5456
  48   2.0000      -0.521027       -14.1779
  49   2.0000      -0.501183       -13.6379
  50   2.0000      -0.467875       -12.7315
  51   2.0000      -0.463036       -12.5999
  52   2.0000      -0.434656       -11.8276
  53   2.0000      -0.420079       -11.4309
  54   2.0000      -0.413357       -11.2480
  55   2.0000      -0.406315       -11.0564
  56   2.0000      -0.393868       -10.7177
  57   2.0000      -0.388896       -10.5824
  58   2.0000      -0.371090       -10.0979
  59   2.0000      -0.349624        -9.5138
  60   2.0000      -0.344403        -9.3717
  61   2.0000      -0.319259        -8.6875
  62   2.0000      -0.314606        -8.5609
  63   2.0000      -0.305115        -8.3026
  64   2.0000      -0.300947        -8.1892
  65   2.0000      -0.272660        -7.4195
  66   2.0000      -0.264662        -7.2018
  67   2.0000      -0.251152        -6.8342
  68   2.0000      -0.238314        -6.4848
  69   2.0000      -0.235834        -6.4174
  70   2.0000      -0.227610        -6.1936
  71   2.0000      -0.224788        -6.1168
  72   2.0000      -0.190629        -5.1873
  73   2.0000      -0.182852        -4.9756
  74   2.0000      -0.172482        -4.6935
  75   2.0000      -0.169798        -4.6204
  76   2.0000      -0.163712        -4.4548
  77   2.0000      -0.152667        -4.1543
  78   2.0000      -0.149019        -4.0550
  79   2.0000      -0.137939        -3.7535
  80   2.0000      -0.125834        -3.4241
  81   2.0000      -0.120318        -3.2740
  82   0.0000       0.041188         1.1208
  83   0.0000       0.050021         1.3611
  84   0.0000       0.056789         1.5453
  85   0.0000       0.096259         2.6193
  86   0.0000       0.129336         3.5194

MULLIKEN ATOMIC CHARGES
-----------------------
   0 Pd:    0.203679
   1 Cl:   -0.286374
   2 Cl:   -0.542338
   3 Cl:   -0.377064
   4 N :   -0.559424
   5 C :    0.048734
   6 C :   -0.324024
   7 C :   -0.154103
   8 C :    0.354189
   9 C :    0.027340
  10 H :    0.214597
  11 H :    0.278771
  12 H :    0.222305
  13 C :    0.046973
  14 C :   -0.291456
  15 C :   -0.262676
  16 C :    0.091914
  17 H :    0.199477
  18 H :    0.196714
  19 C :   -0.283169
  20 C :   -0.305917
  21 C :   -0.223246
  22 C :   -0.206500
  23 H :    0.195272
  24 H :    0.197340
  25 H :    0.296511
  26 H :    0.242473
Sum of atomic charges:   -1.0000000

LOEWDIN ATOMIC CHARGES
----------------------
   0 Pd:   -0.796312
   1 Cl:   -0.025749
   2 Cl:   -0.459100
   3 Cl:   -0.121659
   4 N :    0.027834
   5 C :    0.010724
   6 C :   -0.166586
   7 C :   -0.089523
   8 C :    0.089114
   9 C :   -0.048038
  10 H :    0.137459
  11 H :    0.166203
  12 H :    0.141277
  13 C :   -0.022360
  14 C :   -0.144870
  15 C :   -0.117703
  16 C :   -0.025843
  17 H :    0.131886
  18 H :    0.132894
  19 C :   -0.110737
  20 C :   -0.143688
  21 C :   -0.112487
  22 C :   -0.133782
  23 H :    0.129047
  24 H :    0.127724
  25 H :    0.275928
  26 H :    0.148349

  Mayer bond orders larger than 0.100000
B(  0-Pd,  1-Cl) :   0.9714 B(  0-Pd,  2-Cl) :   0.3250 B(  0-Pd,  3-Cl) :   0.8467
B(  0-Pd,  4-N ) :   0.3663 B(  0-Pd, 19-C ) :   0.1238 B(  2-Cl, 25-H ) :   0.3406
B(  4-N ,  5-C ) :   1.4541 B(  4-N ,  8-C ) :   1.1961 B(  5-C ,  6-C ) :   1.3334
B(  5-C , 11-H ) :   0.8925 B(  6-C ,  7-C ) :   1.4406 B(  6-C , 12-H ) :   0.9175
B(  7-C ,  9-C ) :   1.2932 B(  7-C , 10-H ) :   0.9269 B(  8-C ,  9-C ) :   1.1976
B(  8-C , 13-C ) :   1.0965 B(  9-C , 14-C ) :   1.1595 B( 13-C , 16-C ) :   1.2809
B( 13-C , 19-C ) :   1.2264 B( 14-C , 15-C ) :   1.6465 B( 14-C , 17-H ) :   0.9272
B( 15-C , 16-C ) :   1.1308 B( 15-C , 18-H ) :   0.9282 B( 16-C , 20-C ) :   1.2939
B( 19-C , 21-C ) :   1.4160 B( 19-C , 25-H ) :   0.5056 B( 20-C , 22-C ) :   1.4660
B( 20-C , 23-H ) :   0.9299 B( 21-C , 22-C ) :   1.3563 B( 21-C , 26-H ) :   0.9093
B( 22-C , 24-H ) :   0.9248

Dispersion correction           -0.024463558
FINAL SINGLE POINT ENERGY     -2061.437687547314
Dispersion correction            ... done

DIPOLE MOMENT
-------------
                                X             Y             Z
Electronic contribution:    -81.19707     -64.08837      27.34913
Nuclear contribution   :     84.12142      68.55296     -27.48410
                        -----------------------------------------
Total Dipole Moment    :      2.92434       4.46459      -0.13497
                        -----------------------------------------
Magnitude (a.u.)       :      5.33878
Magnitude (Debye)      :     13.57010

Rotational constants in cm-1:     0.011817     0.007678     0.005750
Rotational constants in MHz :   354.256473   230.174263   172.382204

                             ****ORCA TERMINATED NORMALLY****
TOTAL RUN TIME: 0 days 0 hours 13 minutes 22 seconds 234 msec
