                         Program Version 5.0.3 -  RELEASE  -
|  1> ! EnGrad PBEh-3c
|  2> %output
|  3> xyzfile=True
|  4> end
|  5> %scf
|  6> maxiter 250
|  7> end
|  8> %output
|  9> Print[P_Hirshfeld] = 1
| 10> end
| 11> % maxcore
| 12> 4000
| 13> *xyz -1 1
| 14> Pd  -2.15027429  -1.77046364   0.70288566
| 15> Cl  -3.55956200  -3.26864165  -0.16220288
| 16> Cl  -0.71926126  -4.30525628   1.31004075
| 17> Cl  -3.92595503  -0.23142458   0.71494232
| 18> N   -0.96636681  -0.13860775   1.43611680
| 19> C   -1.28162269   0.43105199   2.58583901
| 20> C   -0.76162895   1.66151401   3.00739191
| 21> C    0.08284688   2.33630070   2.16582220
| 22> C   -0.07057235   0.45133913   0.61811801
| 23> C    0.44321322   1.74409183   0.94607333
| 24> H    0.48571963   3.30600039   2.43948940
| 25> H   -1.96167352  -0.12083963   3.22269922
| 26> H   -1.06768492   2.07583917   3.95637036
| 27> C    0.35190894  -0.29728297  -0.56049931
| 28> C    1.32829780   2.42159900   0.04858755
| 29> C    1.65720528   1.82791633  -1.11729325
| 30> C    1.17383565   0.49630992  -1.44479006
| 31> H    1.71976415   3.40295044   0.31898333
| 32> H    2.33602025   2.34987941  -1.80544556
| 33> C    0.02412102  -1.70714896  -0.82423357
| 34> C    1.64732342  -0.05833386  -2.65464296
| 35> C    0.37500263  -2.06701528  -2.11416247
| 36> C    1.20127261  -1.31248787  -2.99160074
| 37> H    2.32932915   0.49457727  -3.31210263
| 38> H    1.58990927  -1.78619308  -3.89055760
| 39> H   -0.32180314  -2.90645078  -0.12072352
| 40> H    0.03609305  -3.02990920  -2.46996844
| 41> *
| 42>
| 43>                          ****END OF INPUT****

CARTESIAN COORDINATES (ANGSTROEM)
---------------------------------
  Pd    -2.150274   -1.770464    0.702886
  Cl    -3.559562   -3.268642   -0.162203
  Cl    -0.719261   -4.305256    1.310041
  Cl    -3.925955   -0.231425    0.714942
  N     -0.966367   -0.138608    1.436117
  C     -1.281623    0.431052    2.585839
  C     -0.761629    1.661514    3.007392
  C      0.082847    2.336301    2.165822
  C     -0.070572    0.451339    0.618118
  C      0.443213    1.744092    0.946073
  H      0.485720    3.306000    2.439489
  H     -1.961674   -0.120840    3.222699
  H     -1.067685    2.075839    3.956370
  C      0.351909   -0.297283   -0.560499
  C      1.328298    2.421599    0.048588
  C      1.657205    1.827916   -1.117293
  C      1.173836    0.496310   -1.444790
  H      1.719764    3.402950    0.318983
  H      2.336020    2.349879   -1.805446
  C      0.024121   -1.707149   -0.824234
  C      1.647323   -0.058334   -2.654643
  C      0.375003   -2.067015   -2.114162
  C      1.201273   -1.312488   -2.991601
  H      2.329329    0.494577   -3.312103
  H      1.589909   -1.786193   -3.890558
  H     -0.321803   -2.906451   -0.120724
  H      0.036093   -3.029909   -2.469968

 Total Charge           Charge          ....   -1
 Multiplicity           Mult            ....    1
 Number of Electrons    NEL             ....  164
 Basis Dimension        Dim             ....  313

ORBITAL ENERGIES
----------------

  NO   OCC          E(Eh)            E(eV)
   0   2.0000    -102.101081     -2778.3117
   1   2.0000    -102.090451     -2778.0224
   2   2.0000    -102.051194     -2776.9542
   3   2.0000     -14.598873      -397.2555
   4   2.0000     -10.422742      -283.6172
   5   2.0000     -10.413521      -283.3663
   6   2.0000     -10.398562      -282.9593
   7   2.0000     -10.395022      -282.8629
   8   2.0000     -10.390292      -282.7342
   9   2.0000     -10.386660      -282.6354
  10   2.0000     -10.384636      -282.5803
  11   2.0000     -10.383543      -282.5506
  12   2.0000     -10.381370      -282.4914
  13   2.0000     -10.370954      -282.2080
  14   2.0000     -10.367290      -282.1083
  15   2.0000     -10.365497      -282.0595
  16   2.0000     -10.353412      -281.7307
  17   2.0000      -9.564389      -260.2603
  18   2.0000      -9.555585      -260.0207
  19   2.0000      -9.513945      -258.8876
  20   2.0000      -7.250820      -197.3048
  21   2.0000      -7.245168      -197.1511
  22   2.0000      -7.244890      -197.1435
  23   2.0000      -7.242324      -197.0736
  24   2.0000      -7.236053      -196.9030
  25   2.0000      -7.235544      -196.8892
  26   2.0000      -7.198299      -195.8757
  27   2.0000      -7.196446      -195.8253
  28   2.0000      -7.195242      -195.7925
  29   2.0000      -3.523910       -95.8905
  30   2.0000      -2.176117       -59.2152
  31   2.0000      -2.162628       -58.8481
  32   2.0000      -2.135844       -58.1193
  33   2.0000      -0.993068       -27.0228
  34   2.0000      -0.885724       -24.1018
  35   2.0000      -0.852135       -23.1878
  36   2.0000      -0.818661       -22.2769
  37   2.0000      -0.783128       -21.3100
  38   2.0000      -0.744672       -20.2636
  39   2.0000      -0.732555       -19.9338
  40   2.0000      -0.690914       -18.8007
  41   2.0000      -0.678648       -18.4670
  42   2.0000      -0.650858       -17.7108
  43   2.0000      -0.646135       -17.5822
  44   2.0000      -0.636194       -17.3117
  45   2.0000      -0.612870       -16.6770
  46   2.0000      -0.582912       -15.8618
  47   2.0000      -0.533419       -14.5151
  48   2.0000      -0.521618       -14.1939
  49   2.0000      -0.501962       -13.6591
  50   2.0000      -0.467599       -12.7240
  51   2.0000      -0.465208       -12.6590
  52   2.0000      -0.435156       -11.8412
  53   2.0000      -0.418861       -11.3978
  54   2.0000      -0.412398       -11.2219
  55   2.0000      -0.405145       -11.0245
  56   2.0000      -0.392153       -10.6710
  57   2.0000      -0.387644       -10.5483
  58   2.0000      -0.368634       -10.0310
  59   2.0000      -0.347643        -9.4598
  60   2.0000      -0.345590        -9.4040
  61   2.0000      -0.319213        -8.6862
  62   2.0000      -0.312764        -8.5107
  63   2.0000      -0.302279        -8.2254
  64   2.0000      -0.297642        -8.0992
  65   2.0000      -0.273221        -7.4347
  66   2.0000      -0.262717        -7.1489
  67   2.0000      -0.252639        -6.8747
  68   2.0000      -0.239568        -6.5190
  69   2.0000      -0.234539        -6.3821
  70   2.0000      -0.228423        -6.2157
  71   2.0000      -0.226503        -6.1634
  72   2.0000      -0.189452        -5.1553
  73   2.0000      -0.182312        -4.9610
  74   2.0000      -0.169713        -4.6181
  75   2.0000      -0.168302        -4.5797
  76   2.0000      -0.164178        -4.4675
  77   2.0000      -0.152554        -4.1512
  78   2.0000      -0.147694        -4.0190
  79   2.0000      -0.138943        -3.7808
  80   2.0000      -0.129188        -3.5154
  81   2.0000      -0.123245        -3.3537
  82   0.0000       0.041011         1.1160
  83   0.0000       0.053872         1.4659
  84   0.0000       0.058752         1.5987
  85   0.0000       0.098549         2.6816
  86   0.0000       0.125702         3.4205

MULLIKEN ATOMIC CHARGES
-----------------------
   0 Pd:    0.192191
   1 Cl:   -0.278445
   2 Cl:   -0.542661
   3 Cl:   -0.375149
   4 N :   -0.551929
   5 C :    0.051072
   6 C :   -0.324216
   7 C :   -0.151250
   8 C :    0.357009
   9 C :    0.041478
  10 H :    0.213726
  11 H :    0.278160
  12 H :    0.222127
  13 C :   -0.013517
  14 C :   -0.297059
  15 C :   -0.259467
  16 C :    0.102132
  17 H :    0.198279
  18 H :    0.199089
  19 C :   -0.271303
  20 C :   -0.305554
  21 C :   -0.221353
  22 C :   -0.198424
  23 H :    0.195395
  24 H :    0.199199
  25 H :    0.303671
  26 H :    0.236797
Sum of atomic charges:   -1.0000000

LOEWDIN ATOMIC CHARGES
----------------------
   0 Pd:   -0.816430
   1 Cl:   -0.005649
   2 Cl:   -0.451139
   3 Cl:   -0.111620
   4 N :    0.026074
   5 C :    0.012588
   6 C :   -0.166025
   7 C :   -0.087197
   8 C :    0.087175
   9 C :   -0.050205
  10 H :    0.136792
  11 H :    0.164441
  12 H :    0.141343
  13 C :   -0.014317
  14 C :   -0.141750
  15 C :   -0.119320
  16 C :   -0.028637
  17 H :    0.131269
  18 H :    0.133830
  19 C :   -0.111847
  20 C :   -0.145580
  21 C :   -0.126185
  22 C :   -0.133897
  23 H :    0.127874
  24 H :    0.128889
  25 H :    0.276376
  26 H :    0.143148

  Mayer bond orders larger than 0.100000
B(  0-Pd,  1-Cl) :   0.9864 B(  0-Pd,  2-Cl) :   0.3789 B(  0-Pd,  3-Cl) :   0.8576
B(  0-Pd,  4-N ) :   0.3518 B(  2-Cl, 25-H ) :   0.2889 B(  4-N ,  5-C ) :   1.4730
B(  4-N ,  8-C ) :   1.1977 B(  5-C ,  6-C ) :   1.3218 B(  5-C , 11-H ) :   0.8942
B(  6-C ,  7-C ) :   1.4551 B(  6-C , 12-H ) :   0.9181 B(  7-C ,  9-C ) :   1.2828
B(  7-C , 10-H ) :   0.9274 B(  8-C ,  9-C ) :   1.2071 B(  8-C , 13-C ) :   1.1055
B(  9-C , 14-C ) :   1.1661 B( 13-C , 16-C ) :   1.3032 B( 13-C , 19-C ) :   1.2420
B( 14-C , 15-C ) :   1.6388 B( 14-C , 17-H ) :   0.9280 B( 15-C , 16-C ) :   1.1446
B( 15-C , 18-H ) :   0.9276 B( 16-C , 20-C ) :   1.2658 B( 19-C , 21-C ) :   1.4489
B( 19-C , 25-H ) :   0.5704 B( 20-C , 22-C ) :   1.5064 B( 20-C , 23-H ) :   0.9287
B( 21-C , 22-C ) :   1.3249 B( 21-C , 26-H ) :   0.9115 B( 22-C , 24-H ) :   0.9246

Dispersion correction           -0.024435403
FINAL SINGLE POINT ENERGY     -2061.436876763782
Dispersion correction            ... done

DIPOLE MOMENT
-------------
                                X             Y             Z
Electronic contribution:    -83.90533     -65.28360      29.84724
Nuclear contribution   :     86.87129      69.62190     -29.98466
                        -----------------------------------------
Total Dipole Moment    :      2.96596       4.33830      -0.13743
                        -----------------------------------------
Magnitude (a.u.)       :      5.25705
Magnitude (Debye)      :     13.36237

Rotational constants in cm-1:     0.011820     0.007478     0.005746
Rotational constants in MHz :   354.342127   224.173012   172.253917

                             ****ORCA TERMINATED NORMALLY****
TOTAL RUN TIME: 0 days 0 hours 13 minutes 15 seconds 940 msec
