                         Program Version 5.0.3 -  RELEASE  -
|  1> ! EnGrad PBEh-3c
|  2> %output
|  3> xyzfile=True
|  4> end
|  5> %scf
|  6> maxiter 250
|  7> end
|  8> %output
|  9> Print[P_Hirshfeld] = 1
| 10> end
| 11> % maxcore
| 12> 4000
| 13> *xyz -1 1
| 14> Pd  -2.05459613  -1.71323091   0.58529901
| 15> Cl  -3.43603835  -3.32824439  -0.26375752
| 16> Cl  -0.44221231  -4.26086830   0.91625314
| 17> Cl  -4.00922333  -0.43349921   1.04152906
| 18> N   -0.97786978  -0.11625187   1.43154730
| 19> C   -1.33323944   0.47928393   2.57520261
| 20> C   -0.78941831   1.71544445   2.97596453
| 21> C    0.07145476   2.35594809   2.15314580
| 22> C   -0.06449311   0.44481447   0.62920075
| 23> C    0.45395627   1.74504336   0.94007195
| 24> H    0.49738078   3.34263894   2.41264196
| 25> H   -2.02576987  -0.04661066   3.21060243
| 26> H   -1.10342614   2.14739969   3.93374722
| 27> C    0.38557947  -0.32066446  -0.51180766
| 28> C    1.36049937   2.40132340   0.04944528
| 29> C    1.67717932   1.78727347  -1.07962036
| 30> C    1.19244798   0.45123394  -1.39716453
| 31> H    1.77797277   3.39577938   0.33637250
| 32> H    2.38671685   2.28101479  -1.77571934
| 33> C   -0.01865859  -1.67702860  -0.80175629
| 34> C    1.62928575  -0.08235887  -2.62659222
| 35> C    0.30405303  -2.07712686  -2.09125965
| 36> C    1.13912939  -1.33658410  -2.96262400
| 37> H    2.36256743   0.45323657  -3.24767041
| 38> H    1.50320842  -1.79269369  -3.86901659
| 39> H   -0.40614324  -2.80279320  -0.03487026
| 40> H   -0.09306801  -3.01191152  -2.51404612
| 41> *
| 42>
| 43>                          ****END OF INPUT****

CARTESIAN COORDINATES (ANGSTROEM)
---------------------------------
  Pd    -2.054596   -1.713231    0.585299
  Cl    -3.436038   -3.328244   -0.263758
  Cl    -0.442212   -4.260868    0.916253
  Cl    -4.009223   -0.433499    1.041529
  N     -0.977870   -0.116252    1.431547
  C     -1.333239    0.479284    2.575203
  C     -0.789418    1.715444    2.975965
  C      0.071455    2.355948    2.153146
  C     -0.064493    0.444814    0.629201
  C      0.453956    1.745043    0.940072
  H      0.497381    3.342639    2.412642
  H     -2.025770   -0.046611    3.210602
  H     -1.103426    2.147400    3.933747
  C      0.385579   -0.320664   -0.511808
  C      1.360499    2.401323    0.049445
  C      1.677179    1.787273   -1.079620
  C      1.192448    0.451234   -1.397165
  H      1.777973    3.395779    0.336372
  H      2.386717    2.281015   -1.775719
  C     -0.018659   -1.677029   -0.801756
  C      1.629286   -0.082359   -2.626592
  C      0.304053   -2.077127   -2.091260
  C      1.139129   -1.336584   -2.962624
  H      2.362567    0.453237   -3.247670
  H      1.503208   -1.792694   -3.869017
  H     -0.406143   -2.802793   -0.034870
  H     -0.093068   -3.011912   -2.514046

 Total Charge           Charge          ....   -1
 Multiplicity           Mult            ....    1
 Number of Electrons    NEL             ....  164
 Basis Dimension        Dim             ....  313

ORBITAL ENERGIES
----------------

  NO   OCC          E(Eh)            E(eV)
   0   2.0000    -102.100811     -2778.3043
   1   2.0000    -102.086512     -2777.9152
   2   2.0000    -102.049411     -2776.9057
   3   2.0000     -14.603735      -397.3878
   4   2.0000     -10.422304      -283.6053
   5   2.0000     -10.417575      -283.4766
   6   2.0000     -10.399857      -282.9945
   7   2.0000     -10.395439      -282.8743
   8   2.0000     -10.385519      -282.6043
   9   2.0000     -10.382140      -282.5124
  10   2.0000     -10.381798      -282.5031
  11   2.0000     -10.381294      -282.4894
  12   2.0000     -10.380580      -282.4699
  13   2.0000     -10.367445      -282.1125
  14   2.0000     -10.363641      -282.0090
  15   2.0000     -10.360398      -281.9208
  16   2.0000     -10.354699      -281.7657
  17   2.0000      -9.563944      -260.2481
  18   2.0000      -9.550936      -259.8942
  19   2.0000      -9.513985      -258.8887
  20   2.0000      -7.250253      -197.2894
  21   2.0000      -7.244814      -197.1414
  22   2.0000      -7.244534      -197.1338
  23   2.0000      -7.237622      -196.9457
  24   2.0000      -7.231517      -196.7796
  25   2.0000      -7.231033      -196.7664
  26   2.0000      -7.198487      -195.8808
  27   2.0000      -7.195998      -195.8131
  28   2.0000      -7.195180      -195.7908
  29   2.0000      -3.529821       -96.0513
  30   2.0000      -2.181303       -59.3563
  31   2.0000      -2.168998       -59.0214
  32   2.0000      -2.141044       -58.2608
  33   2.0000      -0.994823       -27.0705
  34   2.0000      -0.888302       -24.1719
  35   2.0000      -0.853295       -23.2193
  36   2.0000      -0.820583       -22.3292
  37   2.0000      -0.784140       -21.3375
  38   2.0000      -0.746054       -20.3012
  39   2.0000      -0.731434       -19.9033
  40   2.0000      -0.687828       -18.7167
  41   2.0000      -0.674092       -18.3430
  42   2.0000      -0.653010       -17.7693
  43   2.0000      -0.648883       -17.6570
  44   2.0000      -0.643947       -17.5227
  45   2.0000      -0.611372       -16.6363
  46   2.0000      -0.582541       -15.8517
  47   2.0000      -0.532282       -14.4841
  48   2.0000      -0.522261       -14.2114
  49   2.0000      -0.501788       -13.6543
  50   2.0000      -0.466977       -12.7071
  51   2.0000      -0.463608       -12.6154
  52   2.0000      -0.433320       -11.7912
  53   2.0000      -0.421639       -11.4734
  54   2.0000      -0.413005       -11.2384
  55   2.0000      -0.405906       -11.0453
  56   2.0000      -0.394278       -10.7288
  57   2.0000      -0.389763       -10.6060
  58   2.0000      -0.372185       -10.1277
  59   2.0000      -0.349116        -9.4999
  60   2.0000      -0.344557        -9.3759
  61   2.0000      -0.321184        -8.7399
  62   2.0000      -0.317947        -8.6518
  63   2.0000      -0.308634        -8.3984
  64   2.0000      -0.298954        -8.1349
  65   2.0000      -0.273336        -7.4378
  66   2.0000      -0.266344        -7.2476
  67   2.0000      -0.248644        -6.7659
  68   2.0000      -0.239638        -6.5209
  69   2.0000      -0.234921        -6.3925
  70   2.0000      -0.228440        -6.2162
  71   2.0000      -0.221547        -6.0286
  72   2.0000      -0.190260        -5.1772
  73   2.0000      -0.183292        -4.9876
  74   2.0000      -0.175610        -4.7786
  75   2.0000      -0.170619        -4.6428
  76   2.0000      -0.163311        -4.4439
  77   2.0000      -0.154216        -4.1964
  78   2.0000      -0.148319        -4.0360
  79   2.0000      -0.142768        -3.8849
  80   2.0000      -0.126713        -3.4480
  81   2.0000      -0.120509        -3.2792
  82   0.0000       0.041374         1.1259
  83   0.0000       0.050071         1.3625
  84   0.0000       0.059888         1.6296
  85   0.0000       0.097792         2.6611
  86   0.0000       0.129893         3.5346

MULLIKEN ATOMIC CHARGES
-----------------------
   0 Pd:    0.214591
   1 Cl:   -0.297397
   2 Cl:   -0.521561
   3 Cl:   -0.378418
   4 N :   -0.568396
   5 C :    0.049564
   6 C :   -0.331457
   7 C :   -0.145313
   8 C :    0.352995
   9 C :    0.030360
  10 H :    0.211945
  11 H :    0.283559
  12 H :    0.220782
  13 C :    0.037255
  14 C :   -0.285746
  15 C :   -0.263830
  16 C :    0.103271
  17 H :    0.195660
  18 H :    0.194673
  19 C :   -0.272890
  20 C :   -0.307504
  21 C :   -0.229524
  22 C :   -0.204803
  23 H :    0.196125
  24 H :    0.199672
  25 H :    0.275427
  26 H :    0.240960
Sum of atomic charges:   -1.0000000

LOEWDIN ATOMIC CHARGES
----------------------
   0 Pd:   -0.786627
   1 Cl:   -0.044565
   2 Cl:   -0.450729
   3 Cl:   -0.128063
   4 N :    0.030234
   5 C :    0.015100
   6 C :   -0.167456
   7 C :   -0.089177
   8 C :    0.087725
   9 C :   -0.048452
  10 H :    0.136567
  11 H :    0.166615
  12 H :    0.141422
  13 C :   -0.020257
  14 C :   -0.143295
  15 C :   -0.117074
  16 C :   -0.028869
  17 H :    0.131077
  18 H :    0.131798
  19 C :   -0.111105
  20 C :   -0.144630
  21 C :   -0.109260
  22 C :   -0.132131
  23 H :    0.128434
  24 H :    0.128018
  25 H :    0.274719
  26 H :    0.149982

  Mayer bond orders larger than 0.100000
B(  0-Pd,  1-Cl) :   0.9588 B(  0-Pd,  2-Cl) :   0.2328 B(  0-Pd,  3-Cl) :   0.8380
B(  0-Pd,  4-N ) :   0.3837 B(  0-Pd, 19-C ) :   0.2099 B(  2-Cl, 25-H ) :   0.4436
B(  4-N ,  5-C ) :   1.4531 B(  4-N ,  8-C ) :   1.1771 B(  5-C ,  6-C ) :   1.3263
B(  5-C , 11-H ) :   0.8884 B(  6-C ,  7-C ) :   1.4481 B(  6-C , 12-H ) :   0.9182
B(  7-C ,  9-C ) :   1.2868 B(  7-C , 10-H ) :   0.9275 B(  8-C ,  9-C ) :   1.2143
B(  8-C , 13-C ) :   1.1156 B(  9-C , 14-C ) :   1.1575 B( 13-C , 16-C ) :   1.2950
B( 13-C , 19-C ) :   1.1768 B( 14-C , 15-C ) :   1.6451 B( 14-C , 17-H ) :   0.9285
B( 15-C , 16-C ) :   1.1372 B( 15-C , 18-H ) :   0.9282 B( 16-C , 20-C ) :   1.2788
B( 19-C , 21-C ) :   1.4441 B( 19-C , 25-H ) :   0.3827 B( 20-C , 22-C ) :   1.4868
B( 20-C , 23-H ) :   0.9287 B( 21-C , 22-C ) :   1.3381 B( 21-C , 26-H ) :   0.9090
B( 22-C , 24-H ) :   0.9237

Dispersion correction           -0.024536111
FINAL SINGLE POINT ENERGY     -2061.442132084670
Dispersion correction            ... done

DIPOLE MOMENT
-------------
                                X             Y             Z
Electronic contribution:    -80.00605     -61.55541      24.39522
Nuclear contribution   :     82.87328      66.02557     -24.40210
                        -----------------------------------------
Total Dipole Moment    :      2.86723       4.47015      -0.00688
                        -----------------------------------------
Magnitude (a.u.)       :      5.31068
Magnitude (Debye)      :     13.49867

Rotational constants in cm-1:     0.011790     0.007904     0.005762
Rotational constants in MHz :   353.458235   236.946764   172.728322

                             ****ORCA TERMINATED NORMALLY****
TOTAL RUN TIME: 0 days 0 hours 11 minutes 21 seconds 728 msec
