                         Program Version 5.0.3 -  RELEASE  -
|  1> ! EnGrad PBEh-3c
|  2> %output
|  3> xyzfile=True
|  4> end
|  5> %scf
|  6> maxiter 250
|  7> end
|  8> %output
|  9> Print[P_Hirshfeld] = 1
| 10> end
| 11> % maxcore
| 12> 4000
| 13> *xyz -1 1
| 14> Pd  -2.12644534  -1.75620965   0.67360034
| 15> Cl  -3.52879805  -3.28348590  -0.18749538
| 16> Cl  -0.65026136  -4.29420131   1.21196672
| 17> Cl  -3.94669326  -0.28175190   0.79627977
| 18> N   -0.96923166  -0.13303995   1.43497875
| 19> C   -1.29447800   0.44306431   2.58318998
| 20> C   -0.76854998   1.67494556   2.99956482
| 21> C    0.08000964   2.34119394   2.16266510
| 22> C   -0.06905830   0.44971414   0.62087820
| 23> C    0.44588881   1.74432881   0.94457867
| 24> H    0.48862388   3.31512533   2.43280296
| 25> H   -1.97763692  -0.10235267   3.21968647
| 26> H   -1.07658638   2.09366154   3.95073600
| 27> C    0.36029469  -0.30310620  -0.54837250
| 28> C    1.33631770   2.41654930   0.04880117
| 29> C    1.66217988   1.81779410  -1.10791069
| 30> C    1.17847111   0.48508361  -1.43292877
| 31> H    1.73426119   3.40116446   0.32331416
| 32> H    2.34864640   2.33272846  -1.79804215
| 33> C    0.01346662  -1.69964739  -0.81863554
| 34> C    1.64283108  -0.06431736  -2.64765684
| 35> C    0.35733241  -2.06953360  -2.10845845
| 36> C    1.18579565  -1.31848911  -2.98438399
| 37> H    2.33760724   0.48428123  -3.29605558
| 38> H    1.56831615  -1.78781208  -3.88519274
| 39> H   -0.34280831  -2.88063454  -0.09934150
| 40> H    0.00392508  -3.02542682  -2.48094613
| 41> *
| 42>
| 43>                          ****END OF INPUT****

CARTESIAN COORDINATES (ANGSTROEM)
---------------------------------
  Pd    -2.126445   -1.756210    0.673600
  Cl    -3.528798   -3.283486   -0.187495
  Cl    -0.650261   -4.294201    1.211967
  Cl    -3.946693   -0.281752    0.796280
  N     -0.969232   -0.133040    1.434979
  C     -1.294478    0.443064    2.583190
  C     -0.768550    1.674946    2.999565
  C      0.080010    2.341194    2.162665
  C     -0.069058    0.449714    0.620878
  C      0.445889    1.744329    0.944579
  H      0.488624    3.315125    2.432803
  H     -1.977637   -0.102353    3.219686
  H     -1.076586    2.093662    3.950736
  C      0.360295   -0.303106   -0.548373
  C      1.336318    2.416549    0.048801
  C      1.662180    1.817794   -1.107911
  C      1.178471    0.485084   -1.432929
  H      1.734261    3.401164    0.323314
  H      2.348646    2.332728   -1.798042
  C      0.013467   -1.699647   -0.818636
  C      1.642831   -0.064317   -2.647657
  C      0.357332   -2.069534   -2.108458
  C      1.185796   -1.318489   -2.984384
  H      2.337607    0.484281   -3.296056
  H      1.568316   -1.787812   -3.885193
  H     -0.342808   -2.880635   -0.099341
  H      0.003925   -3.025427   -2.480946

 Total Charge           Charge          ....   -1
 Multiplicity           Mult            ....    1
 Number of Electrons    NEL             ....  164
 Basis Dimension        Dim             ....  313

ORBITAL ENERGIES
----------------

  NO   OCC          E(Eh)            E(eV)
   0   2.0000    -102.102164     -2778.3411
   1   2.0000    -102.089854     -2778.0062
   2   2.0000    -102.051106     -2776.9518
   3   2.0000     -14.599948      -397.2848
   4   2.0000     -10.422329      -283.6060
   5   2.0000     -10.414426      -283.3909
   6   2.0000     -10.398699      -282.9630
   7   2.0000     -10.394856      -282.8584
   8   2.0000     -10.387382      -282.6550
   9   2.0000     -10.384945      -282.5887
  10   2.0000     -10.383856      -282.5591
  11   2.0000     -10.383563      -282.5511
  12   2.0000     -10.380857      -282.4775
  13   2.0000     -10.366676      -282.0916
  14   2.0000     -10.366423      -282.0847
  15   2.0000     -10.364408      -282.0299
  16   2.0000     -10.352859      -281.7156
  17   2.0000      -9.565492      -260.2903
  18   2.0000      -9.554809      -259.9996
  19   2.0000      -9.514226      -258.8952
  20   2.0000      -7.251897      -197.3342
  21   2.0000      -7.246293      -197.1817
  22   2.0000      -7.245992      -197.1735
  23   2.0000      -7.241543      -197.0524
  24   2.0000      -7.235299      -196.8825
  25   2.0000      -7.234797      -196.8688
  26   2.0000      -7.198567      -195.8830
  27   2.0000      -7.196678      -195.8316
  28   2.0000      -7.195489      -195.7992
  29   2.0000      -3.525428       -95.9318
  30   2.0000      -2.177581       -59.2550
  31   2.0000      -2.164206       -58.8910
  32   2.0000      -2.137215       -58.1566
  33   2.0000      -0.993369       -27.0310
  34   2.0000      -0.885925       -24.1072
  35   2.0000      -0.852052       -23.1855
  36   2.0000      -0.818821       -22.2812
  37   2.0000      -0.782987       -21.3062
  38   2.0000      -0.744582       -20.2611
  39   2.0000      -0.731661       -19.9095
  40   2.0000      -0.691241       -18.8096
  41   2.0000      -0.678232       -18.4556
  42   2.0000      -0.650733       -17.7073
  43   2.0000      -0.646112       -17.5816
  44   2.0000      -0.638666       -17.3790
  45   2.0000      -0.612101       -16.6561
  46   2.0000      -0.582363       -15.8469
  47   2.0000      -0.532756       -14.4970
  48   2.0000      -0.521448       -14.1893
  49   2.0000      -0.501704       -13.6521
  50   2.0000      -0.466936       -12.7060
  51   2.0000      -0.464569       -12.6416
  52   2.0000      -0.434421       -11.8212
  53   2.0000      -0.419296       -11.4096
  54   2.0000      -0.412212       -11.2169
  55   2.0000      -0.405081       -11.0228
  56   2.0000      -0.391962       -10.6658
  57   2.0000      -0.387841       -10.5537
  58   2.0000      -0.368873       -10.0376
  59   2.0000      -0.347582        -9.4582
  60   2.0000      -0.345114        -9.3910
  61   2.0000      -0.319668        -8.6986
  62   2.0000      -0.313494        -8.5306
  63   2.0000      -0.303580        -8.2608
  64   2.0000      -0.298015        -8.1094
  65   2.0000      -0.273383        -7.4391
  66   2.0000      -0.263538        -7.1712
  67   2.0000      -0.253272        -6.8919
  68   2.0000      -0.238525        -6.4906
  69   2.0000      -0.234786        -6.3888
  70   2.0000      -0.228789        -6.2257
  71   2.0000      -0.226757        -6.1704
  72   2.0000      -0.189256        -5.1499
  73   2.0000      -0.182521        -4.9666
  74   2.0000      -0.170930        -4.6512
  75   2.0000      -0.169469        -4.6115
  76   2.0000      -0.164206        -4.4683
  77   2.0000      -0.153528        -4.1777
  78   2.0000      -0.148227        -4.0335
  79   2.0000      -0.140127        -3.8131
  80   2.0000      -0.127883        -3.4799
  81   2.0000      -0.122729        -3.3396
  82   0.0000       0.041464         1.1283
  83   0.0000       0.053157         1.4465
  84   0.0000       0.059294         1.6135
  85   0.0000       0.098752         2.6872
  86   0.0000       0.127372         3.4660

MULLIKEN ATOMIC CHARGES
-----------------------
   0 Pd:    0.199760
   1 Cl:   -0.281915
   2 Cl:   -0.537886
   3 Cl:   -0.372055
   4 N :   -0.556575
   5 C :    0.050741
   6 C :   -0.326319
   7 C :   -0.149737
   8 C :    0.356346
   9 C :    0.038753
  10 H :    0.213269
  11 H :    0.279356
  12 H :    0.221654
  13 C :   -0.003441
  14 C :   -0.294628
  15 C :   -0.260849
  16 C :    0.103969
  17 H :    0.197464
  18 H :    0.197851
  19 C :   -0.272688
  20 C :   -0.307546
  21 C :   -0.224905
  22 C :   -0.199337
  23 H :    0.195221
  24 H :    0.198785
  25 H :    0.297136
  26 H :    0.237577
Sum of atomic charges:   -1.0000000

LOEWDIN ATOMIC CHARGES
----------------------
   0 Pd:   -0.811428
   1 Cl:   -0.014389
   2 Cl:   -0.450799
   3 Cl:   -0.107550
   4 N :    0.027072
   5 C :    0.013152
   6 C :   -0.166609
   7 C :   -0.087695
   8 C :    0.087319
   9 C :   -0.049821
  10 H :    0.136723
  11 H :    0.164883
  12 H :    0.141302
  13 C :   -0.016274
  14 C :   -0.142458
  15 C :   -0.118667
  16 C :   -0.028780
  17 H :    0.131155
  18 H :    0.133267
  19 C :   -0.115101
  20 C :   -0.145855
  21 C :   -0.122680
  22 C :   -0.133488
  23 H :    0.127800
  24 H :    0.128444
  25 H :    0.276073
  26 H :    0.144404

  Mayer bond orders larger than 0.100000
B(  0-Pd,  1-Cl) :   0.9800 B(  0-Pd,  2-Cl) :   0.3428 B(  0-Pd,  3-Cl) :   0.8602
B(  0-Pd,  4-N ) :   0.3601 B(  0-Pd, 19-C ) :   0.1009 B(  2-Cl, 25-H ) :   0.3272
B(  4-N ,  5-C ) :   1.4681 B(  4-N ,  8-C ) :   1.1919 B(  5-C ,  6-C ) :   1.3233
B(  5-C , 11-H ) :   0.8930 B(  6-C ,  7-C ) :   1.4532 B(  6-C , 12-H ) :   0.9182
B(  7-C ,  9-C ) :   1.2840 B(  7-C , 10-H ) :   0.9274 B(  8-C ,  9-C ) :   1.2085
B(  8-C , 13-C ) :   1.1076 B(  9-C , 14-C ) :   1.1642 B( 13-C , 16-C ) :   1.3021
B( 13-C , 19-C ) :   1.2260 B( 14-C , 15-C ) :   1.6402 B( 14-C , 17-H ) :   0.9282
B( 15-C , 16-C ) :   1.1425 B( 15-C , 18-H ) :   0.9278 B( 16-C , 20-C ) :   1.2692
B( 19-C , 21-C ) :   1.4471 B( 19-C , 25-H ) :   0.5266 B( 20-C , 22-C ) :   1.5014
B( 20-C , 23-H ) :   0.9288 B( 21-C , 22-C ) :   1.3286 B( 21-C , 26-H ) :   0.9109
B( 22-C , 24-H ) :   0.9245

Dispersion correction           -0.024457358
FINAL SINGLE POINT ENERGY     -2061.440093536491
Dispersion correction            ... done

DIPOLE MOMENT
-------------
                                X             Y             Z
Electronic contribution:    -82.97058     -64.36069      28.50559
Nuclear contribution   :     85.87557      68.72622     -28.59431
                        -----------------------------------------
Total Dipole Moment    :      2.90499       4.36553      -0.08872
                        -----------------------------------------
Magnitude (a.u.)       :      5.24449
Magnitude (Debye)      :     13.33044

Rotational constants in cm-1:     0.011824     0.007586     0.005755
Rotational constants in MHz :   354.485433   227.432170   172.530485

                             ****ORCA TERMINATED NORMALLY****
TOTAL RUN TIME: 0 days 0 hours 18 minutes 19 seconds 176 msec
