                         Program Version 5.0.3 -  RELEASE  -
|  1> ! EnGrad PBEh-3c
|  2> %output
|  3> xyzfile=True
|  4> end
|  5> %scf
|  6> maxiter 250
|  7> end
|  8> %output
|  9> Print[P_Hirshfeld] = 1
| 10> end
| 11> % maxcore
| 12> 4000
| 13> *xyz 0 1
| 14> Lu   0.31994862   0.10201790  -0.06429488
| 15> C    0.47936832   0.82049468   2.55688044
| 16> C    1.45591791  -0.12777950   2.23429049
| 17> C    2.37806205   0.48450461   1.38129071
| 18> C    1.87949680   1.73774335   1.02229166
| 19> C    0.68957643   1.93023405   1.73728673
| 20> H    2.27568528   2.42782833   0.29584830
| 21> H    0.10977623   2.83720215   1.76258321
| 22> H   -0.27359356   0.73043058   3.32172625
| 23> H    1.52663320  -1.10236089   2.68782433
| 24> H    3.24432647   0.00354841   0.96241568
| 25> C    0.93054367  -0.13218490  -2.49652743
| 26> C   -0.33224748  -0.74583220  -2.47168949
| 27> C    1.08188155  -2.03781055  -1.28906699
| 28> C    1.82354170  -0.98099947  -1.83009078
| 29> H    1.13889160   0.82154665  -2.95511021
| 30> C   -0.24407485  -1.92906908  -1.73422865
| 31> H   -1.19650905  -0.44517291  -3.03969764
| 32> H    2.85770820  -0.76945282  -1.61424546
| 33> H    1.44915602  -2.85766467  -0.69259499
| 34> H   -1.03708104  -2.64806526  -1.60572592
| 35> C   -2.31000745  -1.65327320   1.30382483
| 36> H   -2.31210355  -1.39422182   2.36045871
| 37> H   -2.26665702  -2.73381676   1.16884857
| 38> H   -3.28181664  -1.39835795   0.86396206
| 39> C   -1.93790340   2.01542654  -0.90814726
| 40> H   -2.13801209   0.17100305   0.39830932
| 41> H   -1.18277996   2.64742103  -1.37237723
| 42> H   -2.57700730   2.64581866  -0.28681016
| 43> H   -2.55073066   1.58084937  -1.69723723
| 44> *
| 45>
| 46>                          ****END OF INPUT****

CARTESIAN COORDINATES (ANGSTROEM)
---------------------------------
  Lu     0.319949    0.102018   -0.064295
  C      0.479368    0.820495    2.556880
  C      1.455918   -0.127779    2.234290
  C      2.378062    0.484505    1.381291
  C      1.879497    1.737743    1.022292
  C      0.689576    1.930234    1.737287
  H      2.275685    2.427828    0.295848
  H      0.109776    2.837202    1.762583
  H     -0.273594    0.730431    3.321726
  H      1.526633   -1.102361    2.687824
  H      3.244326    0.003548    0.962416
  C      0.930544   -0.132185   -2.496527
  C     -0.332247   -0.745832   -2.471689
  C      1.081882   -2.037811   -1.289067
  C      1.823542   -0.980999   -1.830091
  H      1.138892    0.821547   -2.955110
  C     -0.244075   -1.929069   -1.734229
  H     -1.196509   -0.445173   -3.039698
  H      2.857708   -0.769453   -1.614245
  H      1.449156   -2.857665   -0.692595
  H     -1.037081   -2.648065   -1.605726
  C     -2.310007   -1.653273    1.303825
  H     -2.312104   -1.394222    2.360459
  H     -2.266657   -2.733817    1.168849
  H     -3.281817   -1.398358    0.863962
  C     -1.937903    2.015427   -0.908147
  H     -2.138012    0.171003    0.398309
  H     -1.182780    2.647421   -1.372377
  H     -2.577007    2.645819   -0.286810
  H     -2.550731    1.580849   -1.697237

 Total Charge           Charge          ....    0
 Multiplicity           Mult            ....    1
 Number of Electrons    NEL             ....  132
 Basis Dimension        Dim             ....  295

ORBITAL ENERGIES
----------------

  NO   OCC          E(Eh)            E(eV)
   0   2.0000     -19.273442      -524.4570
   1   2.0000     -12.645112      -344.0910
   2   2.0000     -12.644015      -344.0611
   3   2.0000     -12.643520      -344.0477
   4   2.0000     -10.453518      -284.4547
   5   2.0000     -10.453474      -284.4535
   6   2.0000     -10.449893      -284.3561
   7   2.0000     -10.449572      -284.3473
   8   2.0000     -10.448047      -284.3058
   9   2.0000     -10.447549      -284.2923
  10   2.0000     -10.447356      -284.2870
  11   2.0000     -10.446890      -284.2743
  12   2.0000     -10.445734      -284.2429
  13   2.0000     -10.445106      -284.2258
  14   2.0000     -10.431038      -283.8430
  15   2.0000     -10.416545      -283.4486
  16   2.0000      -5.914519      -160.9423
  17   2.0000      -5.914334      -160.9372
  18   2.0000      -5.914188      -160.9333
  19   2.0000      -5.913422      -160.9124
  20   2.0000      -5.913350      -160.9104
  21   2.0000      -2.456396       -66.8419
  22   2.0000      -1.293820       -35.2066
  23   2.0000      -1.290100       -35.1054
  24   2.0000      -1.285471       -34.9794
  25   2.0000      -0.995454       -27.0877
  26   2.0000      -0.984768       -26.7969
  27   2.0000      -0.805187       -21.9102
  28   2.0000      -0.803173       -21.8555
  29   2.0000      -0.802041       -21.8246
  30   2.0000      -0.799549       -21.7568
  31   2.0000      -0.731562       -19.9068
  32   2.0000      -0.721932       -19.6448
  33   2.0000      -0.624184       -16.9849
  34   2.0000      -0.620584       -16.8869
  35   2.0000      -0.617236       -16.7958
  36   2.0000      -0.614150       -16.7119
  37   2.0000      -0.606289       -16.4980
  38   2.0000      -0.601147       -16.3580
  39   2.0000      -0.581785       -15.8312
  40   2.0000      -0.581179       -15.8147
  41   2.0000      -0.580237       -15.7891
  42   2.0000      -0.579678       -15.7738
  43   2.0000      -0.579419       -15.7668
  44   2.0000      -0.578682       -15.7467
  45   2.0000      -0.578378       -15.7385
  46   2.0000      -0.480599       -13.0778
  47   2.0000      -0.462250       -12.5785
  48   2.0000      -0.458693       -12.4817
  49   2.0000      -0.456474       -12.4213
  50   2.0000      -0.454984       -12.3807
  51   2.0000      -0.444292       -12.0898
  52   2.0000      -0.442182       -12.0324
  53   2.0000      -0.440254       -11.9799
  54   2.0000      -0.437395       -11.9021
  55   2.0000      -0.435713       -11.8564
  56   2.0000      -0.433096       -11.7851
  57   2.0000      -0.430240       -11.7074
  58   2.0000      -0.422162       -11.4876
  59   2.0000      -0.416710       -11.3393
  60   2.0000      -0.321890        -8.7591
  61   2.0000      -0.299096        -8.1388
  62   2.0000      -0.288692        -7.8557
  63   2.0000      -0.284784        -7.7494
  64   2.0000      -0.284343        -7.7374
  65   2.0000      -0.222187        -6.0460
  66   0.0000      -0.050021        -1.3612
  67   0.0000      -0.012772        -0.3475
  68   0.0000       0.014929         0.4062
  69   0.0000       0.035238         0.9589
  70   0.0000       0.043796         1.1917

MULLIKEN ATOMIC CHARGES
-----------------------
   0 Lu:    0.730911
   1 C :   -0.176308
   2 C :   -0.380225
   3 C :   -0.236537
   4 C :   -0.325351
   5 C :   -0.313843
   6 H :    0.252979
   7 H :    0.243824
   8 H :    0.238453
   9 H :    0.246610
  10 H :    0.242766
  11 C :   -0.354371
  12 C :   -0.265456
  13 C :   -0.363714
  14 C :   -0.227884
  15 H :    0.252450
  16 C :   -0.210344
  17 H :    0.234942
  18 H :    0.241063
  19 H :    0.244782
  20 H :    0.239250
  21 C :   -0.877260
  22 H :    0.222318
  23 H :    0.221797
  24 H :    0.218958
  25 C :   -0.904934
  26 H :    0.159007
  27 H :    0.206246
  28 H :    0.220270
  29 H :    0.219602
Sum of atomic charges:    0.0000000

LOEWDIN ATOMIC CHARGES
----------------------
   0 Lu:   -0.074173
   1 C :   -0.106833
   2 C :   -0.155627
   3 C :   -0.129858
   4 C :   -0.157948
   5 C :   -0.133438
   6 H :    0.161183
   7 H :    0.159043
   8 H :    0.156206
   9 H :    0.158080
  10 H :    0.157004
  11 C :   -0.160203
  12 C :   -0.122477
  13 C :   -0.155243
  14 C :   -0.132143
  15 H :    0.160252
  16 C :   -0.116147
  17 H :    0.156393
  18 H :    0.156897
  19 H :    0.156232
  20 H :    0.158171
  21 C :   -0.556370
  22 H :    0.126683
  23 H :    0.133854
  24 H :    0.123888
  25 C :   -0.573678
  26 H :    0.229803
  27 H :    0.130574
  28 H :    0.125856
  29 H :    0.124019

  Mayer bond orders larger than 0.100000
B(  0-Lu,  1-C ) :   0.2207 B(  0-Lu,  2-C ) :   0.2791 B(  0-Lu,  3-C ) :   0.2927
B(  0-Lu,  4-C ) :   0.3087 B(  0-Lu,  5-C ) :   0.2539 B(  0-Lu, 11-C ) :   0.3040
B(  0-Lu, 12-C ) :   0.2416 B(  0-Lu, 13-C ) :   0.2880 B(  0-Lu, 14-C ) :   0.2910
B(  0-Lu, 16-C ) :   0.2280 B(  0-Lu, 21-C ) :   0.3287 B(  0-Lu, 25-C ) :   0.4670
B(  0-Lu, 26-H ) :   0.2901 B(  1-C ,  2-C ) :   1.2905 B(  1-C ,  5-C ) :   1.3256
B(  1-C ,  8-H ) :   0.9216 B(  2-C ,  3-C ) :   1.2718 B(  2-C ,  9-H ) :   0.9152
B(  3-C ,  4-C ) :   1.2675 B(  3-C , 10-H ) :   0.9070 B(  4-C ,  5-C ) :   1.2610
B(  4-C ,  6-H ) :   0.9016 B(  5-C ,  7-H ) :   0.9208 B( 11-C , 12-C ) :   1.2729
B( 11-C , 14-C ) :   1.2666 B( 11-C , 15-H ) :   0.9038 B( 12-C , 16-C ) :   1.3266
B( 12-C , 17-H ) :   0.9256 B( 13-C , 14-C ) :   1.2684 B( 13-C , 16-C ) :   1.2847
B( 13-C , 19-H ) :   0.9134 B( 14-C , 18-H ) :   0.9056 B( 16-C , 20-H ) :   0.9209
B( 21-C , 22-H ) :   0.9147 B( 21-C , 23-H ) :   0.9184 B( 21-C , 24-H ) :   0.9189
B( 21-C , 25-C ) :   0.1929 B( 21-C , 26-H ) :   0.4097 B( 25-C , 26-H ) :   0.2606
B( 25-C , 27-H ) :   0.9069 B( 25-C , 28-H ) :   0.9222 B( 25-C , 29-H ) :   0.9174

Dispersion correction           -0.017470384
FINAL SINGLE POINT ENERGY     -1702.203608876345
Dispersion correction            ... done

DIPOLE MOMENT
-------------
                                X             Y             Z
Electronic contribution:      8.95955       5.79288      -2.58415
Nuclear contribution   :     -8.31864      -5.86429       2.55959
                        -----------------------------------------
Total Dipole Moment    :      0.64091      -0.07140      -0.02457
                        -----------------------------------------
Magnitude (a.u.)       :      0.64534
Magnitude (Debye)      :      1.64033

Rotational constants in cm-1:     0.027368     0.018640     0.016833
Rotational constants in MHz :   820.476353   558.803193   504.653253

                             ****ORCA TERMINATED NORMALLY****
TOTAL RUN TIME: 0 days 0 hours 9 minutes 37 seconds 483 msec
