                         Program Version 5.0.3 -  RELEASE  -
|  1> ! EnGrad PBEh-3c
|  2> %output
|  3> xyzfile=True
|  4> end
|  5> %scf
|  6> maxiter 250
|  7> end
|  8> %output
|  9> Print[P_Hirshfeld] = 1
| 10> end
| 11> % maxcore
| 12> 4000
| 13> *xyz 0 1
| 14> Lu   0.10381499   0.10742401  -0.03512036
| 15> C    0.42615466   0.84908430   2.45141470
| 16> C    1.36955363  -0.13753351   2.16205306
| 17> C    2.27808647   0.42191135   1.27421800
| 18> C    1.83699293   1.70053573   0.92157515
| 19> C    0.67699932   1.94646493   1.67472313
| 20> H    2.40541602   2.41044726   0.33673797
| 21> H    0.13789986   2.89302048   1.68318782
| 22> H   -0.39541382   0.74364087   3.19003771
| 23> H    1.52446693  -1.06522705   2.69987619
| 24> H    3.19442143  -0.04071723   0.93411215
| 25> C    0.93152680  -0.05851496  -2.45373073
| 26> C   -0.32843555  -0.69831793  -2.48428355
| 27> C    1.02077500  -1.95654026  -1.19941082
| 28> C    1.80399587  -0.89689552  -1.68292465
| 29> H    1.26214095   0.76333449  -3.03726225
| 30> C   -0.25392926  -1.84363520  -1.71560104
| 31> H   -1.18277185  -0.30540844  -3.01208001
| 32> H    2.83489037  -0.76167862  -1.57481815
| 33> H    1.44848969  -2.81426669  -0.67891333
| 34> H   -1.06711073  -2.58476343  -1.57688963
| 35> C   -2.32453754  -1.13291581   1.05758482
| 36> H   -2.20678366  -1.15172545   2.15153195
| 37> H   -1.86180957  -2.11010110   0.79487155
| 38> H   -3.40943210  -1.32803178   0.98824060
| 39> C   -1.89419143   1.48738722  -0.60539041
| 40> H   -2.15499036  -0.07560048   0.30121695
| 41> H   -1.13355583   2.15574692  -1.04776669
| 42> H   -2.46616969   2.19791566   0.00842346
| 43> H   -2.55241718   1.32000151  -1.46691488
| 44> *
| 45>
| 46>                          ****END OF INPUT****

CARTESIAN COORDINATES (ANGSTROEM)
---------------------------------
  Lu     0.103815    0.107424   -0.035120
  C      0.426155    0.849084    2.451415
  C      1.369554   -0.137534    2.162053
  C      2.278086    0.421911    1.274218
  C      1.836993    1.700536    0.921575
  C      0.676999    1.946465    1.674723
  H      2.405416    2.410447    0.336738
  H      0.137900    2.893020    1.683188
  H     -0.395414    0.743641    3.190038
  H      1.524467   -1.065227    2.699876
  H      3.194421   -0.040717    0.934112
  C      0.931527   -0.058515   -2.453731
  C     -0.328436   -0.698318   -2.484284
  C      1.020775   -1.956540   -1.199411
  C      1.803996   -0.896896   -1.682925
  H      1.262141    0.763334   -3.037262
  C     -0.253929   -1.843635   -1.715601
  H     -1.182772   -0.305408   -3.012080
  H      2.834890   -0.761679   -1.574818
  H      1.448490   -2.814267   -0.678913
  H     -1.067111   -2.584763   -1.576890
  C     -2.324538   -1.132916    1.057585
  H     -2.206784   -1.151725    2.151532
  H     -1.861810   -2.110101    0.794872
  H     -3.409432   -1.328032    0.988241
  C     -1.894191    1.487387   -0.605390
  H     -2.154990   -0.075600    0.301217
  H     -1.133556    2.155747   -1.047767
  H     -2.466170    2.197916    0.008423
  H     -2.552417    1.320002   -1.466915

 Total Charge           Charge          ....    0
 Multiplicity           Mult            ....    1
 Number of Electrons    NEL             ....  132
 Basis Dimension        Dim             ....  295

ORBITAL ENERGIES
----------------

  NO   OCC          E(Eh)            E(eV)
   0   2.0000     -19.252627      -523.8906
   1   2.0000     -12.624354      -343.5261
   2   2.0000     -12.623159      -343.4936
   3   2.0000     -12.622406      -343.4731
   4   2.0000     -10.445797      -284.2446
   5   2.0000     -10.445699      -284.2419
   6   2.0000     -10.444979      -284.2223
   7   2.0000     -10.444538      -284.2103
   8   2.0000     -10.443009      -284.1687
   9   2.0000     -10.442718      -284.1608
  10   2.0000     -10.442627      -284.1583
  11   2.0000     -10.442368      -284.1513
  12   2.0000     -10.442030      -284.1421
  13   2.0000     -10.441501      -284.1277
  14   2.0000     -10.426029      -283.7067
  15   2.0000     -10.374843      -282.3138
  16   2.0000      -5.893707      -160.3759
  17   2.0000      -5.893638      -160.3741
  18   2.0000      -5.892928      -160.3547
  19   2.0000      -5.892308      -160.3378
  20   2.0000      -5.892199      -160.3349
  21   2.0000      -2.436047       -66.2882
  22   2.0000      -1.276769       -34.7427
  23   2.0000      -1.272869       -34.6365
  24   2.0000      -1.265962       -34.4486
  25   2.0000      -0.992839       -27.0165
  26   2.0000      -0.979438       -26.6519
  27   2.0000      -0.801307       -21.8047
  28   2.0000      -0.797878       -21.7114
  29   2.0000      -0.796297       -21.6683
  30   2.0000      -0.795344       -21.6424
  31   2.0000      -0.765054       -20.8182
  32   2.0000      -0.714740       -19.4491
  33   2.0000      -0.620171       -16.8757
  34   2.0000      -0.613380       -16.6909
  35   2.0000      -0.611401       -16.6371
  36   2.0000      -0.608348       -16.5540
  37   2.0000      -0.600453       -16.3392
  38   2.0000      -0.595834       -16.2135
  39   2.0000      -0.561206       -15.2712
  40   2.0000      -0.560154       -15.2426
  41   2.0000      -0.560039       -15.2394
  42   2.0000      -0.559138       -15.2149
  43   2.0000      -0.559033       -15.2121
  44   2.0000      -0.558223       -15.1900
  45   2.0000      -0.556982       -15.1563
  46   2.0000      -0.476811       -12.9747
  47   2.0000      -0.463320       -12.6076
  48   2.0000      -0.457495       -12.4491
  49   2.0000      -0.455705       -12.4004
  50   2.0000      -0.454012       -12.3543
  51   2.0000      -0.451883       -12.2964
  52   2.0000      -0.444853       -12.1051
  53   2.0000      -0.438277       -11.9261
  54   2.0000      -0.436580       -11.8800
  55   2.0000      -0.431815       -11.7503
  56   2.0000      -0.429413       -11.6849
  57   2.0000      -0.423166       -11.5149
  58   2.0000      -0.418142       -11.3782
  59   2.0000      -0.395087       -10.7509
  60   2.0000      -0.393013       -10.6944
  61   2.0000      -0.294771        -8.0211
  62   2.0000      -0.289908        -7.8888
  63   2.0000      -0.283292        -7.7088
  64   2.0000      -0.271113        -7.3774
  65   2.0000      -0.247980        -6.7479
  66   0.0000      -0.018453        -0.5021
  67   0.0000       0.024974         0.6796
  68   0.0000       0.044216         1.2032
  69   0.0000       0.052781         1.4362
  70   0.0000       0.058172         1.5829

MULLIKEN ATOMIC CHARGES
-----------------------
   0 Lu:    0.746580
   1 C :   -0.210796
   2 C :   -0.366633
   3 C :   -0.213909
   4 C :   -0.337280
   5 C :   -0.268422
   6 H :    0.237803
   7 H :    0.244388
   8 H :    0.238805
   9 H :    0.235279
  10 H :    0.235607
  11 C :   -0.352732
  12 C :   -0.210733
  13 C :   -0.333020
  14 C :   -0.237174
  15 H :    0.236960
  16 C :   -0.253859
  17 H :    0.246118
  18 H :    0.235913
  19 H :    0.234780
  20 H :    0.238411
  21 C :   -1.012610
  22 H :    0.246412
  23 H :    0.231485
  24 H :    0.259990
  25 C :   -1.062350
  26 H :    0.314975
  27 H :    0.214528
  28 H :    0.232607
  29 H :    0.228878
Sum of atomic charges:   -0.0000000

LOEWDIN ATOMIC CHARGES
----------------------
   0 Lu:   -0.119445
   1 C :   -0.119350
   2 C :   -0.158696
   3 C :   -0.114923
   4 C :   -0.150031
   5 C :   -0.125919
   6 H :    0.157818
   7 H :    0.159916
   8 H :    0.157072
   9 H :    0.156662
  10 H :    0.152187
  11 C :   -0.147443
  12 C :   -0.113307
  13 C :   -0.150902
  14 C :   -0.122525
  15 H :    0.155107
  16 C :   -0.132506
  17 H :    0.159244
  18 H :    0.151250
  19 H :    0.155583
  20 H :    0.156965
  21 C :   -0.565300
  22 H :    0.141193
  23 H :    0.143332
  24 H :    0.146845
  25 C :   -0.656205
  26 H :    0.272172
  27 H :    0.151073
  28 H :    0.130961
  29 H :    0.129172

  Mayer bond orders larger than 0.100000
B(  0-Lu,  1-C ) :   0.2423 B(  0-Lu,  2-C ) :   0.2939 B(  0-Lu,  3-C ) :   0.2628
B(  0-Lu,  4-C ) :   0.3014 B(  0-Lu,  5-C ) :   0.2433 B(  0-Lu, 11-C ) :   0.2999
B(  0-Lu, 12-C ) :   0.2310 B(  0-Lu, 13-C ) :   0.2954 B(  0-Lu, 14-C ) :   0.2794
B(  0-Lu, 16-C ) :   0.2579 B(  0-Lu, 21-C ) :   0.1989 B(  0-Lu, 25-C ) :   0.6768
B(  0-Lu, 26-H ) :   0.1194 B(  1-C ,  2-C ) :   1.2571 B(  1-C ,  5-C ) :   1.3374
B(  1-C ,  8-H ) :   0.9146 B(  2-C ,  3-C ) :   1.2880 B(  2-C ,  9-H ) :   0.9242
B(  3-C ,  4-C ) :   1.2866 B(  3-C , 10-H ) :   0.9171 B(  4-C ,  5-C ) :   1.2571
B(  4-C ,  6-H ) :   0.9232 B(  5-C ,  7-H ) :   0.9166 B( 11-C , 12-C ) :   1.2776
B( 11-C , 14-C ) :   1.2766 B( 11-C , 15-H ) :   0.9247 B( 12-C , 16-C ) :   1.3245
B( 12-C , 17-H ) :   0.9113 B( 13-C , 14-C ) :   1.2798 B( 13-C , 16-C ) :   1.2603
B( 13-C , 19-H ) :   0.9226 B( 14-C , 18-H ) :   0.9204 B( 16-C , 20-H ) :   0.9159
B( 21-C , 22-H ) :   0.9033 B( 21-C , 23-H ) :   0.8930 B( 21-C , 24-H ) :   0.9064
B( 21-C , 26-H ) :   0.6474 B( 25-C , 26-H ) :   0.1248 B( 25-C , 27-H ) :   0.8558
B( 25-C , 28-H ) :   0.9098 B( 25-C , 29-H ) :   0.9074

Dispersion correction           -0.018102372
FINAL SINGLE POINT ENERGY     -1702.338813264294
Dispersion correction            ... done

DIPOLE MOMENT
-------------
                                X             Y             Z
Electronic contribution:     -1.46522       5.27957      -0.80369
Nuclear contribution   :      1.99639      -5.70770       1.04087
                        -----------------------------------------
Total Dipole Moment    :      0.53116      -0.42813       0.23718
                        -----------------------------------------
Magnitude (a.u.)       :      0.72228
Magnitude (Debye)      :      1.83589

Rotational constants in cm-1:     0.030925     0.021229     0.017710
Rotational constants in MHz :   927.114122   636.418899   530.946785

                             ****ORCA TERMINATED NORMALLY****
TOTAL RUN TIME: 0 days 0 hours 10 minutes 26 seconds 50 msec
