                         Program Version 5.0.3 -  RELEASE  -
|  1> ! EnGrad PBEh-3c
|  2> %output
|  3> xyzfile=True
|  4> end
|  5> %scf
|  6> maxiter 250
|  7> end
|  8> %output
|  9> Print[P_Hirshfeld] = 1
| 10> end
| 11> % maxcore
| 12> 4000
| 13> *xyz 0 1
| 14> Lu   0.00854283   0.09675820  -0.01288688
| 15> C    0.43255013   0.81986600   2.49115799
| 16> C    1.41227033  -0.15043598   2.19950247
| 17> C    2.30276208   0.41587928   1.25832756
| 18> C    1.83404574   1.70601210   0.93045222
| 19> C    0.67166159   1.95284236   1.70859047
| 20> H    2.36382440   2.42237853   0.33145855
| 21> H    0.10430775   2.87120768   1.71630082
| 22> H   -0.36648010   0.70579120   3.22183050
| 23> H    1.56430597  -1.08601747   2.70764786
| 24> H    3.22936239  -0.01859049   0.93537396
| 25> C    0.92271945  -0.07726484  -2.45335143
| 26> C   -0.34394995  -0.71974752  -2.48586883
| 27> C    1.05076363  -1.99499914  -1.20605142
| 28> C    1.79955163  -0.88811837  -1.68229338
| 29> H    1.21870122   0.77849507  -3.02010733
| 30> C   -0.25177821  -1.88680038  -1.71848907
| 31> H   -1.21416914  -0.34129686  -2.99508917
| 32> H    2.84931873  -0.76037445  -1.60005774
| 33> H    1.47823086  -2.84225410  -0.69215654
| 34> H   -1.04791683  -2.61443332  -1.56374607
| 35> C   -2.33183946  -1.23298238   1.09704216
| 36> H   -2.24304167  -1.20243697   2.19863340
| 37> H   -1.90142066  -2.22592573   0.89089577
| 38> H   -3.41360658  -1.33104347   0.94565063
| 39> C   -1.89331952   1.62579978  -0.68871534
| 40> H   -2.07212812  -0.05926994   0.32483374
| 41> H   -1.14117651   2.29400601  -1.13255703
| 42> H   -2.48168988   2.34887377  -0.11009947
| 43> H   -2.52987925   1.42003978  -1.55550891
| 44> *
| 45>
| 46>                          ****END OF INPUT****

CARTESIAN COORDINATES (ANGSTROEM)
---------------------------------
  Lu     0.008543    0.096758   -0.012887
  C      0.432550    0.819866    2.491158
  C      1.412270   -0.150436    2.199502
  C      2.302762    0.415879    1.258328
  C      1.834046    1.706012    0.930452
  C      0.671662    1.952842    1.708590
  H      2.363824    2.422379    0.331459
  H      0.104308    2.871208    1.716301
  H     -0.366480    0.705791    3.221830
  H      1.564306   -1.086017    2.707648
  H      3.229362   -0.018590    0.935374
  C      0.922719   -0.077265   -2.453351
  C     -0.343950   -0.719748   -2.485869
  C      1.050764   -1.994999   -1.206051
  C      1.799552   -0.888118   -1.682293
  H      1.218701    0.778495   -3.020107
  C     -0.251778   -1.886800   -1.718489
  H     -1.214169   -0.341297   -2.995089
  H      2.849319   -0.760374   -1.600058
  H      1.478231   -2.842254   -0.692157
  H     -1.047917   -2.614433   -1.563746
  C     -2.331839   -1.232982    1.097042
  H     -2.243042   -1.202437    2.198633
  H     -1.901421   -2.225926    0.890896
  H     -3.413607   -1.331043    0.945651
  C     -1.893320    1.625800   -0.688715
  H     -2.072128   -0.059270    0.324834
  H     -1.141177    2.294006   -1.132557
  H     -2.481690    2.348874   -0.110099
  H     -2.529879    1.420040   -1.555509

 Total Charge           Charge          ....    0
 Multiplicity           Mult            ....    1
 Number of Electrons    NEL             ....  132
 Basis Dimension        Dim             ....  295

ORBITAL ENERGIES
----------------

  NO   OCC          E(Eh)            E(eV)
   0   2.0000     -19.258119      -524.0401
   1   2.0000     -12.629839      -343.6754
   2   2.0000     -12.628651      -343.6431
   3   2.0000     -12.628022      -343.6260
   4   2.0000     -10.449157      -284.3360
   5   2.0000     -10.446559      -284.2653
   6   2.0000     -10.445629      -284.2400
   7   2.0000     -10.445430      -284.2346
   8   2.0000     -10.444693      -284.2146
   9   2.0000     -10.444104      -284.1985
  10   2.0000     -10.443831      -284.1911
  11   2.0000     -10.443574      -284.1841
  12   2.0000     -10.443252      -284.1753
  13   2.0000     -10.442871      -284.1650
  14   2.0000     -10.442025      -284.1420
  15   2.0000     -10.383268      -282.5431
  16   2.0000      -5.899230      -160.5262
  17   2.0000      -5.899152      -160.5241
  18   2.0000      -5.898530      -160.5072
  19   2.0000      -5.897922      -160.4906
  20   2.0000      -5.897818      -160.4878
  21   2.0000      -2.441114       -66.4261
  22   2.0000      -1.278052       -34.7776
  23   2.0000      -1.277305       -34.7572
  24   2.0000      -1.270044       -34.5596
  25   2.0000      -0.978033       -26.6136
  26   2.0000      -0.969653       -26.3856
  27   2.0000      -0.794646       -21.6234
  28   2.0000      -0.791655       -21.5420
  29   2.0000      -0.790982       -21.5237
  30   2.0000      -0.789671       -21.4880
  31   2.0000      -0.772659       -21.0251
  32   2.0000      -0.717768       -19.5315
  33   2.0000      -0.615405       -16.7460
  34   2.0000      -0.611251       -16.6330
  35   2.0000      -0.609746       -16.5920
  36   2.0000      -0.608322       -16.5533
  37   2.0000      -0.595988       -16.2176
  38   2.0000      -0.591641       -16.0994
  39   2.0000      -0.566448       -15.4138
  40   2.0000      -0.565646       -15.3920
  41   2.0000      -0.565565       -15.3898
  42   2.0000      -0.564744       -15.3675
  43   2.0000      -0.564578       -15.3629
  44   2.0000      -0.563814       -15.3422
  45   2.0000      -0.562564       -15.3082
  46   2.0000      -0.471675       -12.8349
  47   2.0000      -0.466135       -12.6842
  48   2.0000      -0.454174       -12.3587
  49   2.0000      -0.453321       -12.3355
  50   2.0000      -0.451399       -12.2832
  51   2.0000      -0.450407       -12.2562
  52   2.0000      -0.440325       -11.9819
  53   2.0000      -0.436152       -11.8683
  54   2.0000      -0.433268       -11.7898
  55   2.0000      -0.432382       -11.7657
  56   2.0000      -0.428241       -11.6530
  57   2.0000      -0.427033       -11.6202
  58   2.0000      -0.423855       -11.5337
  59   2.0000      -0.397122       -10.8062
  60   2.0000      -0.396062       -10.7774
  61   2.0000      -0.292169        -7.9503
  62   2.0000      -0.282289        -7.6815
  63   2.0000      -0.279009        -7.5922
  64   2.0000      -0.263159        -7.1609
  65   2.0000      -0.258626        -7.0376
  66   0.0000      -0.016320        -0.4441
  67   0.0000       0.027129         0.7382
  68   0.0000       0.043230         1.1764
  69   0.0000       0.053576         1.4579
  70   0.0000       0.058384         1.5887

MULLIKEN ATOMIC CHARGES
-----------------------
   0 Lu:    0.714907
   1 C :   -0.253092
   2 C :   -0.328792
   3 C :   -0.237830
   4 C :   -0.323508
   5 C :   -0.266608
   6 H :    0.235963
   7 H :    0.246296
   8 H :    0.237945
   9 H :    0.234117
  10 H :    0.231047
  11 C :   -0.325566
  12 C :   -0.237351
  13 C :   -0.314439
  14 C :   -0.251860
  15 H :    0.237478
  16 C :   -0.268388
  17 H :    0.246497
  18 H :    0.230206
  19 H :    0.232115
  20 H :    0.236715
  21 C :   -0.968675
  22 H :    0.251562
  23 H :    0.246287
  24 H :    0.265170
  25 C :   -1.030982
  26 H :    0.285792
  27 H :    0.219386
  28 H :    0.229354
  29 H :    0.226253
Sum of atomic charges:   -0.0000000

LOEWDIN ATOMIC CHARGES
----------------------
   0 Lu:   -0.124913
   1 C :   -0.134813
   2 C :   -0.156119
   3 C :   -0.122502
   4 C :   -0.148981
   5 C :   -0.132951
   6 H :    0.154837
   7 H :    0.159418
   8 H :    0.154803
   9 H :    0.153233
  10 H :    0.150650
  11 C :   -0.146785
  12 C :   -0.126430
  13 C :   -0.152623
  14 C :   -0.125709
  15 H :    0.154355
  16 C :   -0.139316
  17 H :    0.159192
  18 H :    0.150046
  19 H :    0.153063
  20 H :    0.153758
  21 C :   -0.524358
  22 H :    0.144385
  23 H :    0.149772
  24 H :    0.149473
  25 C :   -0.633697
  26 H :    0.274393
  27 H :    0.148812
  28 H :    0.130429
  29 H :    0.128578

  Mayer bond orders larger than 0.100000
B(  0-Lu,  1-C ) :   0.2533 B(  0-Lu,  2-C ) :   0.2780 B(  0-Lu,  3-C ) :   0.2518
B(  0-Lu,  4-C ) :   0.2867 B(  0-Lu,  5-C ) :   0.2458 B(  0-Lu, 11-C ) :   0.2860
B(  0-Lu, 12-C ) :   0.2387 B(  0-Lu, 13-C ) :   0.2819 B(  0-Lu, 14-C ) :   0.2656
B(  0-Lu, 16-C ) :   0.2626 B(  0-Lu, 21-C ) :   0.2580 B(  0-Lu, 25-C ) :   0.6834
B(  0-Lu, 26-H ) :   0.1781 B(  1-C ,  2-C ) :   1.2678 B(  1-C ,  5-C ) :   1.3174
B(  1-C ,  8-H ) :   0.9156 B(  2-C ,  3-C ) :   1.2967 B(  2-C ,  9-H ) :   0.9222
B(  3-C ,  4-C ) :   1.2930 B(  3-C , 10-H ) :   0.9227 B(  4-C ,  5-C ) :   1.2681
B(  4-C ,  6-H ) :   0.9234 B(  5-C ,  7-H ) :   0.9144 B( 11-C , 12-C ) :   1.2777
B( 11-C , 14-C ) :   1.2909 B( 11-C , 15-H ) :   0.9217 B( 12-C , 16-C ) :   1.3144
B( 12-C , 17-H ) :   0.9105 B( 13-C , 14-C ) :   1.2858 B( 13-C , 16-C ) :   1.2675
B( 13-C , 19-H ) :   0.9240 B( 14-C , 18-H ) :   0.9251 B( 16-C , 20-H ) :   0.9156
B( 21-C , 22-H ) :   0.9002 B( 21-C , 23-H ) :   0.8898 B( 21-C , 24-H ) :   0.9020
B( 21-C , 26-H ) :   0.6080 B( 25-C , 26-H ) :   0.1218 B( 25-C , 27-H ) :   0.8700
B( 25-C , 28-H ) :   0.9131 B( 25-C , 29-H ) :   0.9091

Dispersion correction           -0.017781214
FINAL SINGLE POINT ENERGY     -1702.331384261876
Dispersion correction            ... done

DIPOLE MOMENT
-------------
                                X             Y             Z
Electronic contribution:     -6.53438       4.81608       0.32779
Nuclear contribution   :      6.79500      -5.33082      -0.01999
                        -----------------------------------------
Total Dipole Moment    :      0.26062      -0.51474       0.30780
                        -----------------------------------------
Magnitude (a.u.)       :      0.65393
Magnitude (Debye)      :      1.66215

Rotational constants in cm-1:     0.029654     0.020599     0.017413
Rotational constants in MHz :   889.011006   617.557235   522.026443

                             ****ORCA TERMINATED NORMALLY****
TOTAL RUN TIME: 0 days 0 hours 10 minutes 17 seconds 854 msec
