                         Program Version 5.0.3 -  RELEASE  -
|  1> ! EnGrad PBEh-3c
|  2> %output
|  3> xyzfile=True
|  4> end
|  5> %scf
|  6> maxiter 250
|  7> end
|  8> %output
|  9> Print[P_Hirshfeld] = 1
| 10> end
| 11> % maxcore
| 12> 4000
| 13> *xyz 0 1
| 14> Lu   0.13846583   0.11925118  -0.05281964
| 15> C    0.35780203   0.85106244   2.47402382
| 16> C    1.35494869  -0.14672345   2.16955840
| 17> C    2.29892171   0.42302475   1.26487434
| 18> C    1.86972601   1.70932969   0.90994147
| 19> C    0.67790374   2.00873658   1.63756424
| 20> H    2.43479384   2.39849450   0.34071800
| 21> H    0.17331312   2.90542238   1.65602967
| 22> H   -0.39163907   0.78903940   3.13858736
| 23> H    1.47350203  -1.04578627   2.68502862
| 24> H    3.16665304  -0.06001908   0.94013806
| 25> C    0.96917898  -0.08552438  -2.44362657
| 26> C   -0.31553570  -0.64243652  -2.50688103
| 27> C    1.05120762  -1.96445884  -1.18698395
| 28> C    1.76217019  -0.87945277  -1.71407152
| 29> H    1.30020954   0.77227008  -3.06134818
| 30> C   -0.31601719  -1.85485233  -1.71275862
| 31> H   -1.15527946  -0.28273767  -3.03529491
| 32> H    2.86310332  -0.76488200  -1.55113797
| 33> H    1.40764978  -2.78349637  -0.66657595
| 34> H   -1.06066797  -2.52896898  -1.59550235
| 35> C   -2.30631631  -1.11720354   1.03923359
| 36> H   -2.17591155  -1.12252361   2.13626897
| 37> H   -1.87847263  -2.04846001   0.73921778
| 38> H   -3.42179949  -1.32497140   1.01182658
| 39> C   -1.88882281   1.40944377  -0.55950613
| 40> H   -2.19887351  -0.09267070   0.31697641
| 41> H   -1.13264611   2.07978516  -1.00757276
| 42> H   -2.45058087   2.08149285   0.10411000
| 43> H   -2.57613928   1.23904569  -1.40073328
| 44> *
| 45>
| 46>                          ****END OF INPUT****

CARTESIAN COORDINATES (ANGSTROEM)
---------------------------------
  Lu     0.138466    0.119251   -0.052820
  C      0.357802    0.851062    2.474024
  C      1.354949   -0.146723    2.169558
  C      2.298922    0.423025    1.264874
  C      1.869726    1.709330    0.909941
  C      0.677904    2.008737    1.637564
  H      2.434794    2.398494    0.340718
  H      0.173313    2.905422    1.656030
  H     -0.391639    0.789039    3.138587
  H      1.473502   -1.045786    2.685029
  H      3.166653   -0.060019    0.940138
  C      0.969179   -0.085524   -2.443627
  C     -0.315536   -0.642437   -2.506881
  C      1.051208   -1.964459   -1.186984
  C      1.762170   -0.879453   -1.714072
  H      1.300210    0.772270   -3.061348
  C     -0.316017   -1.854852   -1.712759
  H     -1.155279   -0.282738   -3.035295
  H      2.863103   -0.764882   -1.551138
  H      1.407650   -2.783496   -0.666576
  H     -1.060668   -2.528969   -1.595502
  C     -2.306316   -1.117204    1.039234
  H     -2.175912   -1.122524    2.136269
  H     -1.878473   -2.048460    0.739218
  H     -3.421799   -1.324971    1.011827
  C     -1.888823    1.409444   -0.559506
  H     -2.198874   -0.092671    0.316976
  H     -1.132646    2.079785   -1.007573
  H     -2.450581    2.081493    0.104110
  H     -2.576139    1.239046   -1.400733

 Total Charge           Charge          ....    0
 Multiplicity           Mult            ....    1
 Number of Electrons    NEL             ....  132
 Basis Dimension        Dim             ....  295

ORBITAL ENERGIES
----------------

  NO   OCC          E(Eh)            E(eV)
   0   2.0000     -19.248919      -523.7897
   1   2.0000     -12.620762      -343.4284
   2   2.0000     -12.619439      -343.3924
   3   2.0000     -12.618529      -343.3676
   4   2.0000     -10.450717      -284.3785
   5   2.0000     -10.449214      -284.3376
   6   2.0000     -10.449020      -284.3323
   7   2.0000     -10.448213      -284.3103
   8   2.0000     -10.448026      -284.3053
   9   2.0000     -10.447252      -284.2842
  10   2.0000     -10.446900      -284.2746
  11   2.0000     -10.445497      -284.2364
  12   2.0000     -10.443362      -284.1783
  13   2.0000     -10.442858      -284.1646
  14   2.0000     -10.415409      -283.4177
  15   2.0000     -10.371183      -282.2142
  16   2.0000      -5.890055      -160.2765
  17   2.0000      -5.889992      -160.2748
  18   2.0000      -5.889177      -160.2526
  19   2.0000      -5.888454      -160.2330
  20   2.0000      -5.888352      -160.2302
  21   2.0000      -2.432452       -66.1904
  22   2.0000      -1.273129       -34.6436
  23   2.0000      -1.270102       -34.5612
  24   2.0000      -1.262588       -34.3568
  25   2.0000      -0.980902       -26.6917
  26   2.0000      -0.965499       -26.2726
  27   2.0000      -0.800443       -21.7812
  28   2.0000      -0.799611       -21.7585
  29   2.0000      -0.795385       -21.6435
  30   2.0000      -0.793686       -21.5973
  31   2.0000      -0.764900       -20.8140
  32   2.0000      -0.713459       -19.4142
  33   2.0000      -0.631630       -17.1875
  34   2.0000      -0.629585       -17.1319
  35   2.0000      -0.620593       -16.8872
  36   2.0000      -0.606583       -16.5060
  37   2.0000      -0.605471       -16.4757
  38   2.0000      -0.597348       -16.2547
  39   2.0000      -0.557814       -15.1789
  40   2.0000      -0.556545       -15.1444
  41   2.0000      -0.556387       -15.1400
  42   2.0000      -0.555520       -15.1165
  43   2.0000      -0.555413       -15.1135
  44   2.0000      -0.554324       -15.0839
  45   2.0000      -0.553167       -15.0525
  46   2.0000      -0.470527       -12.8037
  47   2.0000      -0.467102       -12.7105
  48   2.0000      -0.464165       -12.6306
  49   2.0000      -0.460745       -12.5375
  50   2.0000      -0.457989       -12.4625
  51   2.0000      -0.456268       -12.4157
  52   2.0000      -0.449850       -12.2410
  53   2.0000      -0.444994       -12.1089
  54   2.0000      -0.438627       -11.9356
  55   2.0000      -0.429714       -11.6931
  56   2.0000      -0.426295       -11.6001
  57   2.0000      -0.414609       -11.2821
  58   2.0000      -0.412936       -11.2366
  59   2.0000      -0.396105       -10.7786
  60   2.0000      -0.393690       -10.7128
  61   2.0000      -0.289876        -7.8879
  62   2.0000      -0.289715        -7.8835
  63   2.0000      -0.282815        -7.6958
  64   2.0000      -0.269719        -7.3394
  65   2.0000      -0.241111        -6.5610
  66   0.0000      -0.017437        -0.4745
  67   0.0000       0.012493         0.3399
  68   0.0000       0.043899         1.1945
  69   0.0000       0.051954         1.4137
  70   0.0000       0.058177         1.5831

MULLIKEN ATOMIC CHARGES
-----------------------
   0 Lu:    0.749669
   1 C :   -0.217048
   2 C :   -0.364217
   3 C :   -0.214361
   4 C :   -0.327437
   5 C :   -0.276270
   6 H :    0.240597
   7 H :    0.243631
   8 H :    0.241367
   9 H :    0.237205
  10 H :    0.241033
  11 C :   -0.326971
  12 C :   -0.226746
  13 C :   -0.336460
  14 C :   -0.221414
  15 H :    0.238645
  16 C :   -0.271509
  17 H :    0.244145
  18 H :    0.233822
  19 H :    0.237052
  20 H :    0.237784
  21 C :   -1.028457
  22 H :    0.240710
  23 H :    0.244260
  24 H :    0.249548
  25 C :   -1.074808
  26 H :    0.326715
  27 H :    0.212631
  28 H :    0.235835
  29 H :    0.231048
Sum of atomic charges:   -0.0000000

LOEWDIN ATOMIC CHARGES
----------------------
   0 Lu:   -0.118226
   1 C :   -0.112665
   2 C :   -0.149869
   3 C :   -0.119874
   4 C :   -0.143929
   5 C :   -0.121376
   6 H :    0.157205
   7 H :    0.155122
   8 H :    0.151585
   9 H :    0.153792
  10 H :    0.152981
  11 C :   -0.147504
  12 C :   -0.109999
  13 C :   -0.152075
  14 C :   -0.121557
  15 H :    0.159956
  16 C :   -0.124479
  17 H :    0.156805
  18 H :    0.154181
  19 H :    0.153209
  20 H :    0.150052
  21 C :   -0.574649
  22 H :    0.140053
  23 H :    0.142603
  24 H :    0.145909
  25 C :   -0.658793
  26 H :    0.265968
  27 H :    0.152977
  28 H :    0.131966
  29 H :    0.130633

  Mayer bond orders larger than 0.100000
B(  0-Lu,  1-C ) :   0.2473 B(  0-Lu,  2-C ) :   0.2960 B(  0-Lu,  3-C ) :   0.2689
B(  0-Lu,  4-C ) :   0.2947 B(  0-Lu,  5-C ) :   0.2534 B(  0-Lu, 11-C ) :   0.2862
B(  0-Lu, 12-C ) :   0.2379 B(  0-Lu, 13-C ) :   0.3065 B(  0-Lu, 14-C ) :   0.2706
B(  0-Lu, 16-C ) :   0.2686 B(  0-Lu, 21-C ) :   0.1735 B(  0-Lu, 25-C ) :   0.6906
B(  1-C ,  2-C ) :   1.2740 B(  1-C ,  5-C ) :   1.3148 B(  1-C ,  8-H ) :   0.9197
B(  2-C ,  3-C ) :   1.2732 B(  2-C ,  9-H ) :   0.9262 B(  3-C ,  4-C ) :   1.2795
B(  3-C , 10-H ) :   0.9153 B(  4-C ,  5-C ) :   1.2657 B(  4-C ,  6-H ) :   0.9240
B(  5-C ,  7-H ) :   0.9218 B( 11-C , 12-C ) :   1.2718 B( 11-C , 14-C ) :   1.2848
B( 11-C , 15-H ) :   0.9205 B( 12-C , 16-C ) :   1.3277 B( 12-C , 17-H ) :   0.9148
B( 13-C , 14-C ) :   1.2695 B( 13-C , 16-C ) :   1.2610 B( 13-C , 19-H ) :   0.9238
B( 14-C , 18-H ) :   0.9159 B( 16-C , 20-H ) :   0.9222 B( 21-C , 22-H ) :   0.9067
B( 21-C , 23-H ) :   0.8866 B( 21-C , 24-H ) :   0.9131 B( 21-C , 26-H ) :   0.6706
B( 25-C , 26-H ) :   0.1183 B( 25-C , 27-H ) :   0.8469 B( 25-C , 28-H ) :   0.9064
B( 25-C , 29-H ) :   0.9066

Dispersion correction           -0.018231533
FINAL SINGLE POINT ENERGY     -1702.320441985502
Dispersion correction            ... done

DIPOLE MOMENT
-------------
                                X             Y             Z
Electronic contribution:      0.33508       5.88912      -1.70665
Nuclear contribution   :      0.24664      -6.24983       1.89528
                        -----------------------------------------
Total Dipole Moment    :      0.58173      -0.36071       0.18863
                        -----------------------------------------
Magnitude (a.u.)       :      0.71000
Magnitude (Debye)      :      1.80467

Rotational constants in cm-1:     0.031112     0.021308     0.017702
Rotational constants in MHz :   932.719078   638.785643   530.684629

                             ****ORCA TERMINATED NORMALLY****
TOTAL RUN TIME: 0 days 0 hours 10 minutes 26 seconds 867 msec
