                         Program Version 5.0.3 -  RELEASE  -
|  1> ! EnGrad PBEh-3c
|  2> %output
|  3> xyzfile=True
|  4> end
|  5> %scf
|  6> maxiter 250
|  7> end
|  8> %output
|  9> Print[P_Hirshfeld] = 1
| 10> end
| 11> % maxcore
| 12> 4000
| 13> *xyz 0 1
| 14> Lu   0.04863164   0.10369860  -0.02520846
| 15> C    0.40948598   0.82949191   2.48587110
| 16> C    1.39458327  -0.14929045   2.19026298
| 17> C    2.30157711   0.41808407   1.26034763
| 18> C    1.84505518   1.70703577   0.92412346
| 19> C    0.67358765   1.97008898   1.68667474
| 20> H    2.38572261   2.41500891   0.33431563
| 21> H    0.12559993   2.88176491   1.69770366
| 22> H   -0.37424310   0.73147812   3.19614514
| 23> H    1.53628767  -1.07360380   2.70066851
| 24> H    3.21001290  -0.03137362   0.93684396
| 25> C    0.93705492  -0.07981339  -2.45035075
| 26> C   -0.33518250  -0.69589257  -2.49235232
| 27> C    1.05090063  -1.98557568  -1.20016800
| 28> C    1.78801728  -0.88544453  -1.69209879
| 29> H    1.24385128   0.77657430  -3.03283253
| 30> C   -0.27159968  -1.87694254  -1.71672089
| 31> H   -1.19599825  -0.32322794  -3.00749498
| 32> H    2.85357208  -0.76176529  -1.58496314
| 33> H    1.45645249  -2.82412392  -0.68426344
| 34> H   -1.05185130  -2.58806260  -1.57354473
| 35> C   -2.32396408  -1.19725787   1.07920485
| 36> H   -2.22232812  -1.17777905   2.17939034
| 37> H   -1.89433986  -2.17116722   0.84409428
| 38> H   -3.41613457  -1.32916988   0.96606977
| 39> C   -1.89193202   1.55904135  -0.64884677
| 40> H   -2.11123646  -0.06957602   0.32240930
| 41> H   -1.13854438   2.22790640  -1.09399210
| 42> H   -2.47209094   2.26637118  -0.04400337
| 43> H   -2.54415316   1.36419256  -1.50775162
| 44> *
| 45>
| 46>                          ****END OF INPUT****

CARTESIAN COORDINATES (ANGSTROEM)
---------------------------------
  Lu     0.048632    0.103699   -0.025208
  C      0.409486    0.829492    2.485871
  C      1.394583   -0.149290    2.190263
  C      2.301577    0.418084    1.260348
  C      1.845055    1.707036    0.924123
  C      0.673588    1.970089    1.686675
  H      2.385723    2.415009    0.334316
  H      0.125600    2.881765    1.697704
  H     -0.374243    0.731478    3.196145
  H      1.536288   -1.073604    2.700669
  H      3.210013   -0.031374    0.936844
  C      0.937055   -0.079813   -2.450351
  C     -0.335182   -0.695893   -2.492352
  C      1.050901   -1.985576   -1.200168
  C      1.788017   -0.885445   -1.692099
  H      1.243851    0.776574   -3.032833
  C     -0.271600   -1.876943   -1.716721
  H     -1.195998   -0.323228   -3.007495
  H      2.853572   -0.761765   -1.584963
  H      1.456452   -2.824124   -0.684263
  H     -1.051851   -2.588063   -1.573545
  C     -2.323964   -1.197258    1.079205
  H     -2.222328   -1.177779    2.179390
  H     -1.894340   -2.171167    0.844094
  H     -3.416135   -1.329170    0.966070
  C     -1.891932    1.559041   -0.648847
  H     -2.111236   -0.069576    0.322409
  H     -1.138544    2.227906   -1.093992
  H     -2.472091    2.266371   -0.044003
  H     -2.544153    1.364193   -1.507752

 Total Charge           Charge          ....    0
 Multiplicity           Mult            ....    1
 Number of Electrons    NEL             ....  132
 Basis Dimension        Dim             ....  295

ORBITAL ENERGIES
----------------

  NO   OCC          E(Eh)            E(eV)
   0   2.0000     -19.255130      -523.9587
   1   2.0000     -12.626899      -343.5954
   2   2.0000     -12.625671      -343.5620
   3   2.0000     -12.624937      -343.5420
   4   2.0000     -10.447356      -284.2870
   5   2.0000     -10.447050      -284.2787
   6   2.0000     -10.445816      -284.2451
   7   2.0000     -10.445447      -284.2351
   8   2.0000     -10.445340      -284.2321
   9   2.0000     -10.445284      -284.2306
  10   2.0000     -10.444817      -284.2179
  11   2.0000     -10.443523      -284.1827
  12   2.0000     -10.443169      -284.1731
  13   2.0000     -10.442554      -284.1564
  14   2.0000     -10.438206      -284.0380
  15   2.0000     -10.379402      -282.4379
  16   2.0000      -5.896267      -160.4456
  17   2.0000      -5.896191      -160.4435
  18   2.0000      -5.895500      -160.4247
  19   2.0000      -5.894855      -160.4072
  20   2.0000      -5.894752      -160.4044
  21   2.0000      -2.438269       -66.3487
  22   2.0000      -1.276266       -34.7290
  23   2.0000      -1.274852       -34.6905
  24   2.0000      -1.267454       -34.4892
  25   2.0000      -0.977816       -26.6077
  26   2.0000      -0.969019       -26.3684
  27   2.0000      -0.796186       -21.6653
  28   2.0000      -0.794074       -21.6079
  29   2.0000      -0.792595       -21.5676
  30   2.0000      -0.790909       -21.5217
  31   2.0000      -0.769808       -20.9475
  32   2.0000      -0.716604       -19.4998
  33   2.0000      -0.617239       -16.7959
  34   2.0000      -0.615756       -16.7556
  35   2.0000      -0.614429       -16.7195
  36   2.0000      -0.609132       -16.5753
  37   2.0000      -0.599028       -16.3004
  38   2.0000      -0.593970       -16.1627
  39   2.0000      -0.563628       -15.3371
  40   2.0000      -0.562697       -15.3118
  41   2.0000      -0.562626       -15.3098
  42   2.0000      -0.561761       -15.2863
  43   2.0000      -0.561595       -15.2818
  44   2.0000      -0.560757       -15.2590
  45   2.0000      -0.559517       -15.2252
  46   2.0000      -0.470582       -12.8052
  47   2.0000      -0.463301       -12.6071
  48   2.0000      -0.457139       -12.4394
  49   2.0000      -0.455525       -12.3955
  50   2.0000      -0.453638       -12.3441
  51   2.0000      -0.451988       -12.2992
  52   2.0000      -0.440601       -11.9894
  53   2.0000      -0.435428       -11.8486
  54   2.0000      -0.433750       -11.8029
  55   2.0000      -0.432094       -11.7579
  56   2.0000      -0.429568       -11.6891
  57   2.0000      -0.428156       -11.6507
  58   2.0000      -0.424709       -11.5569
  59   2.0000      -0.396736       -10.7957
  60   2.0000      -0.396014       -10.7761
  61   2.0000      -0.291674        -7.9369
  62   2.0000      -0.284743        -7.7482
  63   2.0000      -0.280367        -7.6292
  64   2.0000      -0.265361        -7.2208
  65   2.0000      -0.254274        -6.9191
  66   0.0000      -0.015733        -0.4281
  67   0.0000       0.023620         0.6427
  68   0.0000       0.044101         1.2000
  69   0.0000       0.054888         1.4936
  70   0.0000       0.057324         1.5599

MULLIKEN ATOMIC CHARGES
-----------------------
   0 Lu:    0.728735
   1 C :   -0.243657
   2 C :   -0.339637
   3 C :   -0.231059
   4 C :   -0.324084
   5 C :   -0.269767
   6 H :    0.237363
   7 H :    0.245869
   8 H :    0.240474
   9 H :    0.235292
  10 H :    0.234220
  11 C :   -0.325370
  12 C :   -0.233361
  13 C :   -0.321411
  14 C :   -0.243901
  15 H :    0.237961
  16 C :   -0.270927
  17 H :    0.245753
  18 H :    0.232138
  19 H :    0.233952
  20 H :    0.238516
  21 C :   -0.991310
  22 H :    0.248128
  23 H :    0.245279
  24 H :    0.261187
  25 C :   -1.045724
  26 H :    0.298141
  27 H :    0.217566
  28 H :    0.231622
  29 H :    0.228013
Sum of atomic charges:   -0.0000000

LOEWDIN ATOMIC CHARGES
----------------------
   0 Lu:   -0.120929
   1 C :   -0.128773
   2 C :   -0.154015
   3 C :   -0.121678
   4 C :   -0.147355
   5 C :   -0.129331
   6 H :    0.155538
   7 H :    0.158194
   8 H :    0.154691
   9 H :    0.153461
  10 H :    0.151361
  11 C :   -0.146939
  12 C :   -0.121262
  13 C :   -0.152356
  14 C :   -0.124587
  15 H :    0.156083
  16 C :   -0.135294
  17 H :    0.158366
  18 H :    0.151555
  19 H :    0.153126
  20 H :    0.153369
  21 C :   -0.543618
  22 H :    0.142716
  23 H :    0.147194
  24 H :    0.148421
  25 C :   -0.643227
  26 H :    0.274366
  27 H :    0.150549
  28 H :    0.131020
  29 H :    0.129352

  Mayer bond orders larger than 0.100000
B(  0-Lu,  1-C ) :   0.2521 B(  0-Lu,  2-C ) :   0.2838 B(  0-Lu,  3-C ) :   0.2573
B(  0-Lu,  4-C ) :   0.2894 B(  0-Lu,  5-C ) :   0.2480 B(  0-Lu, 11-C ) :   0.2865
B(  0-Lu, 12-C ) :   0.2382 B(  0-Lu, 13-C ) :   0.2899 B(  0-Lu, 14-C ) :   0.2677
B(  0-Lu, 16-C ) :   0.2650 B(  0-Lu, 21-C ) :   0.2308 B(  0-Lu, 25-C ) :   0.6843
B(  0-Lu, 26-H ) :   0.1505 B(  1-C ,  2-C ) :   1.2692 B(  1-C ,  5-C ) :   1.3164
B(  1-C ,  8-H ) :   0.9166 B(  2-C ,  3-C ) :   1.2901 B(  2-C ,  9-H ) :   0.9233
B(  3-C ,  4-C ) :   1.2885 B(  3-C , 10-H ) :   0.9207 B(  4-C ,  5-C ) :   1.2678
B(  4-C ,  6-H ) :   0.9237 B(  5-C ,  7-H ) :   0.9165 B( 11-C , 12-C ) :   1.2766
B( 11-C , 14-C ) :   1.2886 B( 11-C , 15-H ) :   0.9214 B( 12-C , 16-C ) :   1.3184
B( 12-C , 17-H ) :   0.9119 B( 13-C , 14-C ) :   1.2815 B( 13-C , 16-C ) :   1.2649
B( 13-C , 19-H ) :   0.9239 B( 14-C , 18-H ) :   0.9221 B( 16-C , 20-H ) :   0.9170
B( 21-C , 22-H ) :   0.9024 B( 21-C , 23-H ) :   0.8890 B( 21-C , 24-H ) :   0.9050
B( 21-C , 26-H ) :   0.6292 B( 25-C , 26-H ) :   0.1213 B( 25-C , 27-H ) :   0.8637
B( 25-C , 28-H ) :   0.9109 B( 25-C , 29-H ) :   0.9083

Dispersion correction           -0.017917454
FINAL SINGLE POINT ENERGY     -1702.341190280287
Dispersion correction            ... done

DIPOLE MOMENT
-------------
                                X             Y             Z
Electronic contribution:     -4.40775       5.15195      -0.30217
Nuclear contribution   :      4.77445      -5.61439       0.57098
                        -----------------------------------------
Total Dipole Moment    :      0.36670      -0.46243       0.26881
                        -----------------------------------------
Magnitude (a.u.)       :      0.64852
Magnitude (Debye)      :      1.64839

Rotational constants in cm-1:     0.030128     0.020820     0.017510
Rotational constants in MHz :   903.226958   624.160369   524.945719

                             ****ORCA TERMINATED NORMALLY****
TOTAL RUN TIME: 0 days 0 hours 10 minutes 25 seconds 422 msec
