                         Program Version 5.0.3 -  RELEASE  -
|  1> ! EnGrad PBEh-3c
|  2> %output
|  3> xyzfile=True
|  4> end
|  5> %scf
|  6> maxiter 250
|  7> end
|  8> %output
|  9> Print[P_Hirshfeld] = 1
| 10> end
| 11> % maxcore
| 12> 4000
| 13> *xyz 0 1
| 14> Lu   0.13953467   0.12107375  -0.05625850
| 15> C    0.39844416   0.86924241   2.43221971
| 16> C    1.35293937  -0.11111450   2.16982313
| 17> C    2.28670053   0.42583679   1.28418105
| 18> C    1.86554546   1.70909437   0.93090567
| 19> C    0.69505859   1.97486423   1.65077699
| 20> H    2.44049575   2.40699371   0.33070581
| 21> H    0.16765296   2.92673808   1.65441383
| 22> H   -0.41097459   0.79471466   3.16025586
| 23> H    1.46427600  -1.06218613   2.68879247
| 24> H    3.18157267  -0.06718019   0.93954820
| 25> C    0.96290691  -0.06874850  -2.47427982
| 26> C   -0.31109351  -0.66412918  -2.49300524
| 27> C    1.02088804  -1.95474010  -1.21558424
| 28> C    1.80015733  -0.90207730  -1.70616729
| 29> H    1.29899018   0.77027028  -3.05523033
| 30> C   -0.27243477  -1.81899435  -1.72348074
| 31> H   -1.15750209  -0.28094420  -3.04942979
| 32> H    2.85540130  -0.76747945  -1.55421363
| 33> H    1.41036439  -2.79723396  -0.65371916
| 34> H   -1.08257458  -2.54108588  -1.59717291
| 35> C   -2.33997132  -1.13814356   1.06103413
| 36> H   -2.17576984  -1.13978385   2.15067207
| 37> H   -1.90655481  -2.10810927   0.75436382
| 38> H   -3.40209214  -1.32770805   1.01103253
| 39> C   -1.88981771   1.43502810  -0.57700601
| 40> H   -2.19157505  -0.08688936   0.33349515
| 41> H   -1.13781171   2.10762669  -1.02872549
| 42> H   -2.45328925   2.09242613   0.10244478
| 43> H   -2.58085692   1.24223211  -1.40461913
| 44> *
| 45>
| 46>                          ****END OF INPUT****

CARTESIAN COORDINATES (ANGSTROEM)
---------------------------------
  Lu     0.139535    0.121074   -0.056259
  C      0.398444    0.869242    2.432220
  C      1.352939   -0.111114    2.169823
  C      2.286701    0.425837    1.284181
  C      1.865545    1.709094    0.930906
  C      0.695059    1.974864    1.650777
  H      2.440496    2.406994    0.330706
  H      0.167653    2.926738    1.654414
  H     -0.410975    0.794715    3.160256
  H      1.464276   -1.062186    2.688792
  H      3.181573   -0.067180    0.939548
  C      0.962907   -0.068749   -2.474280
  C     -0.311094   -0.664129   -2.493005
  C      1.020888   -1.954740   -1.215584
  C      1.800157   -0.902077   -1.706167
  H      1.298990    0.770270   -3.055230
  C     -0.272435   -1.818994   -1.723481
  H     -1.157502   -0.280944   -3.049430
  H      2.855401   -0.767479   -1.554214
  H      1.410364   -2.797234   -0.653719
  H     -1.082575   -2.541086   -1.597173
  C     -2.339971   -1.138144    1.061034
  H     -2.175770   -1.139784    2.150672
  H     -1.906555   -2.108109    0.754364
  H     -3.402092   -1.327708    1.011033
  C     -1.889818    1.435028   -0.577006
  H     -2.191575   -0.086889    0.333495
  H     -1.137812    2.107627   -1.028725
  H     -2.453289    2.092426    0.102445
  H     -2.580857    1.242232   -1.404619

 Total Charge           Charge          ....    0
 Multiplicity           Mult            ....    1
 Number of Electrons    NEL             ....  132
 Basis Dimension        Dim             ....  295

ORBITAL ENERGIES
----------------

  NO   OCC          E(Eh)            E(eV)
   0   2.0000     -19.251753      -523.8668
   1   2.0000     -12.623601      -343.5056
   2   2.0000     -12.622246      -343.4688
   3   2.0000     -12.621427      -343.4465
   4   2.0000     -10.446486      -284.2633
   5   2.0000     -10.446200      -284.2556
   6   2.0000     -10.445615      -284.2396
   7   2.0000     -10.444760      -284.2164
   8   2.0000     -10.444449      -284.2079
   9   2.0000     -10.443769      -284.1894
  10   2.0000     -10.443710      -284.1878
  11   2.0000     -10.443565      -284.1839
  12   2.0000     -10.443511      -284.1824
  13   2.0000     -10.442882      -284.1653
  14   2.0000     -10.417632      -283.4782
  15   2.0000     -10.372921      -282.2615
  16   2.0000      -5.892895      -160.3538
  17   2.0000      -5.892822      -160.3518
  18   2.0000      -5.892071      -160.3314
  19   2.0000      -5.891330      -160.3112
  20   2.0000      -5.891225      -160.3084
  21   2.0000      -2.435270       -66.2671
  22   2.0000      -1.276357       -34.7314
  23   2.0000      -1.272600       -34.6292
  24   2.0000      -1.264988       -34.4221
  25   2.0000      -0.992378       -27.0040
  26   2.0000      -0.980688       -26.6859
  27   2.0000      -0.800821       -21.7914
  28   2.0000      -0.799099       -21.7446
  29   2.0000      -0.797351       -21.6970
  30   2.0000      -0.796161       -21.6646
  31   2.0000      -0.765234       -20.8231
  32   2.0000      -0.712927       -19.3997
  33   2.0000      -0.617584       -16.8053
  34   2.0000      -0.614195       -16.7131
  35   2.0000      -0.612305       -16.6617
  36   2.0000      -0.611077       -16.6282
  37   2.0000      -0.601316       -16.3626
  38   2.0000      -0.596230       -16.2243
  39   2.0000      -0.560528       -15.2527
  40   2.0000      -0.559354       -15.2208
  41   2.0000      -0.559181       -15.2161
  42   2.0000      -0.558240       -15.1905
  43   2.0000      -0.558194       -15.1892
  44   2.0000      -0.557148       -15.1608
  45   2.0000      -0.555926       -15.1275
  46   2.0000      -0.475662       -12.9434
  47   2.0000      -0.461723       -12.5641
  48   2.0000      -0.457605       -12.4521
  49   2.0000      -0.456506       -12.4222
  50   2.0000      -0.453118       -12.3300
  51   2.0000      -0.452432       -12.3113
  52   2.0000      -0.439605       -11.9623
  53   2.0000      -0.439024       -11.9465
  54   2.0000      -0.436205       -11.8697
  55   2.0000      -0.433628       -11.7996
  56   2.0000      -0.432588       -11.7713
  57   2.0000      -0.428375       -11.6567
  58   2.0000      -0.423581       -11.5262
  59   2.0000      -0.397644       -10.8204
  60   2.0000      -0.395091       -10.7510
  61   2.0000      -0.293642        -7.9904
  62   2.0000      -0.291935        -7.9439
  63   2.0000      -0.283539        -7.7155
  64   2.0000      -0.273456        -7.4411
  65   2.0000      -0.241947        -6.5837
  66   0.0000      -0.017847        -0.4856
  67   0.0000       0.020569         0.5597
  68   0.0000       0.043750         1.1905
  69   0.0000       0.051087         1.3902
  70   0.0000       0.057980         1.5777

MULLIKEN ATOMIC CHARGES
-----------------------
   0 Lu:    0.755461
   1 C :   -0.230140
   2 C :   -0.347661
   3 C :   -0.230073
   4 C :   -0.327089
   5 C :   -0.267969
   6 H :    0.239662
   7 H :    0.243693
   8 H :    0.240063
   9 H :    0.238184
  10 H :    0.237713
  11 C :   -0.332757
  12 C :   -0.225271
  13 C :   -0.324861
  14 C :   -0.245684
  15 H :    0.239187
  16 C :   -0.260752
  17 H :    0.242800
  18 H :    0.237057
  19 H :    0.238500
  20 H :    0.239127
  21 C :   -1.015473
  22 H :    0.239796
  23 H :    0.228874
  24 H :    0.262666
  25 C :   -1.066840
  26 H :    0.313838
  27 H :    0.212009
  28 H :    0.234382
  29 H :    0.231559
Sum of atomic charges:    0.0000000

LOEWDIN ATOMIC CHARGES
----------------------
   0 Lu:   -0.101795
   1 C :   -0.122151
   2 C :   -0.153257
   3 C :   -0.122554
   4 C :   -0.147762
   5 C :   -0.125410
   6 H :    0.157876
   7 H :    0.159194
   8 H :    0.157843
   9 H :    0.156375
  10 H :    0.153476
  11 C :   -0.146753
  12 C :   -0.112927
  13 C :   -0.150210
  14 C :   -0.125161
  15 H :    0.156653
  16 C :   -0.131241
  17 H :    0.158718
  18 H :    0.153222
  19 H :    0.155812
  20 H :    0.157089
  21 C :   -0.571811
  22 H :    0.138818
  23 H :    0.141132
  24 H :    0.144329
  25 C :   -0.658768
  26 H :    0.264775
  27 H :    0.152020
  28 H :    0.131751
  29 H :    0.130717

  Mayer bond orders larger than 0.100000
B(  0-Lu,  1-C ) :   0.2451 B(  0-Lu,  2-C ) :   0.2895 B(  0-Lu,  3-C ) :   0.2689
B(  0-Lu,  4-C ) :   0.2952 B(  0-Lu,  5-C ) :   0.2455 B(  0-Lu, 11-C ) :   0.2945
B(  0-Lu, 12-C ) :   0.2351 B(  0-Lu, 13-C ) :   0.2966 B(  0-Lu, 14-C ) :   0.2792
B(  0-Lu, 16-C ) :   0.2619 B(  0-Lu, 21-C ) :   0.1718 B(  0-Lu, 25-C ) :   0.6928
B(  0-Lu, 26-H ) :   0.1004 B(  1-C ,  2-C ) :   1.2687 B(  1-C ,  5-C ) :   1.3238
B(  1-C ,  8-H ) :   0.9176 B(  2-C ,  3-C ) :   1.2855 B(  2-C ,  9-H ) :   0.9197
B(  3-C ,  4-C ) :   1.2819 B(  3-C , 10-H ) :   0.9148 B(  4-C ,  5-C ) :   1.2676
B(  4-C ,  6-H ) :   0.9204 B(  5-C ,  7-H ) :   0.9175 B( 11-C , 12-C ) :   1.2791
B( 11-C , 14-C ) :   1.2783 B( 11-C , 15-H ) :   0.9211 B( 12-C , 16-C ) :   1.3218
B( 12-C , 17-H ) :   0.9153 B( 13-C , 14-C ) :   1.2792 B( 13-C , 16-C ) :   1.2615
B( 13-C , 19-H ) :   0.9184 B( 14-C , 18-H ) :   0.9165 B( 16-C , 20-H ) :   0.9178
B( 21-C , 22-H ) :   0.9073 B( 21-C , 23-H ) :   0.8977 B( 21-C , 24-H ) :   0.9050
B( 21-C , 26-H ) :   0.6750 B( 25-C , 26-H ) :   0.1164 B( 25-C , 27-H ) :   0.8523
B( 25-C , 28-H ) :   0.9072 B( 25-C , 29-H ) :   0.9068

Dispersion correction           -0.018130562
FINAL SINGLE POINT ENERGY     -1702.349691835737
Dispersion correction            ... done

DIPOLE MOMENT
-------------
                                X             Y             Z
Electronic contribution:      0.29089       5.88432      -1.82268
Nuclear contribution   :      0.26061      -6.28417       2.02105
                        -----------------------------------------
Total Dipole Moment    :      0.55151      -0.39986       0.19838
                        -----------------------------------------
Magnitude (a.u.)       :      0.70951
Magnitude (Debye)      :      1.80342

Rotational constants in cm-1:     0.031022     0.021259     0.017630
Rotational constants in MHz :   930.023658   637.336917   528.541943

                             ****ORCA TERMINATED NORMALLY****
TOTAL RUN TIME: 0 days 0 hours 10 minutes 22 seconds 130 msec
