                         Program Version 5.0.3 -  RELEASE  -
|  1> ! EnGrad PBEh-3c
|  2> %output
|  3> xyzfile=True
|  4> end
|  5> %scf
|  6> maxiter 250
|  7> end
|  8> %output
|  9> Print[P_Hirshfeld] = 1
| 10> end
| 11> % maxcore
| 12> 4000
| 13> *xyz 0 1
| 14> Lu   0.18766910   0.10874329  -0.05497806
| 15> C    0.44856637   0.82390482   2.53339652
| 16> C    1.46099811  -0.14430080   2.27960459
| 17> C    2.40001378   0.44080557   1.32480409
| 18> C    1.88562079   1.76008068   0.99854214
| 19> C    0.67728286   1.97926539   1.76120719
| 20> H    2.30509146   2.43706924   0.30141675
| 21> H    0.10924941   2.84826830   1.74984712
| 22> H   -0.29168333   0.73316667   3.30704488
| 23> H    1.52802421  -1.10546572   2.68909420
| 24> H    3.25728455  -0.00188618   0.96599158
| 25> C    0.93720542  -0.11470369  -2.52273168
| 26> C   -0.35751444  -0.74114098  -2.49356105
| 27> C    1.08370957  -2.07724437  -1.26955671
| 28> C    1.84869059  -0.94584689  -1.78485387
| 29> H    1.15949580   0.81952784  -2.97665104
| 30> C   -0.24851216  -1.91354981  -1.74240312
| 31> H   -1.19845333  -0.42217812  -3.03655754
| 32> H    2.87098466  -0.77665044  -1.62191045
| 33> H    1.45526806  -2.85775974  -0.69117473
| 34> H   -1.03981921  -2.63953929  -1.60134544
| 35> C   -2.38906387  -1.55686501   1.27115023
| 36> H   -2.30415258  -1.39407693   2.35704858
| 37> H   -2.21522115  -2.72903960   1.14125985
| 38> H   -3.28787807  -1.39372342   0.90074242
| 39> C   -1.94659104   1.94467157  -0.87150785
| 40> H   -2.06059332   0.09996738   0.39802706
| 41> H   -1.16976275   2.63770396  -1.36595005
| 42> H   -2.56125010   2.61725937  -0.26372577
| 43> H   -2.54790337   1.56413738  -1.68013742
| 44> *
| 45>
| 46>                          ****END OF INPUT****

CARTESIAN COORDINATES (ANGSTROEM)
---------------------------------
  Lu     0.187669    0.108743   -0.054978
  C      0.448566    0.823905    2.533397
  C      1.460998   -0.144301    2.279605
  C      2.400014    0.440806    1.324804
  C      1.885621    1.760081    0.998542
  C      0.677283    1.979265    1.761207
  H      2.305091    2.437069    0.301417
  H      0.109249    2.848268    1.749847
  H     -0.291683    0.733167    3.307045
  H      1.528024   -1.105466    2.689094
  H      3.257285   -0.001886    0.965992
  C      0.937205   -0.114704   -2.522732
  C     -0.357514   -0.741141   -2.493561
  C      1.083710   -2.077244   -1.269557
  C      1.848691   -0.945847   -1.784854
  H      1.159496    0.819528   -2.976651
  C     -0.248512   -1.913550   -1.742403
  H     -1.198453   -0.422178   -3.036558
  H      2.870985   -0.776650   -1.621910
  H      1.455268   -2.857760   -0.691175
  H     -1.039819   -2.639539   -1.601345
  C     -2.389064   -1.556865    1.271150
  H     -2.304153   -1.394077    2.357049
  H     -2.215221   -2.729040    1.141260
  H     -3.287878   -1.393723    0.900742
  C     -1.946591    1.944672   -0.871508
  H     -2.060593    0.099967    0.398027
  H     -1.169763    2.637704   -1.365950
  H     -2.561250    2.617259   -0.263726
  H     -2.547903    1.564137   -1.680137

 Total Charge           Charge          ....    0
 Multiplicity           Mult            ....    1
 Number of Electrons    NEL             ....  132
 Basis Dimension        Dim             ....  295

ORBITAL ENERGIES
----------------

  NO   OCC          E(Eh)            E(eV)
   0   2.0000     -19.271771      -524.4115
   1   2.0000     -12.643567      -344.0490
   2   2.0000     -12.642159      -344.0106
   3   2.0000     -12.641959      -344.0052
   4   2.0000     -10.457172      -284.5541
   5   2.0000     -10.456960      -284.5484
   6   2.0000     -10.454670      -284.4860
   7   2.0000     -10.453359      -284.4504
   8   2.0000     -10.452585      -284.4293
   9   2.0000     -10.451808      -284.4082
  10   2.0000     -10.451125      -284.3896
  11   2.0000     -10.450308      -284.3673
  12   2.0000     -10.448782      -284.3258
  13   2.0000     -10.448727      -284.3243
  14   2.0000     -10.446177      -284.2549
  15   2.0000     -10.413856      -283.3754
  16   2.0000      -5.912913      -160.8985
  17   2.0000      -5.912720      -160.8933
  18   2.0000      -5.912637      -160.8910
  19   2.0000      -5.911723      -160.8662
  20   2.0000      -5.911648      -160.8641
  21   2.0000      -2.454323       -66.7855
  22   2.0000      -1.289057       -35.0770
  23   2.0000      -1.287848       -35.0441
  24   2.0000      -1.282097       -34.8876
  25   2.0000      -0.970582       -26.4109
  26   2.0000      -0.961850       -26.1733
  27   2.0000      -0.797012       -21.6878
  28   2.0000      -0.794892       -21.6301
  29   2.0000      -0.793935       -21.6041
  30   2.0000      -0.793042       -21.5798
  31   2.0000      -0.750552       -20.4236
  32   2.0000      -0.714519       -19.4430
  33   2.0000      -0.629319       -17.1246
  34   2.0000      -0.624576       -16.9956
  35   2.0000      -0.617404       -16.8004
  36   2.0000      -0.614534       -16.7223
  37   2.0000      -0.600754       -16.3474
  38   2.0000      -0.596919       -16.2430
  39   2.0000      -0.580155       -15.7868
  40   2.0000      -0.579374       -15.7656
  41   2.0000      -0.578415       -15.7395
  42   2.0000      -0.578398       -15.7390
  43   2.0000      -0.578103       -15.7310
  44   2.0000      -0.577463       -15.7136
  45   2.0000      -0.576379       -15.6841
  46   2.0000      -0.468280       -12.7425
  47   2.0000      -0.467344       -12.7171
  48   2.0000      -0.460941       -12.5428
  49   2.0000      -0.458691       -12.4816
  50   2.0000      -0.456609       -12.4250
  51   2.0000      -0.455191       -12.3864
  52   2.0000      -0.441144       -12.0041
  53   2.0000      -0.439754       -11.9663
  54   2.0000      -0.430702       -11.7200
  55   2.0000      -0.429081       -11.6759
  56   2.0000      -0.426974       -11.6185
  57   2.0000      -0.421548       -11.4709
  58   2.0000      -0.415302       -11.3009
  59   2.0000      -0.404990       -11.0203
  60   2.0000      -0.349866        -9.5203
  61   2.0000      -0.289378        -7.8744
  62   2.0000      -0.287455        -7.8220
  63   2.0000      -0.278924        -7.5899
  64   2.0000      -0.273980        -7.4554
  65   2.0000      -0.234936        -6.3929
  66   0.0000      -0.044953        -1.2232
  67   0.0000      -0.008875        -0.2415
  68   0.0000       0.024079         0.6552
  69   0.0000       0.042358         1.1526
  70   0.0000       0.046012         1.2521

MULLIKEN ATOMIC CHARGES
-----------------------
   0 Lu:    0.699142
   1 C :   -0.274751
   2 C :   -0.290864
   3 C :   -0.290073
   4 C :   -0.323046
   5 C :   -0.256766
   6 H :    0.248530
   7 H :    0.250799
   8 H :    0.234378
   9 H :    0.245536
  10 H :    0.240087
  11 C :   -0.307997
  12 C :   -0.271841
  13 C :   -0.306562
  14 C :   -0.286180
  15 H :    0.250069
  16 C :   -0.248312
  17 H :    0.240417
  18 H :    0.240301
  19 H :    0.242656
  20 H :    0.237836
  21 C :   -0.865110
  22 H :    0.228197
  23 H :    0.201298
  24 H :    0.269190
  25 C :   -0.916043
  26 H :    0.176873
  27 H :    0.188748
  28 H :    0.219651
  29 H :    0.223839
Sum of atomic charges:    0.0000000

LOEWDIN ATOMIC CHARGES
----------------------
   0 Lu:   -0.089200
   1 C :   -0.127492
   2 C :   -0.149097
   3 C :   -0.133403
   4 C :   -0.152796
   5 C :   -0.131432
   6 H :    0.155671
   7 H :    0.158522
   8 H :    0.154609
   9 H :    0.153417
  10 H :    0.152046
  11 C :   -0.149815
  12 C :   -0.130720
  13 C :   -0.152666
  14 C :   -0.131673
  15 H :    0.157016
  16 C :   -0.123367
  17 H :    0.157691
  18 H :    0.152694
  19 H :    0.153144
  20 H :    0.155731
  21 C :   -0.513460
  22 H :    0.133450
  23 H :    0.137034
  24 H :    0.127636
  25 C :   -0.581175
  26 H :    0.239458
  27 H :    0.129510
  28 H :    0.125297
  29 H :    0.123370

  Mayer bond orders larger than 0.100000
B(  0-Lu,  1-C ) :   0.2406 B(  0-Lu,  2-C ) :   0.2683 B(  0-Lu,  3-C ) :   0.2871
B(  0-Lu,  4-C ) :   0.3010 B(  0-Lu,  5-C ) :   0.2466 B(  0-Lu, 11-C ) :   0.2931
B(  0-Lu, 12-C ) :   0.2483 B(  0-Lu, 13-C ) :   0.2819 B(  0-Lu, 14-C ) :   0.2873
B(  0-Lu, 16-C ) :   0.2428 B(  0-Lu, 21-C ) :   0.3116 B(  0-Lu, 25-C ) :   0.5373
B(  0-Lu, 26-H ) :   0.2907 B(  1-C ,  2-C ) :   1.2910 B(  1-C ,  5-C ) :   1.3139
B(  1-C ,  8-H ) :   0.9264 B(  2-C ,  3-C ) :   1.2795 B(  2-C ,  9-H ) :   0.9120
B(  3-C ,  4-C ) :   1.2706 B(  3-C , 10-H ) :   0.9181 B(  4-C ,  5-C ) :   1.2691
B(  4-C ,  6-H ) :   0.9074 B(  5-C ,  7-H ) :   0.9153 B( 11-C , 12-C ) :   1.2660
B( 11-C , 14-C ) :   1.2846 B( 11-C , 15-H ) :   0.9060 B( 12-C , 16-C ) :   1.3157
B( 12-C , 17-H ) :   0.9239 B( 13-C , 14-C ) :   1.2670 B( 13-C , 16-C ) :   1.2861
B( 13-C , 19-H ) :   0.9157 B( 14-C , 18-H ) :   0.9152 B( 16-C , 20-H ) :   0.9203
B( 21-C , 22-H ) :   0.9144 B( 21-C , 23-H ) :   0.9287 B( 21-C , 24-H ) :   0.8884
B( 21-C , 25-C ) :   0.1740 B( 21-C , 26-H ) :   0.4680 B( 25-C , 26-H ) :   0.1991
B( 25-C , 27-H ) :   0.9062 B( 25-C , 28-H ) :   0.9190 B( 25-C , 29-H ) :   0.9105

Dispersion correction           -0.017184142
FINAL SINGLE POINT ENERGY     -1702.210290970997
Dispersion correction            ... done

DIPOLE MOMENT
-------------
                                X             Y             Z
Electronic contribution:      2.26900       5.77444      -1.94872
Nuclear contribution   :     -1.87029      -6.10311       2.07078
                        -----------------------------------------
Total Dipole Moment    :      0.39870      -0.32867       0.12206
                        -----------------------------------------
Magnitude (a.u.)       :      0.53093
Magnitude (Debye)      :      1.34952

Rotational constants in cm-1:     0.027083     0.018768     0.016662
Rotational constants in MHz :   811.918290   562.655185   499.526147

                             ****ORCA TERMINATED NORMALLY****
TOTAL RUN TIME: 0 days 0 hours 9 minutes 25 seconds 751 msec
