                         Program Version 5.0.3 -  RELEASE  -
|  1> ! EnGrad PBEh-3c
|  2> %output
|  3> xyzfile=True
|  4> end
|  5> %scf
|  6> maxiter 250
|  7> end
|  8> %output
|  9> Print[P_Hirshfeld] = 1
| 10> end
| 11> % maxcore
| 12> 4000
| 13> *xyz 0 1
| 14> Lu   0.06465924   0.11136427  -0.04150580
| 15> C    0.43553083   0.81856898   2.51311610
| 16> C    1.47934186  -0.11127818   2.27584177
| 17> C    2.34140890   0.43778617   1.30789015
| 18> C    1.87151219   1.73967817   1.00312573
| 19> C    0.70821015   1.97514296   1.76672960
| 20> H    2.33320844   2.45575703   0.29611900
| 21> H    0.08826693   2.88044735   1.74251754
| 22> H   -0.31187855   0.72878378   3.29517765
| 23> H    1.53519946  -1.13083535   2.70356862
| 24> H    3.30124988  -0.02125426   0.95277600
| 25> C    0.93602932  -0.13147560  -2.51844062
| 26> C   -0.33904335  -0.73416285  -2.49878140
| 27> C    1.08066091  -2.04825485  -1.28582664
| 28> C    1.81105168  -0.93112989  -1.74647007
| 29> H    1.17705871   0.82853936  -3.00040336
| 30> C   -0.24601797  -1.91531749  -1.73943054
| 31> H   -1.22058605  -0.39842198  -3.03891360
| 32> H    2.90329387  -0.77602904  -1.62553578
| 33> H    1.47314314  -2.88302647  -0.67498673
| 34> H   -1.04075028  -2.63204766  -1.59379962
| 35> C   -2.36197458  -1.51110318   1.26826257
| 36> H   -2.30017571  -1.38198624   2.33969191
| 37> H   -2.16165636  -2.67120078   1.11231397
| 38> H   -3.37428023  -1.37308869   0.90008758
| 39> C   -1.92412018   1.89755373  -0.84224526
| 40> H   -2.00105417   0.03252754   0.39950308
| 41> H   -1.16988039   2.60886800  -1.34599793
| 42> H   -2.54620284   2.59017433  -0.24608035
| 43> H   -2.54827166   1.54755422  -1.67379927
| 44> *
| 45>
| 46>                          ****END OF INPUT****

CARTESIAN COORDINATES (ANGSTROEM)
---------------------------------
  Lu     0.064659    0.111364   -0.041506
  C      0.435531    0.818569    2.513116
  C      1.479342   -0.111278    2.275842
  C      2.341409    0.437786    1.307890
  C      1.871512    1.739678    1.003126
  C      0.708210    1.975143    1.766730
  H      2.333208    2.455757    0.296119
  H      0.088267    2.880447    1.742518
  H     -0.311879    0.728784    3.295178
  H      1.535199   -1.130835    2.703569
  H      3.301250   -0.021254    0.952776
  C      0.936029   -0.131476   -2.518441
  C     -0.339043   -0.734163   -2.498781
  C      1.080661   -2.048255   -1.285827
  C      1.811052   -0.931130   -1.746470
  H      1.177059    0.828539   -3.000403
  C     -0.246018   -1.915317   -1.739431
  H     -1.220586   -0.398422   -3.038914
  H      2.903294   -0.776029   -1.625536
  H      1.473143   -2.883026   -0.674987
  H     -1.040750   -2.632048   -1.593800
  C     -2.361975   -1.511103    1.268263
  H     -2.300176   -1.381986    2.339692
  H     -2.161656   -2.671201    1.112314
  H     -3.374280   -1.373089    0.900088
  C     -1.924120    1.897554   -0.842245
  H     -2.001054    0.032528    0.399503
  H     -1.169880    2.608868   -1.345998
  H     -2.546203    2.590174   -0.246080
  H     -2.548272    1.547554   -1.673799

 Total Charge           Charge          ....    0
 Multiplicity           Mult            ....    1
 Number of Electrons    NEL             ....  132
 Basis Dimension        Dim             ....  295

ORBITAL ENERGIES
----------------

  NO   OCC          E(Eh)            E(eV)
   0   2.0000     -19.271454      -524.4029
   1   2.0000     -12.643262      -344.0407
   2   2.0000     -12.641763      -343.9999
   3   2.0000     -12.641694      -343.9980
   4   2.0000     -10.471030      -284.9312
   5   2.0000     -10.452066      -284.4152
   6   2.0000     -10.451676      -284.4045
   7   2.0000     -10.450173      -284.3637
   8   2.0000     -10.449799      -284.3535
   9   2.0000     -10.448839      -284.3274
  10   2.0000     -10.448434      -284.3163
  11   2.0000     -10.446169      -284.2547
  12   2.0000     -10.445309      -284.2313
  13   2.0000     -10.443972      -284.1949
  14   2.0000     -10.443810      -284.1905
  15   2.0000     -10.413519      -283.3663
  16   2.0000      -5.912594      -160.8899
  17   2.0000      -5.912430      -160.8854
  18   2.0000      -5.912293      -160.8817
  19   2.0000      -5.911404      -160.8575
  20   2.0000      -5.911301      -160.8547
  21   2.0000      -2.453924       -66.7747
  22   2.0000      -1.287850       -35.0442
  23   2.0000      -1.287595       -35.0372
  24   2.0000      -1.281858       -34.8811
  25   2.0000      -0.978860       -26.6361
  26   2.0000      -0.971914       -26.4471
  27   2.0000      -0.791872       -21.5479
  28   2.0000      -0.791453       -21.5365
  29   2.0000      -0.789382       -21.4802
  30   2.0000      -0.787879       -21.4393
  31   2.0000      -0.755707       -20.5638
  32   2.0000      -0.713408       -19.4128
  33   2.0000      -0.609819       -16.5940
  34   2.0000      -0.608419       -16.5559
  35   2.0000      -0.605781       -16.4841
  36   2.0000      -0.604851       -16.4588
  37   2.0000      -0.591739       -16.1020
  38   2.0000      -0.586649       -15.9635
  39   2.0000      -0.579758       -15.7760
  40   2.0000      -0.578879       -15.7521
  41   2.0000      -0.578006       -15.7284
  42   2.0000      -0.577890       -15.7252
  43   2.0000      -0.577740       -15.7211
  44   2.0000      -0.576891       -15.6980
  45   2.0000      -0.575474       -15.6594
  46   2.0000      -0.468081       -12.7371
  47   2.0000      -0.465782       -12.6746
  48   2.0000      -0.450501       -12.2588
  49   2.0000      -0.449150       -12.2220
  50   2.0000      -0.446861       -12.1597
  51   2.0000      -0.445692       -12.1279
  52   2.0000      -0.438581       -11.9344
  53   2.0000      -0.435677       -11.8554
  54   2.0000      -0.431334       -11.7372
  55   2.0000      -0.430006       -11.7010
  56   2.0000      -0.427662       -11.6373
  57   2.0000      -0.424853       -11.5608
  58   2.0000      -0.409507       -11.1433
  59   2.0000      -0.403036       -10.9672
  60   2.0000      -0.373283       -10.1575
  61   2.0000      -0.290624        -7.9083
  62   2.0000      -0.283547        -7.7157
  63   2.0000      -0.276976        -7.5369
  64   2.0000      -0.268334        -7.3018
  65   2.0000      -0.250367        -6.8128
  66   0.0000      -0.046727        -1.2715
  67   0.0000      -0.002140        -0.0582
  68   0.0000       0.034281         0.9328
  69   0.0000       0.044388         1.2078
  70   0.0000       0.053481         1.4553

MULLIKEN ATOMIC CHARGES
-----------------------
   0 Lu:    0.691932
   1 C :   -0.346464
   2 C :   -0.227364
   3 C :   -0.320175
   4 C :   -0.307813
   5 C :   -0.233331
   6 H :    0.241050
   7 H :    0.249052
   8 H :    0.231369
   9 H :    0.236803
  10 H :    0.230382
  11 C :   -0.266925
  12 C :   -0.290362
  13 C :   -0.264727
  14 C :   -0.317249
  15 H :    0.243765
  16 C :   -0.278657
  17 H :    0.242129
  18 H :    0.231937
  19 H :    0.236240
  20 H :    0.236659
  21 C :   -0.853814
  22 H :    0.249203
  23 H :    0.218944
  24 H :    0.254285
  25 C :   -0.928440
  26 H :    0.202819
  27 H :    0.197068
  28 H :    0.220626
  29 H :    0.221058
Sum of atomic charges:   -0.0000000

LOEWDIN ATOMIC CHARGES
----------------------
   0 Lu:   -0.105934
   1 C :   -0.153347
   2 C :   -0.144742
   3 C :   -0.142087
   4 C :   -0.156232
   5 C :   -0.132943
   6 H :    0.156093
   7 H :    0.160144
   8 H :    0.154134
   9 H :    0.152775
  10 H :    0.154106
  11 C :   -0.146545
  12 C :   -0.138317
  13 C :   -0.147024
  14 C :   -0.140082
  15 H :    0.156994
  16 C :   -0.140807
  17 H :    0.159109
  18 H :    0.153906
  19 H :    0.153849
  20 H :    0.154538
  21 C :   -0.486849
  22 H :    0.138689
  23 H :    0.145095
  24 H :    0.139489
  25 C :   -0.579929
  26 H :    0.249660
  27 H :    0.134290
  28 H :    0.126962
  29 H :    0.125004

  Mayer bond orders larger than 0.100000
B(  0-Lu,  1-C ) :   0.2591 B(  0-Lu,  2-C ) :   0.2494 B(  0-Lu,  3-C ) :   0.2641
B(  0-Lu,  4-C ) :   0.2814 B(  0-Lu,  5-C ) :   0.2366 B(  0-Lu, 11-C ) :   0.2754
B(  0-Lu, 12-C ) :   0.2514 B(  0-Lu, 13-C ) :   0.2619 B(  0-Lu, 14-C ) :   0.2713
B(  0-Lu, 16-C ) :   0.2594 B(  0-Lu, 21-C ) :   0.3191 B(  0-Lu, 25-C ) :   0.6026
B(  0-Lu, 26-H ) :   0.2938 B(  1-C ,  2-C ) :   1.2747 B(  1-C ,  5-C ) :   1.3029
B(  1-C ,  8-H ) :   0.9263 B(  2-C ,  3-C ) :   1.3057 B(  2-C ,  9-H ) :   0.9099
B(  3-C ,  4-C ) :   1.2684 B(  3-C , 10-H ) :   0.9209 B(  4-C ,  5-C ) :   1.2897
B(  4-C ,  6-H ) :   0.9109 B(  5-C ,  7-H ) :   0.9087 B( 11-C , 12-C ) :   1.2846
B( 11-C , 14-C ) :   1.2814 B( 11-C , 15-H ) :   0.9077 B( 12-C , 16-C ) :   1.2973
B( 12-C , 17-H ) :   0.9176 B( 13-C , 14-C ) :   1.2861 B( 13-C , 16-C ) :   1.2866
B( 13-C , 19-H ) :   0.9143 B( 14-C , 18-H ) :   0.9208 B( 16-C , 20-H ) :   0.9187
B( 21-C , 22-H ) :   0.8988 B( 21-C , 23-H ) :   0.9161 B( 21-C , 24-H ) :   0.8984
B( 21-C , 25-C ) :   0.1515 B( 21-C , 26-H ) :   0.4920 B( 25-C , 26-H ) :   0.1595
B( 25-C , 27-H ) :   0.8981 B( 25-C , 28-H ) :   0.9171 B( 25-C , 29-H ) :   0.9096

Dispersion correction           -0.017128171
FINAL SINGLE POINT ENERGY     -1702.246244794363
Dispersion correction            ... done

DIPOLE MOMENT
-------------
                                X             Y             Z
Electronic contribution:     -4.10248       5.71000      -1.22072
Nuclear contribution   :      4.22843      -6.19182       1.42940
                        -----------------------------------------
Total Dipole Moment    :      0.12595      -0.48182       0.20868
                        -----------------------------------------
Magnitude (a.u.)       :      0.53996
Magnitude (Debye)      :      1.37247

Rotational constants in cm-1:     0.027473     0.019005     0.016729
Rotational constants in MHz :   823.623046   569.768175   501.530799

                             ****ORCA TERMINATED NORMALLY****
TOTAL RUN TIME: 0 days 0 hours 9 minutes 31 seconds 462 msec
