                         Program Version 5.0.3 -  RELEASE  -
|  1> ! EnGrad PBEh-3c
|  2> %output
|  3> xyzfile=True
|  4> end
|  5> %scf
|  6> maxiter 250
|  7> end
|  8> %output
|  9> Print[P_Hirshfeld] = 1
| 10> end
| 11> % maxcore
| 12> 4000
| 13> *xyz 0 1
| 14> Lu   0.14327766   0.10968915  -0.05011623
| 15> C    0.44386214   0.82197924   2.52607778
| 16> C    1.46761795  -0.13238369   2.27824667
| 17> C    2.37886462   0.43971594   1.31870024
| 18> C    1.88052932   1.75271788   1.00019625
| 19> C    0.68844381   1.97777770   1.76320010
| 20> H    2.31523823   2.44381323   0.29950491
| 21> H    0.10167731   2.85988098   1.74720204
| 22> H   -0.29897132   0.73158498   3.30276227
| 23> H    1.53061360  -1.11462104   2.69431769
| 24> H    3.27315063  -0.00887568   0.96122238
| 25> C    0.93678099  -0.12075629  -2.52118313
| 26> C   -0.35084865  -0.73862273  -2.49544495
| 27> C    1.08260938  -2.06678272  -1.27542816
| 28> C    1.83510757  -0.94053586  -1.77100203
| 29> H    1.16583385   0.82277989  -2.98522271
| 30> C   -0.24761206  -1.91418772  -1.74133039
| 31> H   -1.20644052  -0.41360508  -3.03740779
| 32> H    2.88264431  -0.77642619  -1.62321875
| 33> H    1.46171877  -2.86687792  -0.68533285
| 34> H   -1.04015521  -2.63683573  -1.59862233
| 35> C   -2.37928797  -1.54035061   1.27010814
| 36> H   -2.30271742  -1.38971368   2.35078496
| 37> H   -2.19589084  -2.70816689   1.13081395
| 38> H   -3.31905863  -1.38627682   0.90050610
| 39> C   -1.93848182   1.92766782  -0.86094765
| 40> H   -2.03910700   0.07562989   0.39855972
| 41> H   -1.16980520   2.62729772  -1.35874979
| 42> H   -2.55581989   2.60748500  -0.25735794
| 43> H   -2.54803628   1.55815289  -1.67785013
| 44> *
| 45>
| 46>                          ****END OF INPUT****

CARTESIAN COORDINATES (ANGSTROEM)
---------------------------------
  Lu     0.143278    0.109689   -0.050116
  C      0.443862    0.821979    2.526078
  C      1.467618   -0.132384    2.278247
  C      2.378865    0.439716    1.318700
  C      1.880529    1.752718    1.000196
  C      0.688444    1.977778    1.763200
  H      2.315238    2.443813    0.299505
  H      0.101677    2.859881    1.747202
  H     -0.298971    0.731585    3.302762
  H      1.530614   -1.114621    2.694318
  H      3.273151   -0.008876    0.961222
  C      0.936781   -0.120756   -2.521183
  C     -0.350849   -0.738623   -2.495445
  C      1.082609   -2.066783   -1.275428
  C      1.835108   -0.940536   -1.771002
  H      1.165834    0.822780   -2.985223
  C     -0.247612   -1.914188   -1.741330
  H     -1.206441   -0.413605   -3.037408
  H      2.882644   -0.776426   -1.623219
  H      1.461719   -2.866878   -0.685333
  H     -1.040155   -2.636836   -1.598622
  C     -2.379288   -1.540351    1.270108
  H     -2.302717   -1.389714    2.350785
  H     -2.195891   -2.708167    1.130814
  H     -3.319059   -1.386277    0.900506
  C     -1.938482    1.927668   -0.860948
  H     -2.039107    0.075630    0.398560
  H     -1.169805    2.627298   -1.358750
  H     -2.555820    2.607485   -0.257358
  H     -2.548036    1.558153   -1.677850

 Total Charge           Charge          ....    0
 Multiplicity           Mult            ....    1
 Number of Electrons    NEL             ....  132
 Basis Dimension        Dim             ....  295

ORBITAL ENERGIES
----------------

  NO   OCC          E(Eh)            E(eV)
   0   2.0000     -19.271493      -524.4040
   1   2.0000     -12.643300      -344.0417
   2   2.0000     -12.641845      -344.0021
   3   2.0000     -12.641707      -343.9983
   4   2.0000     -10.456531      -284.5367
   5   2.0000     -10.455298      -284.5031
   6   2.0000     -10.455028      -284.4958
   7   2.0000     -10.452309      -284.4218
   8   2.0000     -10.452121      -284.4167
   9   2.0000     -10.451166      -284.3907
  10   2.0000     -10.450594      -284.3751
  11   2.0000     -10.448931      -284.3299
  12   2.0000     -10.448494      -284.3180
  13   2.0000     -10.447654      -284.2951
  14   2.0000     -10.445279      -284.2305
  15   2.0000     -10.413734      -283.3721
  16   2.0000      -5.912638      -160.8911
  17   2.0000      -5.912458      -160.8862
  18   2.0000      -5.912355      -160.8834
  19   2.0000      -5.911444      -160.8586
  20   2.0000      -5.911361      -160.8563
  21   2.0000      -2.454003       -66.7768
  22   2.0000      -1.288436       -35.0601
  23   2.0000      -1.287539       -35.0357
  24   2.0000      -1.281787       -34.8792
  25   2.0000      -0.973384       -26.4871
  26   2.0000      -0.965290       -26.2669
  27   2.0000      -0.794914       -21.6307
  28   2.0000      -0.793114       -21.5817
  29   2.0000      -0.792299       -21.5595
  30   2.0000      -0.791183       -21.5292
  31   2.0000      -0.751844       -20.4587
  32   2.0000      -0.714041       -19.4301
  33   2.0000      -0.621484       -16.9114
  34   2.0000      -0.617484       -16.8026
  35   2.0000      -0.612965       -16.6796
  36   2.0000      -0.611476       -16.6391
  37   2.0000      -0.597538       -16.2598
  38   2.0000      -0.593551       -16.1513
  39   2.0000      -0.579858       -15.7787
  40   2.0000      -0.579036       -15.7564
  41   2.0000      -0.578095       -15.7308
  42   2.0000      -0.578047       -15.7295
  43   2.0000      -0.577863       -15.7244
  44   2.0000      -0.577153       -15.7051
  45   2.0000      -0.575944       -15.6722
  46   2.0000      -0.467649       -12.7254
  47   2.0000      -0.465454       -12.6656
  48   2.0000      -0.456525       -12.4227
  49   2.0000      -0.455273       -12.3886
  50   2.0000      -0.453648       -12.3444
  51   2.0000      -0.452215       -12.3054
  52   2.0000      -0.437572       -11.9069
  53   2.0000      -0.437080       -11.8936
  54   2.0000      -0.432246       -11.7620
  55   2.0000      -0.430555       -11.7160
  56   2.0000      -0.428795       -11.6681
  57   2.0000      -0.424342       -11.5469
  58   2.0000      -0.413285       -11.2461
  59   2.0000      -0.404114       -10.9965
  60   2.0000      -0.358302        -9.7499
  61   2.0000      -0.289641        -7.8815
  62   2.0000      -0.286094        -7.7850
  63   2.0000      -0.278228        -7.5710
  64   2.0000      -0.271942        -7.3999
  65   2.0000      -0.240433        -6.5425
  66   0.0000      -0.045199        -1.2299
  67   0.0000      -0.006273        -0.1707
  68   0.0000       0.028104         0.7648
  69   0.0000       0.043265         1.1773
  70   0.0000       0.049249         1.3401

MULLIKEN ATOMIC CHARGES
-----------------------
   0 Lu:    0.697050
   1 C :   -0.301644
   2 C :   -0.267137
   3 C :   -0.303743
   4 C :   -0.317361
   5 C :   -0.248371
   6 H :    0.246052
   7 H :    0.251150
   8 H :    0.233173
   9 H :    0.243335
  10 H :    0.237761
  11 C :   -0.292563
  12 C :   -0.278980
  13 C :   -0.292034
  14 C :   -0.298764
  15 H :    0.247981
  16 C :   -0.259077
  17 H :    0.241299
  18 H :    0.237836
  19 H :    0.241094
  20 H :    0.237407
  21 C :   -0.861916
  22 H :    0.235712
  23 H :    0.207607
  24 H :    0.263707
  25 C :   -0.920260
  26 H :    0.186504
  27 H :    0.191579
  28 H :    0.219850
  29 H :    0.222752
Sum of atomic charges:   -0.0000000

LOEWDIN ATOMIC CHARGES
----------------------
   0 Lu:   -0.095822
   1 C :   -0.136884
   2 C :   -0.147897
   3 C :   -0.136838
   4 C :   -0.154271
   5 C :   -0.132252
   6 H :    0.155975
   7 H :    0.159470
   8 H :    0.154459
   9 H :    0.153577
  10 H :    0.153544
  11 C :   -0.148765
  12 C :   -0.133551
  13 C :   -0.150965
  14 C :   -0.134717
  15 H :    0.157132
  16 C :   -0.129539
  17 H :    0.158315
  18 H :    0.153416
  19 H :    0.153839
  20 H :    0.155296
  21 C :   -0.505091
  22 H :    0.135231
  23 H :    0.139810
  24 H :    0.132376
  25 C :   -0.580690
  26 H :    0.244095
  27 H :    0.131083
  28 H :    0.125796
  29 H :    0.123869

  Mayer bond orders larger than 0.100000
B(  0-Lu,  1-C ) :   0.2475 B(  0-Lu,  2-C ) :   0.2614 B(  0-Lu,  3-C ) :   0.2791
B(  0-Lu,  4-C ) :   0.2940 B(  0-Lu,  5-C ) :   0.2433 B(  0-Lu, 11-C ) :   0.2867
B(  0-Lu, 12-C ) :   0.2499 B(  0-Lu, 13-C ) :   0.2746 B(  0-Lu, 14-C ) :   0.2817
B(  0-Lu, 16-C ) :   0.2488 B(  0-Lu, 21-C ) :   0.3136 B(  0-Lu, 25-C ) :   0.5603
B(  0-Lu, 26-H ) :   0.2919 B(  1-C ,  2-C ) :   1.2861 B(  1-C ,  5-C ) :   1.3105
B(  1-C ,  8-H ) :   0.9266 B(  2-C ,  3-C ) :   1.2888 B(  2-C ,  9-H ) :   0.9106
B(  3-C ,  4-C ) :   1.2699 B(  3-C , 10-H ) :   0.9194 B(  4-C ,  5-C ) :   1.2761
B(  4-C ,  6-H ) :   0.9088 B(  5-C ,  7-H ) :   0.9123 B( 11-C , 12-C ) :   1.2724
B( 11-C , 14-C ) :   1.2839 B( 11-C , 15-H ) :   0.9066 B( 12-C , 16-C ) :   1.3091
B( 12-C , 17-H ) :   0.9215 B( 13-C , 14-C ) :   1.2738 B( 13-C , 16-C ) :   1.2866
B( 13-C , 19-H ) :   0.9149 B( 14-C , 18-H ) :   0.9176 B( 16-C , 20-H ) :   0.9198
B( 21-C , 22-H ) :   0.9088 B( 21-C , 23-H ) :   0.9242 B( 21-C , 24-H ) :   0.8920
B( 21-C , 25-C ) :   0.1665 B( 21-C , 26-H ) :   0.4769 B( 25-C , 26-H ) :   0.1845
B( 25-C , 27-H ) :   0.9034 B( 25-C , 28-H ) :   0.9184 B( 25-C , 29-H ) :   0.9102

Dispersion correction           -0.017141225
FINAL SINGLE POINT ENERGY     -1702.233136897145
Dispersion correction            ... done

DIPOLE MOMENT
-------------
                                X             Y             Z
Electronic contribution:     -0.02666       5.74923      -1.68673
Nuclear contribution   :      0.33060      -6.13512       1.83932
                        -----------------------------------------
Total Dipole Moment    :      0.30394      -0.38590       0.15259
                        -----------------------------------------
Magnitude (a.u.)       :      0.51437
Magnitude (Debye)      :      1.30743

Rotational constants in cm-1:     0.027237     0.018854     0.016692
Rotational constants in MHz :   816.556275   565.224832   500.413458

                             ****ORCA TERMINATED NORMALLY****
TOTAL RUN TIME: 0 days 0 hours 9 minutes 34 seconds 104 msec
