                         Program Version 5.0.3 -  RELEASE  -
|  1> ! EnGrad PBEh-3c
|  2> %output
|  3> xyzfile=True
|  4> end
|  5> %scf
|  6> maxiter 250
|  7> end
|  8> %output
|  9> Print[P_Hirshfeld] = 1
| 10> end
| 11> % maxcore
| 12> 4000
| 13> *xyz 0 1
| 14> Lu   0.06418926   0.10951384  -0.03784170
| 15> C    0.44210516   0.81283827   2.51860299
| 16> C    1.48100339  -0.10673441   2.25953130
| 17> C    2.32872809   0.44342639   1.31414700
| 18> C    1.86533534   1.72976276   1.00363761
| 19> C    0.71479727   1.96404848   1.75742196
| 20> H    2.32868663   2.45326451   0.29861229
| 21> H    0.08472106   2.87986216   1.74534137
| 22> H   -0.31298084   0.72351640   3.29348500
| 23> H    1.53994946  -1.12932837   2.70528444
| 24> H    3.29737807  -0.01804958   0.95164796
| 25> C    0.93292215  -0.13453854  -2.50695181
| 26> C   -0.32922032  -0.73302831  -2.49440434
| 27> C    1.08305662  -2.03202505  -1.28769554
| 28> C    1.79984329  -0.93513015  -1.74577493
| 29> H    1.17428558   0.82573098  -2.99859251
| 30> C   -0.24476530  -1.92199080  -1.73507025
| 31> H   -1.22586363  -0.39887962  -3.03635255
| 32> H    2.89865360  -0.77390087  -1.62547433
| 33> H    1.47533220  -2.88401030  -0.67671081
| 34> H   -1.03978405  -2.63331359  -1.59075107
| 35> C   -2.33449661  -1.52639679   1.26103842
| 36> H   -2.30047136  -1.37039362   2.33427787
| 37> H   -2.15305879  -2.63092909   1.10758447
| 38> H   -3.39193702  -1.36850628   0.89282300
| 39> C   -1.90763019   1.90590336  -0.84609721
| 40> H   -2.00985923   0.02657105   0.40218263
| 41> H   -1.17628227   2.59266481  -1.33457461
| 42> H   -2.54360419   2.58628129  -0.24819040
| 43> H   -2.54696818   1.54697286  -1.67606897
| 44> *
| 45>
| 46>                          ****END OF INPUT****

CARTESIAN COORDINATES (ANGSTROEM)
---------------------------------
  Lu     0.064189    0.109514   -0.037842
  C      0.442105    0.812838    2.518603
  C      1.481003   -0.106734    2.259531
  C      2.328728    0.443426    1.314147
  C      1.865335    1.729763    1.003638
  C      0.714797    1.964048    1.757422
  H      2.328687    2.453265    0.298612
  H      0.084721    2.879862    1.745341
  H     -0.312981    0.723516    3.293485
  H      1.539949   -1.129328    2.705284
  H      3.297378   -0.018050    0.951648
  C      0.932922   -0.134539   -2.506952
  C     -0.329220   -0.733028   -2.494404
  C      1.083057   -2.032025   -1.287696
  C      1.799843   -0.935130   -1.745775
  H      1.174286    0.825731   -2.998593
  C     -0.244765   -1.921991   -1.735070
  H     -1.225864   -0.398880   -3.036353
  H      2.898654   -0.773901   -1.625474
  H      1.475332   -2.884010   -0.676711
  H     -1.039784   -2.633314   -1.590751
  C     -2.334497   -1.526397    1.261038
  H     -2.300471   -1.370394    2.334278
  H     -2.153059   -2.630929    1.107584
  H     -3.391937   -1.368506    0.892823
  C     -1.907630    1.905903   -0.846097
  H     -2.009859    0.026571    0.402183
  H     -1.176282    2.592665   -1.334575
  H     -2.543604    2.586281   -0.248190
  H     -2.546968    1.546973   -1.676069

 Total Charge           Charge          ....    0
 Multiplicity           Mult            ....    1
 Number of Electrons    NEL             ....  132
 Basis Dimension        Dim             ....  295

ORBITAL ENERGIES
----------------

  NO   OCC          E(Eh)            E(eV)
   0   2.0000     -19.270774      -524.3844
   1   2.0000     -12.642567      -344.0217
   2   2.0000     -12.641078      -343.9812
   3   2.0000     -12.641020      -343.9796
   4   2.0000     -10.470651      -284.9209
   5   2.0000     -10.449065      -284.3335
   6   2.0000     -10.448980      -284.3312
   7   2.0000     -10.448085      -284.3068
   8   2.0000     -10.447699      -284.2963
   9   2.0000     -10.446388      -284.2607
  10   2.0000     -10.445681      -284.2414
  11   2.0000     -10.444888      -284.2198
  12   2.0000     -10.444018      -284.1962
  13   2.0000     -10.443303      -284.1767
  14   2.0000     -10.442496      -284.1548
  15   2.0000     -10.410302      -283.2787
  16   2.0000      -5.911897      -160.8709
  17   2.0000      -5.911736      -160.8665
  18   2.0000      -5.911600      -160.8628
  19   2.0000      -5.910726      -160.8390
  20   2.0000      -5.910620      -160.8361
  21   2.0000      -2.453284       -66.7572
  22   2.0000      -1.287484       -35.0342
  23   2.0000      -1.287096       -35.0237
  24   2.0000      -1.281363       -34.8677
  25   2.0000      -0.984840       -26.7989
  26   2.0000      -0.978008       -26.6130
  27   2.0000      -0.792903       -21.5760
  28   2.0000      -0.792607       -21.5679
  29   2.0000      -0.791259       -21.5313
  30   2.0000      -0.788884       -21.4666
  31   2.0000      -0.756652       -20.5896
  32   2.0000      -0.715133       -19.4598
  33   2.0000      -0.608704       -16.5637
  34   2.0000      -0.607563       -16.5326
  35   2.0000      -0.605378       -16.4732
  36   2.0000      -0.602748       -16.4016
  37   2.0000      -0.591502       -16.0956
  38   2.0000      -0.586450       -15.9581
  39   2.0000      -0.579069       -15.7573
  40   2.0000      -0.578200       -15.7336
  41   2.0000      -0.577319       -15.7097
  42   2.0000      -0.577194       -15.7062
  43   2.0000      -0.577102       -15.7037
  44   2.0000      -0.576245       -15.6804
  45   2.0000      -0.574800       -15.6411
  46   2.0000      -0.469985       -12.7889
  47   2.0000      -0.458034       -12.4637
  48   2.0000      -0.452702       -12.3186
  49   2.0000      -0.449859       -12.2413
  50   2.0000      -0.448058       -12.1923
  51   2.0000      -0.446293       -12.1442
  52   2.0000      -0.443716       -12.0741
  53   2.0000      -0.438112       -11.9216
  54   2.0000      -0.434309       -11.8182
  55   2.0000      -0.430336       -11.7100
  56   2.0000      -0.425882       -11.5888
  57   2.0000      -0.422359       -11.4930
  58   2.0000      -0.409242       -11.1360
  59   2.0000      -0.405370       -11.0307
  60   2.0000      -0.372190       -10.1278
  61   2.0000      -0.290633        -7.9085
  62   2.0000      -0.284910        -7.7528
  63   2.0000      -0.278556        -7.5799
  64   2.0000      -0.268572        -7.3082
  65   2.0000      -0.250272        -6.8102
  66   0.0000      -0.047246        -1.2856
  67   0.0000      -0.000619        -0.0168
  68   0.0000       0.034947         0.9510
  69   0.0000       0.044555         1.2124
  70   0.0000       0.053531         1.4566

MULLIKEN ATOMIC CHARGES
-----------------------
   0 Lu:    0.689560
   1 C :   -0.333515
   2 C :   -0.237183
   3 C :   -0.308696
   4 C :   -0.305168
   5 C :   -0.243640
   6 H :    0.240539
   7 H :    0.246835
   8 H :    0.231829
   9 H :    0.235222
  10 H :    0.228825
  11 C :   -0.272864
  12 C :   -0.288606
  13 C :   -0.269100
  14 C :   -0.305552
  15 H :    0.243159
  16 C :   -0.278177
  17 H :    0.241097
  18 H :    0.231159
  19 H :    0.233935
  20 H :    0.236440
  21 C :   -0.862904
  22 H :    0.249231
  23 H :    0.237500
  24 H :    0.241755
  25 C :   -0.934244
  26 H :    0.207729
  27 H :    0.209226
  28 H :    0.219279
  29 H :    0.216330
Sum of atomic charges:   -0.0000000

LOEWDIN ATOMIC CHARGES
----------------------
   0 Lu:   -0.107474
   1 C :   -0.153039
   2 C :   -0.144862
   3 C :   -0.141475
   4 C :   -0.156796
   5 C :   -0.132861
   6 H :    0.156650
   7 H :    0.159961
   8 H :    0.154332
   9 H :    0.152746
  10 H :    0.153822
  11 C :   -0.148415
  12 C :   -0.136113
  13 C :   -0.145820
  14 C :   -0.140384
  15 H :    0.157342
  16 C :   -0.143354
  17 H :    0.158897
  18 H :    0.154077
  19 H :    0.153292
  20 H :    0.154563
  21 C :   -0.490133
  22 H :    0.138938
  23 H :    0.147481
  24 H :    0.140162
  25 C :   -0.582263
  26 H :    0.253280
  27 H :    0.136034
  28 H :    0.126776
  29 H :    0.124635

  Mayer bond orders larger than 0.100000
B(  0-Lu,  1-C ) :   0.2604 B(  0-Lu,  2-C ) :   0.2498 B(  0-Lu,  3-C ) :   0.2621
B(  0-Lu,  4-C ) :   0.2807 B(  0-Lu,  5-C ) :   0.2389 B(  0-Lu, 11-C ) :   0.2757
B(  0-Lu, 12-C ) :   0.2502 B(  0-Lu, 13-C ) :   0.2605 B(  0-Lu, 14-C ) :   0.2683
B(  0-Lu, 16-C ) :   0.2615 B(  0-Lu, 21-C ) :   0.3212 B(  0-Lu, 25-C ) :   0.6071
B(  0-Lu, 26-H ) :   0.2914 B(  1-C ,  2-C ) :   1.2752 B(  1-C ,  5-C ) :   1.3033
B(  1-C ,  8-H ) :   0.9251 B(  2-C ,  3-C ) :   1.3125 B(  2-C ,  9-H ) :   0.9110
B(  3-C ,  4-C ) :   1.2674 B(  3-C , 10-H ) :   0.9203 B(  4-C ,  5-C ) :   1.2937
B(  4-C ,  6-H ) :   0.9113 B(  5-C ,  7-H ) :   0.9094 B( 11-C , 12-C ) :   1.2913
B( 11-C , 14-C ) :   1.2769 B( 11-C , 15-H ) :   0.9085 B( 12-C , 16-C ) :   1.2966
B( 12-C , 17-H ) :   0.9166 B( 13-C , 14-C ) :   1.2952 B( 13-C , 16-C ) :   1.2846
B( 13-C , 19-H ) :   0.9149 B( 14-C , 18-H ) :   0.9203 B( 16-C , 20-H ) :   0.9186
B( 21-C , 22-H ) :   0.8987 B( 21-C , 23-H ) :   0.9072 B( 21-C , 24-H ) :   0.9070
B( 21-C , 25-C ) :   0.1492 B( 21-C , 26-H ) :   0.4923 B( 25-C , 26-H ) :   0.1591
B( 25-C , 27-H ) :   0.8952 B( 25-C , 28-H ) :   0.9191 B( 25-C , 29-H ) :   0.9134

Dispersion correction           -0.017165135
FINAL SINGLE POINT ENERGY     -1702.247738826778
Dispersion correction            ... done

DIPOLE MOMENT
-------------
                                X             Y             Z
Electronic contribution:     -4.17409       5.63654      -1.02493
Nuclear contribution   :      4.30220      -6.12421       1.24106
                        -----------------------------------------
Total Dipole Moment    :      0.12811      -0.48767       0.21612
                        -----------------------------------------
Magnitude (a.u.)       :      0.54858
Magnitude (Debye)      :      1.39438

Rotational constants in cm-1:     0.027679     0.019066     0.016830
Rotational constants in MHz :   829.784911   571.593505   504.562762

                             ****ORCA TERMINATED NORMALLY****
TOTAL RUN TIME: 0 days 0 hours 9 minutes 27 seconds 493 msec
