                         Program Version 5.0.3 -  RELEASE  -
|  1> ! EnGrad PBEh-3c
|  2> %output
|  3> xyzfile=True
|  4> end
|  5> %scf
|  6> maxiter 250
|  7> end
|  8> %output
|  9> Print[P_Hirshfeld] = 1
| 10> end
| 11> % maxcore
| 12> 4000
| 13> *xyz 0 1
| 14> Lu   0.01657241   0.10711112  -0.02778763
| 15> C    0.43966372   0.80745771   2.51708719
| 16> C    1.47848304  -0.11718126   2.26312032
| 17> C    2.33031984   0.43312032   1.29505285
| 18> C    1.86157524   1.73040176   0.98899027
| 19> C    0.70806241   1.96909933   1.75792228
| 20> H    2.33035788   2.45095938   0.30475894
| 21> H    0.08111804   2.87906253   1.74532014
| 22> H   -0.32032606   0.71478185   3.28596751
| 23> H    1.54996012  -1.12626105   2.70700212
| 24> H    3.29549405  -0.01527045   0.94998383
| 25> C    0.93179645  -0.12501914  -2.50282977
| 26> C   -0.33634309  -0.73342770  -2.49610511
| 27> C    1.08352211  -2.03727821  -1.27535324
| 28> C    1.80460643  -0.92115651  -1.72899143
| 29> H    1.17620428   0.81915790  -3.00148290
| 30> C   -0.24413703  -1.92160096  -1.73321778
| 31> H   -1.23107408  -0.39283402  -3.02822510
| 32> H    2.89368873  -0.77293548  -1.62740142
| 33> H    1.48160241  -2.88314655  -0.68052624
| 34> H   -1.03973902  -2.63427067  -1.58326374
| 35> C   -2.33300569  -1.49959193   1.23866287
| 36> H   -2.29669469  -1.35153908   2.32297151
| 37> H   -2.11568647  -2.57692921   1.08773387
| 38> H   -3.41160083  -1.36078551   0.89440205
| 39> C   -1.89536216   1.88605743  -0.83701461
| 40> H   -1.99646257  -0.00304718   0.40299253
| 41> H   -1.17469221   2.56779193  -1.31684876
| 42> H   -2.53351021   2.57078383  -0.24396955
| 43> H   -2.54104342   1.54171090  -1.67191210
| 44> *
| 45>
| 46>                          ****END OF INPUT****

CARTESIAN COORDINATES (ANGSTROEM)
---------------------------------
  Lu     0.016572    0.107111   -0.027788
  C      0.439664    0.807458    2.517087
  C      1.478483   -0.117181    2.263120
  C      2.330320    0.433120    1.295053
  C      1.861575    1.730402    0.988990
  C      0.708062    1.969099    1.757922
  H      2.330358    2.450959    0.304759
  H      0.081118    2.879063    1.745320
  H     -0.320326    0.714782    3.285968
  H      1.549960   -1.126261    2.707002
  H      3.295494   -0.015270    0.949984
  C      0.931796   -0.125019   -2.502830
  C     -0.336343   -0.733428   -2.496105
  C      1.083522   -2.037278   -1.275353
  C      1.804606   -0.921157   -1.728991
  H      1.176204    0.819158   -3.001483
  C     -0.244137   -1.921601   -1.733218
  H     -1.231074   -0.392834   -3.028225
  H      2.893689   -0.772935   -1.627401
  H      1.481602   -2.883147   -0.680526
  H     -1.039739   -2.634271   -1.583264
  C     -2.333006   -1.499592    1.238663
  H     -2.296695   -1.351539    2.322972
  H     -2.115686   -2.576929    1.087734
  H     -3.411601   -1.360786    0.894402
  C     -1.895362    1.886057   -0.837015
  H     -1.996463   -0.003047    0.402993
  H     -1.174692    2.567792   -1.316849
  H     -2.533510    2.570784   -0.243970
  H     -2.541043    1.541711   -1.671912

 Total Charge           Charge          ....    0
 Multiplicity           Mult            ....    1
 Number of Electrons    NEL             ....  132
 Basis Dimension        Dim             ....  295

ORBITAL ENERGIES
----------------

  NO   OCC          E(Eh)            E(eV)
   0   2.0000     -19.269260      -524.3432
   1   2.0000     -12.641050      -343.9804
   2   2.0000     -12.639551      -343.9397
   3   2.0000     -12.639490      -343.9380
   4   2.0000     -10.476475      -285.0794
   5   2.0000     -10.448983      -284.3313
   6   2.0000     -10.448475      -284.3175
   7   2.0000     -10.447874      -284.3011
   8   2.0000     -10.447805      -284.2992
   9   2.0000     -10.446006      -284.2503
  10   2.0000     -10.445703      -284.2420
  11   2.0000     -10.445076      -284.2250
  12   2.0000     -10.444333      -284.2048
  13   2.0000     -10.443124      -284.1718
  14   2.0000     -10.442936      -284.1667
  15   2.0000     -10.405272      -283.1418
  16   2.0000      -5.910382      -160.8297
  17   2.0000      -5.910223      -160.8254
  18   2.0000      -5.910038      -160.8203
  19   2.0000      -5.909198      -160.7975
  20   2.0000      -5.909074      -160.7941
  21   2.0000      -2.451763       -66.7159
  22   2.0000      -1.286125       -34.9973
  23   2.0000      -1.285442       -34.9787
  24   2.0000      -1.279713       -34.8228
  25   2.0000      -0.977761       -26.6062
  26   2.0000      -0.971187       -26.4273
  27   2.0000      -0.790474       -21.5099
  28   2.0000      -0.789914       -21.4947
  29   2.0000      -0.788993       -21.4696
  30   2.0000      -0.786008       -21.3884
  31   2.0000      -0.763858       -20.7856
  32   2.0000      -0.715104       -19.4590
  33   2.0000      -0.608212       -16.5503
  34   2.0000      -0.607539       -16.5320
  35   2.0000      -0.604812       -16.4578
  36   2.0000      -0.603514       -16.4224
  37   2.0000      -0.590454       -16.0671
  38   2.0000      -0.585327       -15.9275
  39   2.0000      -0.577501       -15.7146
  40   2.0000      -0.576658       -15.6917
  41   2.0000      -0.576004       -15.6739
  42   2.0000      -0.575690       -15.6653
  43   2.0000      -0.575664       -15.6646
  44   2.0000      -0.574861       -15.6428
  45   2.0000      -0.573307       -15.6005
  46   2.0000      -0.467636       -12.7250
  47   2.0000      -0.460873       -12.5410
  48   2.0000      -0.458711       -12.4822
  49   2.0000      -0.449224       -12.2240
  50   2.0000      -0.447864       -12.1870
  51   2.0000      -0.446189       -12.1414
  52   2.0000      -0.443649       -12.0723
  53   2.0000      -0.433543       -11.7973
  54   2.0000      -0.431551       -11.7431
  55   2.0000      -0.427695       -11.6382
  56   2.0000      -0.427122       -11.6226
  57   2.0000      -0.423061       -11.5121
  58   2.0000      -0.410084       -11.1590
  59   2.0000      -0.401977       -10.9383
  60   2.0000      -0.382859       -10.4181
  61   2.0000      -0.289711        -7.8834
  62   2.0000      -0.281669        -7.6646
  63   2.0000      -0.276854        -7.5336
  64   2.0000      -0.263824        -7.1790
  65   2.0000      -0.254249        -6.9185
  66   0.0000      -0.045072        -1.2265
  67   0.0000       0.002107         0.0573
  68   0.0000       0.036823         1.0020
  69   0.0000       0.045954         1.2505
  70   0.0000       0.055585         1.5125

MULLIKEN ATOMIC CHARGES
-----------------------
   0 Lu:    0.683681
   1 C :   -0.344192
   2 C :   -0.232209
   3 C :   -0.309885
   4 C :   -0.305543
   5 C :   -0.240398
   6 H :    0.239551
   7 H :    0.247643
   8 H :    0.232084
   9 H :    0.234853
  10 H :    0.227375
  11 C :   -0.270785
  12 C :   -0.286984
  13 C :   -0.265496
  14 C :   -0.307900
  15 H :    0.242464
  16 C :   -0.285617
  17 H :    0.242812
  18 H :    0.229056
  19 H :    0.233354
  20 H :    0.235541
  21 C :   -0.866345
  22 H :    0.251924
  23 H :    0.248914
  24 H :    0.245371
  25 C :   -0.946167
  26 H :    0.218365
  27 H :    0.215279
  28 H :    0.218555
  29 H :    0.214698
Sum of atomic charges:    0.0000000

LOEWDIN ATOMIC CHARGES
----------------------
   0 Lu:   -0.112699
   1 C :   -0.156641
   2 C :   -0.145529
   3 C :   -0.141117
   4 C :   -0.154741
   5 C :   -0.134549
   6 H :    0.155284
   7 H :    0.160001
   8 H :    0.153653
   9 H :    0.151714
  10 H :    0.152615
  11 C :   -0.146543
  12 C :   -0.138661
  13 C :   -0.146875
  14 C :   -0.139480
  15 H :    0.156110
  16 C :   -0.146211
  17 H :    0.159271
  18 H :    0.152578
  19 H :    0.152548
  20 H :    0.153418
  21 C :   -0.478098
  22 H :    0.142032
  23 H :    0.150519
  24 H :    0.144100
  25 C :   -0.587371
  26 H :    0.255268
  27 H :    0.137761
  28 H :    0.126865
  29 H :    0.124776

  Mayer bond orders larger than 0.100000
B(  0-Lu,  1-C ) :   0.2636 B(  0-Lu,  2-C ) :   0.2480 B(  0-Lu,  3-C ) :   0.2558
B(  0-Lu,  4-C ) :   0.2757 B(  0-Lu,  5-C ) :   0.2386 B(  0-Lu, 11-C ) :   0.2720
B(  0-Lu, 12-C ) :   0.2498 B(  0-Lu, 13-C ) :   0.2578 B(  0-Lu, 14-C ) :   0.2630
B(  0-Lu, 16-C ) :   0.2644 B(  0-Lu, 21-C ) :   0.3208 B(  0-Lu, 25-C ) :   0.6369
B(  0-Lu, 26-H ) :   0.2846 B(  1-C ,  2-C ) :   1.2749 B(  1-C ,  5-C ) :   1.2982
B(  1-C ,  8-H ) :   0.9239 B(  2-C ,  3-C ) :   1.3113 B(  2-C ,  9-H ) :   0.9118
B(  3-C ,  4-C ) :   1.2740 B(  3-C , 10-H ) :   0.9230 B(  4-C ,  5-C ) :   1.2938
B(  4-C ,  6-H ) :   0.9138 B(  5-C ,  7-H ) :   0.9088 B( 11-C , 12-C ) :   1.2904
B( 11-C , 14-C ) :   1.2833 B( 11-C , 15-H ) :   0.9102 B( 12-C , 16-C ) :   1.2939
B( 12-C , 17-H ) :   0.9150 B( 13-C , 14-C ) :   1.2953 B( 13-C , 16-C ) :   1.2842
B( 13-C , 19-H ) :   0.9163 B( 14-C , 18-H ) :   0.9235 B( 16-C , 20-H ) :   0.9178
B( 21-C , 22-H ) :   0.8979 B( 21-C , 23-H ) :   0.9006 B( 21-C , 24-H ) :   0.9061
B( 21-C , 25-C ) :   0.1344 B( 21-C , 26-H ) :   0.5116 B( 25-C , 26-H ) :   0.1424
B( 25-C , 27-H ) :   0.8917 B( 25-C , 28-H ) :   0.9197 B( 25-C , 29-H ) :   0.9142

Dispersion correction           -0.017214275
FINAL SINGLE POINT ENERGY     -1702.260923505927
Dispersion correction            ... done

DIPOLE MOMENT
-------------
                                X             Y             Z
Electronic contribution:     -6.62366       5.42808      -0.44696
Nuclear contribution   :      6.66411      -5.99642       0.72953
                        -----------------------------------------
Total Dipole Moment    :      0.04045      -0.56833       0.28257
                        -----------------------------------------
Magnitude (a.u.)       :      0.63599
Magnitude (Debye)      :      1.61656

Rotational constants in cm-1:     0.027696     0.019194     0.016854
Rotational constants in MHz :   830.291245   575.417226   505.277299

                             ****ORCA TERMINATED NORMALLY****
TOTAL RUN TIME: 0 days 0 hours 9 minutes 42 seconds 948 msec
