                         Program Version 5.0.3 -  RELEASE  -
|  1> ! EnGrad PBEh-3c
|  2> %output
|  3> xyzfile=True
|  4> end
|  5> %scf
|  6> maxiter 250
|  7> end
|  8> %output
|  9> Print[P_Hirshfeld] = 1
| 10> end
| 11> % maxcore
| 12> 4000
| 13> *xyz 0 1
| 14> Lu  -0.08448196   0.09034859   0.00422048
| 15> C    0.44100155   0.79373194   2.51935661
| 16> C    1.47567838  -0.14568777   2.24721834
| 17> C    2.32536624   0.40808609   1.25397695
| 18> C    1.83660530   1.71645159   0.95749504
| 19> C    0.68105697   1.96365484   1.74915550
| 20> H    2.32421803   2.44186885   0.31804473
| 21> H    0.07023200   2.86064410   1.75018669
| 22> H   -0.33856010   0.67856073   3.26592202
| 23> H    1.58924860  -1.11565542   2.71374016
| 24> H    3.27658875  -0.00096777   0.94062121
| 25> C    0.91825769  -0.10713596  -2.47155526
| 26> C   -0.35397902  -0.73663778  -2.48792770
| 27> C    1.08963093  -2.03454159  -1.23578927
| 28> C    1.79943896  -0.89194903  -1.68639195
| 29> H    1.17377825   0.80196885  -3.00264379
| 30> C   -0.24219460  -1.92480376  -1.72599998
| 31> H   -1.24601437  -0.38233944  -2.99300683
| 32> H    2.87197328  -0.76326181  -1.62779980
| 33> H    1.50218570  -2.87722637  -0.69663706
| 34> H   -1.03661635  -2.64400601  -1.55670874
| 35> C   -2.35659389  -1.36552510   1.16410155
| 36> H   -2.28176936  -1.27813974   2.26979229
| 37> H   -1.98424782  -2.42048870   1.01308725
| 38> H   -3.41647168  -1.34312824   0.89793774
| 39> C   -1.88561708   1.80788636  -0.80124674
| 40> H   -1.98408316  -0.05350476   0.38399736
| 41> H   -1.14987090   2.48346614  -1.25532825
| 42> H   -2.50478473   2.52323705  -0.23488951
| 43> H   -2.51530316   1.52851991  -1.65675348
| 44> *
| 45>
| 46>                          ****END OF INPUT****

CARTESIAN COORDINATES (ANGSTROEM)
---------------------------------
  Lu    -0.084482    0.090349    0.004220
  C      0.441002    0.793732    2.519357
  C      1.475678   -0.145688    2.247218
  C      2.325366    0.408086    1.253977
  C      1.836605    1.716452    0.957495
  C      0.681057    1.963655    1.749155
  H      2.324218    2.441869    0.318045
  H      0.070232    2.860644    1.750187
  H     -0.338560    0.678561    3.265922
  H      1.589249   -1.115655    2.713740
  H      3.276589   -0.000968    0.940621
  C      0.918258   -0.107136   -2.471555
  C     -0.353979   -0.736638   -2.487928
  C      1.089631   -2.034542   -1.235789
  C      1.799439   -0.891949   -1.686392
  H      1.173778    0.801969   -3.002644
  C     -0.242195   -1.924804   -1.726000
  H     -1.246014   -0.382339   -2.993007
  H      2.871973   -0.763262   -1.627800
  H      1.502186   -2.877226   -0.696637
  H     -1.036616   -2.644006   -1.556709
  C     -2.356594   -1.365525    1.164102
  H     -2.281769   -1.278140    2.269792
  H     -1.984248   -2.420489    1.013087
  H     -3.416472   -1.343128    0.897938
  C     -1.885617    1.807886   -0.801247
  H     -1.984083   -0.053505    0.383997
  H     -1.149871    2.483466   -1.255328
  H     -2.504785    2.523237   -0.234890
  H     -2.515303    1.528520   -1.656753

 Total Charge           Charge          ....    0
 Multiplicity           Mult            ....    1
 Number of Electrons    NEL             ....  132
 Basis Dimension        Dim             ....  295

ORBITAL ENERGIES
----------------

  NO   OCC          E(Eh)            E(eV)
   0   2.0000     -19.266415      -524.2658
   1   2.0000     -12.638142      -343.9013
   2   2.0000     -12.636759      -343.8637
   3   2.0000     -12.636552      -343.8581
   4   2.0000     -10.481977      -285.2291
   5   2.0000     -10.447026      -284.2780
   6   2.0000     -10.446232      -284.2564
   7   2.0000     -10.445524      -284.2372
   8   2.0000     -10.444965      -284.2220
   9   2.0000     -10.444754      -284.2162
  10   2.0000     -10.444479      -284.2087
  11   2.0000     -10.444328      -284.2046
  12   2.0000     -10.443932      -284.1938
  13   2.0000     -10.443303      -284.1767
  14   2.0000     -10.441540      -284.1287
  15   2.0000     -10.392269      -282.7880
  16   2.0000      -5.907504      -160.7514
  17   2.0000      -5.907358      -160.7474
  18   2.0000      -5.907026      -160.7383
  19   2.0000      -5.906328      -160.7194
  20   2.0000      -5.906173      -160.7151
  21   2.0000      -2.449044       -66.6419
  22   2.0000      -1.285320       -34.9753
  23   2.0000      -1.282299       -34.8931
  24   2.0000      -1.276910       -34.7465
  25   2.0000      -0.968206       -26.3462
  26   2.0000      -0.961693       -26.1690
  27   2.0000      -0.788231       -21.4489
  28   2.0000      -0.785621       -21.3778
  29   2.0000      -0.785355       -21.3706
  30   2.0000      -0.782819       -21.3016
  31   2.0000      -0.780383       -21.2353
  32   2.0000      -0.715387       -19.4667
  33   2.0000      -0.609583       -16.5876
  34   2.0000      -0.607065       -16.5191
  35   2.0000      -0.604927       -16.4609
  36   2.0000      -0.604471       -16.4485
  37   2.0000      -0.589417       -16.0388
  38   2.0000      -0.585102       -15.9214
  39   2.0000      -0.574547       -15.6342
  40   2.0000      -0.573799       -15.6139
  41   2.0000      -0.573667       -15.6103
  42   2.0000      -0.572948       -15.5907
  43   2.0000      -0.572875       -15.5887
  44   2.0000      -0.572065       -15.5667
  45   2.0000      -0.570664       -15.5286
  46   2.0000      -0.483448       -13.1553
  47   2.0000      -0.464112       -12.6291
  48   2.0000      -0.458033       -12.4637
  49   2.0000      -0.449391       -12.2286
  50   2.0000      -0.448203       -12.1962
  51   2.0000      -0.445341       -12.1183
  52   2.0000      -0.443323       -12.0634
  53   2.0000      -0.428154       -11.6506
  54   2.0000      -0.427507       -11.6331
  55   2.0000      -0.426483       -11.6052
  56   2.0000      -0.425873       -11.5886
  57   2.0000      -0.424819       -11.5599
  58   2.0000      -0.420866       -11.4524
  59   2.0000      -0.399104       -10.8602
  60   2.0000      -0.396111       -10.7787
  61   2.0000      -0.289772        -7.8851
  62   2.0000      -0.274819        -7.4782
  63   2.0000      -0.273459        -7.4412
  64   2.0000      -0.261875        -7.1260
  65   2.0000      -0.256004        -6.9662
  66   0.0000      -0.029317        -0.7977
  67   0.0000       0.013052         0.3552
  68   0.0000       0.037941         1.0324
  69   0.0000       0.047931         1.3043
  70   0.0000       0.050047         1.3618

MULLIKEN ATOMIC CHARGES
-----------------------
   0 Lu:    0.684750
   1 C :   -0.338943
   2 C :   -0.251119
   3 C :   -0.287333
   4 C :   -0.308041
   5 C :   -0.246237
   6 H :    0.234972
   7 H :    0.248874
   8 H :    0.233865
   9 H :    0.233105
  10 H :    0.225045
  11 C :   -0.280596
  12 C :   -0.276269
  13 C :   -0.276303
  14 C :   -0.289030
  15 H :    0.238832
  16 C :   -0.292467
  17 H :    0.246319
  18 H :    0.224078
  19 H :    0.230933
  20 H :    0.233003
  21 C :   -0.889363
  22 H :    0.259055
  23 H :    0.253852
  24 H :    0.271055
  25 C :   -0.982061
  26 H :    0.241477
  27 H :    0.219787
  28 H :    0.220517
  29 H :    0.218245
Sum of atomic charges:   -0.0000000

LOEWDIN ATOMIC CHARGES
----------------------
   0 Lu:   -0.117427
   1 C :   -0.160164
   2 C :   -0.149249
   3 C :   -0.136897
   4 C :   -0.149976
   5 C :   -0.138082
   6 H :    0.152448
   7 H :    0.160031
   8 H :    0.152348
   9 H :    0.149730
  10 H :    0.150045
  11 C :   -0.144936
  12 C :   -0.141391
  13 C :   -0.151722
  14 C :   -0.134820
  15 H :    0.153811
  16 C :   -0.151065
  17 H :    0.159925
  18 H :    0.149364
  19 H :    0.150884
  20 H :    0.150667
  21 C :   -0.460264
  22 H :    0.148974
  23 H :    0.157688
  24 H :    0.152429
  25 C :   -0.605261
  26 H :    0.257094
  27 H :    0.141972
  28 H :    0.127723
  29 H :    0.126122

  Mayer bond orders larger than 0.100000
B(  0-Lu,  1-C ) :   0.2705 B(  0-Lu,  2-C ) :   0.2498 B(  0-Lu,  3-C ) :   0.2383
B(  0-Lu,  4-C ) :   0.2693 B(  0-Lu,  5-C ) :   0.2399 B(  0-Lu, 11-C ) :   0.2677
B(  0-Lu, 12-C ) :   0.2465 B(  0-Lu, 13-C ) :   0.2570 B(  0-Lu, 14-C ) :   0.2489
B(  0-Lu, 16-C ) :   0.2711 B(  0-Lu, 21-C ) :   0.3090 B(  0-Lu, 25-C ) :   0.6989
B(  0-Lu, 26-H ) :   0.2495 B(  1-C ,  2-C ) :   1.2721 B(  1-C ,  5-C ) :   1.2933
B(  1-C ,  8-H ) :   0.9186 B(  2-C ,  3-C ) :   1.3154 B(  2-C ,  9-H ) :   0.9156
B(  3-C ,  4-C ) :   1.2894 B(  3-C , 10-H ) :   0.9278 B(  4-C ,  5-C ) :   1.2905
B(  4-C ,  6-H ) :   0.9199 B(  5-C ,  7-H ) :   0.9096 B( 11-C , 12-C ) :   1.2857
B( 11-C , 14-C ) :   1.2984 B( 11-C , 15-H ) :   0.9156 B( 12-C , 16-C ) :   1.2958
B( 12-C , 17-H ) :   0.9109 B( 13-C , 14-C ) :   1.3001 B( 13-C , 16-C ) :   1.2766
B( 13-C , 19-H ) :   0.9210 B( 14-C , 18-H ) :   0.9288 B( 16-C , 20-H ) :   0.9151
B( 21-C , 22-H ) :   0.8949 B( 21-C , 23-H ) :   0.8923 B( 21-C , 24-H ) :   0.8946
B( 21-C , 26-H ) :   0.5693 B( 25-C , 26-H ) :   0.1120 B( 25-C , 27-H ) :   0.8854
B( 25-C , 28-H ) :   0.9185 B( 25-C , 29-H ) :   0.9120

Dispersion correction           -0.017373555
FINAL SINGLE POINT ENERGY     -1702.289656409386
Dispersion correction            ... done

DIPOLE MOMENT
-------------
                                X             Y             Z
Electronic contribution:    -11.64912       4.43416       1.28573
Nuclear contribution   :     11.55746      -5.13790      -0.85677
                        -----------------------------------------
Total Dipole Moment    :     -0.09166      -0.70374       0.42896
                        -----------------------------------------
Magnitude (a.u.)       :      0.82925
Magnitude (Debye)      :      2.10778

Rotational constants in cm-1:     0.028016     0.019757     0.016971
Rotational constants in MHz :   839.893186   592.306136   508.769207

                             ****ORCA TERMINATED NORMALLY****
TOTAL RUN TIME: 0 days 0 hours 9 minutes 28 seconds 430 msec
