                         Program Version 5.0.3 -  RELEASE  -
|  1> ! EnGrad PBEh-3c
|  2> %output
|  3> xyzfile=True
|  4> end
|  5> %scf
|  6> maxiter 250
|  7> end
|  8> %output
|  9> Print[P_Hirshfeld] = 1
| 10> end
| 11> % maxcore
| 12> 4000
| 13> *xyz 0 1
| 14> Lu  -0.06455326   0.08936449   0.00310325
| 15> C    0.44083377   0.80024708   2.51322916
| 16> C    1.44743867  -0.15564745   2.23116333
| 17> C    2.31941559   0.41119970   1.24837843
| 18> C    1.83462281   1.71211638   0.93968476
| 19> C    0.67073962   1.95596377   1.73668134
| 20> H    2.33358140   2.43197908   0.32638875
| 21> H    0.07898177   2.85939505   1.74029512
| 22> H   -0.34793234   0.68025799   3.24899894
| 23> H    1.58985229  -1.10306394   2.71266987
| 24> H    3.25814638  -0.00386574   0.93691185
| 25> C    0.91728834  -0.08891740  -2.46071814
| 26> C   -0.35566046  -0.73627868  -2.48606670
| 27> C    1.07008728  -2.02399665  -1.21743984
| 28> C    1.80472610  -0.88412802  -1.68060582
| 29> H    1.18640637   0.78921906  -3.00625883
| 30> C   -0.24384635  -1.91442565  -1.72160957
| 31> H   -1.23746757  -0.36796279  -2.98632231
| 32> H    2.85816767  -0.76059081  -1.61919648
| 33> H    1.49933677  -2.86491728  -0.69903970
| 34> H   -1.03763540  -2.63712225  -1.55499799
| 35> C   -2.33503908  -1.31517811   1.13210683
| 36> H   -2.26976265  -1.24374007   2.23762085
| 37> H   -1.94032475  -2.32396917   0.96606780
| 38> H   -3.42123033  -1.33481240   0.91225804
| 39> C   -1.89017598   1.73583814  -0.75560429
| 40> H   -2.00971135  -0.05024488   0.35069218
| 41> H   -1.14668825   2.40535857  -1.20239353
| 42> H   -2.49412274   2.46270317  -0.19698350
| 43> H   -2.51542691   1.49389575  -1.62268623
| 44> *
| 45>
| 46>                          ****END OF INPUT****

CARTESIAN COORDINATES (ANGSTROEM)
---------------------------------
  Lu    -0.064553    0.089364    0.003103
  C      0.440834    0.800247    2.513229
  C      1.447439   -0.155647    2.231163
  C      2.319416    0.411200    1.248378
  C      1.834623    1.712116    0.939685
  C      0.670740    1.955964    1.736681
  H      2.333581    2.431979    0.326389
  H      0.078982    2.859395    1.740295
  H     -0.347932    0.680258    3.248999
  H      1.589852   -1.103064    2.712670
  H      3.258146   -0.003866    0.936912
  C      0.917288   -0.088917   -2.460718
  C     -0.355660   -0.736279   -2.486067
  C      1.070087   -2.023997   -1.217440
  C      1.804726   -0.884128   -1.680606
  H      1.186406    0.789219   -3.006259
  C     -0.243846   -1.914426   -1.721610
  H     -1.237468   -0.367963   -2.986322
  H      2.858168   -0.760591   -1.619196
  H      1.499337   -2.864917   -0.699040
  H     -1.037635   -2.637122   -1.554998
  C     -2.335039   -1.315178    1.132107
  H     -2.269763   -1.243740    2.237621
  H     -1.940325   -2.323969    0.966068
  H     -3.421230   -1.334812    0.912258
  C     -1.890176    1.735838   -0.755604
  H     -2.009711   -0.050245    0.350692
  H     -1.146688    2.405359   -1.202394
  H     -2.494123    2.462703   -0.196983
  H     -2.515427    1.493896   -1.622686

 Total Charge           Charge          ....    0
 Multiplicity           Mult            ....    1
 Number of Electrons    NEL             ....  132
 Basis Dimension        Dim             ....  295

ORBITAL ENERGIES
----------------

  NO   OCC          E(Eh)            E(eV)
   0   2.0000     -19.262853      -524.1689
   1   2.0000     -12.634556      -343.8037
   2   2.0000     -12.633302      -343.7696
   3   2.0000     -12.632886      -343.7583
   4   2.0000     -10.469470      -284.8888
   5   2.0000     -10.446811      -284.2722
   6   2.0000     -10.445617      -284.2397
   7   2.0000     -10.445504      -284.2366
   8   2.0000     -10.444935      -284.2211
   9   2.0000     -10.444913      -284.2205
  10   2.0000     -10.444345      -284.2051
  11   2.0000     -10.444163      -284.2001
  12   2.0000     -10.443651      -284.1862
  13   2.0000     -10.443184      -284.1735
  14   2.0000     -10.441725      -284.1338
  15   2.0000     -10.389689      -282.7178
  16   2.0000      -5.903940      -160.6544
  17   2.0000      -5.903835      -160.6515
  18   2.0000      -5.903354      -160.6384
  19   2.0000      -5.902731      -160.6215
  20   2.0000      -5.902604      -160.6180
  21   2.0000      -2.445612       -66.5485
  22   2.0000      -1.281861       -34.8812
  23   2.0000      -1.280024       -34.8312
  24   2.0000      -1.273997       -34.6672
  25   2.0000      -0.968623       -26.3576
  26   2.0000      -0.961935       -26.1756
  27   2.0000      -0.789991       -21.4967
  28   2.0000      -0.787390       -21.4260
  29   2.0000      -0.786381       -21.3985
  30   2.0000      -0.784500       -21.3473
  31   2.0000      -0.778786       -21.1918
  32   2.0000      -0.718834       -19.5605
  33   2.0000      -0.613266       -16.6878
  34   2.0000      -0.608971       -16.5710
  35   2.0000      -0.607564       -16.5327
  36   2.0000      -0.606226       -16.4962
  37   2.0000      -0.591806       -16.1038
  38   2.0000      -0.587642       -15.9906
  39   2.0000      -0.570996       -15.5376
  40   2.0000      -0.570316       -15.5191
  41   2.0000      -0.570250       -15.5173
  42   2.0000      -0.569459       -15.4958
  43   2.0000      -0.569381       -15.4936
  44   2.0000      -0.568549       -15.4710
  45   2.0000      -0.567278       -15.4364
  46   2.0000      -0.478690       -13.0258
  47   2.0000      -0.465207       -12.6589
  48   2.0000      -0.455060       -12.3828
  49   2.0000      -0.449903       -12.2425
  50   2.0000      -0.449049       -12.2192
  51   2.0000      -0.448707       -12.2099
  52   2.0000      -0.445703       -12.1282
  53   2.0000      -0.432060       -11.7569
  54   2.0000      -0.430037       -11.7019
  55   2.0000      -0.429464       -11.6863
  56   2.0000      -0.425281       -11.5725
  57   2.0000      -0.423503       -11.5241
  58   2.0000      -0.421100       -11.4587
  59   2.0000      -0.399356       -10.8670
  60   2.0000      -0.396881       -10.7997
  61   2.0000      -0.290287        -7.8991
  62   2.0000      -0.276581        -7.5261
  63   2.0000      -0.274891        -7.4802
  64   2.0000      -0.263938        -7.1821
  65   2.0000      -0.256578        -6.9818
  66   0.0000      -0.021180        -0.5764
  67   0.0000       0.021944         0.5971
  68   0.0000       0.039880         1.0852
  69   0.0000       0.050178         1.3654
  70   0.0000       0.051600         1.4041

MULLIKEN ATOMIC CHARGES
-----------------------
   0 Lu:    0.689067
   1 C :   -0.295918
   2 C :   -0.289663
   3 C :   -0.263720
   4 C :   -0.312625
   5 C :   -0.260787
   6 H :    0.234841
   7 H :    0.247588
   8 H :    0.235656
   9 H :    0.233543
  10 H :    0.226569
  11 C :   -0.302513
  12 C :   -0.260812
  13 C :   -0.296390
  14 C :   -0.269968
  15 H :    0.237886
  16 C :   -0.278399
  17 H :    0.246707
  18 H :    0.225873
  19 H :    0.230644
  20 H :    0.234449
  21 C :   -0.923428
  22 H :    0.256768
  23 H :    0.258282
  24 H :    0.266003
  25 C :   -1.002781
  26 H :    0.262001
  27 H :    0.222376
  28 H :    0.225932
  29 H :    0.222821
Sum of atomic charges:    0.0000000

LOEWDIN ATOMIC CHARGES
----------------------
   0 Lu:   -0.127514
   1 C :   -0.148292
   2 C :   -0.154327
   3 C :   -0.129384
   4 C :   -0.148923
   5 C :   -0.138675
   6 H :    0.152685
   7 H :    0.159444
   8 H :    0.153054
   9 H :    0.150867
  10 H :    0.149427
  11 C :   -0.145283
  12 C :   -0.137562
  13 C :   -0.153336
  14 C :   -0.129952
  15 H :    0.153177
  16 C :   -0.145534
  17 H :    0.159459
  18 H :    0.148758
  19 H :    0.151409
  20 H :    0.151688
  21 C :   -0.483976
  22 H :    0.147753
  23 H :    0.155071
  24 H :    0.152510
  25 C :   -0.613314
  26 H :    0.267475
  27 H :    0.145972
  28 H :    0.129560
  29 H :    0.127762

  Mayer bond orders larger than 0.100000
B(  0-Lu,  1-C ) :   0.2610 B(  0-Lu,  2-C ) :   0.2627 B(  0-Lu,  3-C ) :   0.2415
B(  0-Lu,  4-C ) :   0.2741 B(  0-Lu,  5-C ) :   0.2453 B(  0-Lu, 11-C ) :   0.2743
B(  0-Lu, 12-C ) :   0.2448 B(  0-Lu, 13-C ) :   0.2675 B(  0-Lu, 14-C ) :   0.2544
B(  0-Lu, 16-C ) :   0.2650 B(  0-Lu, 21-C ) :   0.3018 B(  0-Lu, 25-C ) :   0.6922
B(  0-Lu, 26-H ) :   0.2272 B(  1-C ,  2-C ) :   1.2737 B(  1-C ,  5-C ) :   1.3042
B(  1-C ,  8-H ) :   0.9167 B(  2-C ,  3-C ) :   1.3041 B(  2-C ,  9-H ) :   0.9192
B(  3-C ,  4-C ) :   1.2988 B(  3-C , 10-H ) :   0.9266 B(  4-C ,  5-C ) :   1.2761
B(  4-C ,  6-H ) :   0.9226 B(  5-C ,  7-H ) :   0.9117 B( 11-C , 12-C ) :   1.2791
B( 11-C , 14-C ) :   1.3013 B( 11-C , 15-H ) :   0.9192 B( 12-C , 16-C ) :   1.3030
B( 12-C , 17-H ) :   0.9100 B( 13-C , 14-C ) :   1.2909 B( 13-C , 16-C ) :   1.2755
B( 13-C , 19-H ) :   0.9234 B( 14-C , 18-H ) :   0.9286 B( 16-C , 20-H ) :   0.9150
B( 21-C , 22-H ) :   0.8968 B( 21-C , 23-H ) :   0.8865 B( 21-C , 24-H ) :   0.8999
B( 21-C , 26-H ) :   0.5738 B( 25-C , 26-H ) :   0.1189 B( 25-C , 27-H ) :   0.8788
B( 25-C , 28-H ) :   0.9159 B( 25-C , 29-H ) :   0.9105

Dispersion correction           -0.017540433
FINAL SINGLE POINT ENERGY     -1702.305505160193
Dispersion correction            ... done

DIPOLE MOMENT
-------------
                                X             Y             Z
Electronic contribution:    -10.49159       4.45426       1.17199
Nuclear contribution   :     10.51139      -5.06595      -0.79377
                        -----------------------------------------
Total Dipole Moment    :      0.01980      -0.61169       0.37822
                        -----------------------------------------
Magnitude (a.u.)       :      0.71945
Magnitude (Debye)      :      1.82870

Rotational constants in cm-1:     0.028618     0.020100     0.017154
Rotational constants in MHz :   857.941512   602.593396   514.249000

                             ****ORCA TERMINATED NORMALLY****
TOTAL RUN TIME: 0 days 0 hours 10 minutes 10 seconds 76 msec
