                         Program Version 5.0.3 -  RELEASE  -
|  1> ! EnGrad PBEh-3c
|  2> %output
|  3> xyzfile=True
|  4> end
|  5> %scf
|  6> maxiter 250
|  7> end
|  8> %output
|  9> Print[P_Hirshfeld] = 1
| 10> end
| 11> % maxcore
| 12> 4000
| 13> *xyz 0 1
| 14> Lu   0.02445179   0.09679204  -0.01423553
| 15> C    0.42400875   0.81855175   2.50315906
| 16> C    1.39983768  -0.15865620   2.18676808
| 17> C    2.30368427   0.41700068   1.25601788
| 18> C    1.82825635   1.70088684   0.92361020
| 19> C    0.66552982   1.95569819   1.69827275
| 20> H    2.36707904   2.41939809   0.33459588
| 21> H    0.10892774   2.86395491   1.71389453
| 22> H   -0.36323089   0.70435134   3.21037807
| 23> H    1.56876258  -1.08012163   2.70843202
| 24> H    3.21915444  -0.01730205   0.93390225
| 25> C    0.92125505  -0.08018245  -2.43646701
| 26> C   -0.34178571  -0.71597073  -2.48785801
| 27> C    1.05391075  -1.98970464  -1.19101401
| 28> C    1.78129546  -0.88351161  -1.68506173
| 29> H    1.22366741   0.77797247  -3.02449162
| 30> C   -0.26603934  -1.89174832  -1.71600456
| 31> H   -1.21067615  -0.33722708  -2.98847820
| 32> H    2.85182485  -0.75789888  -1.59634321
| 33> H    1.47705470  -2.83494638  -0.69719871
| 34> H   -1.04128485  -2.60964456  -1.56298382
| 35> C   -2.33593763  -1.20427487   1.07984877
| 36> H   -2.23941590  -1.18866740   2.18446161
| 37> H   -1.87596542  -2.18627075   0.87154388
| 38> H   -3.40312528  -1.32731319   0.95434732
| 39> C   -1.89894173   1.59418088  -0.66825225
| 40> H   -2.08340200  -0.05424136   0.30376289
| 41> H   -1.14064561   2.25924359  -1.10781415
| 42> H   -2.47793585   2.32807228  -0.09927316
| 43> H   -2.52735838   1.40974614  -1.54247476
| 44> *
| 45>
| 46>                          ****END OF INPUT****

CARTESIAN COORDINATES (ANGSTROEM)
---------------------------------
  Lu     0.024452    0.096792   -0.014236
  C      0.424009    0.818552    2.503159
  C      1.399838   -0.158656    2.186768
  C      2.303684    0.417001    1.256018
  C      1.828256    1.700887    0.923610
  C      0.665530    1.955698    1.698273
  H      2.367079    2.419398    0.334596
  H      0.108928    2.863955    1.713895
  H     -0.363231    0.704351    3.210378
  H      1.568763   -1.080122    2.708432
  H      3.219154   -0.017302    0.933902
  C      0.921255   -0.080182   -2.436467
  C     -0.341786   -0.715971   -2.487858
  C      1.053911   -1.989705   -1.191014
  C      1.781295   -0.883512   -1.685062
  H      1.223667    0.777972   -3.024492
  C     -0.266039   -1.891748   -1.716005
  H     -1.210676   -0.337227   -2.988478
  H      2.851825   -0.757899   -1.596343
  H      1.477055   -2.834946   -0.697199
  H     -1.041285   -2.609645   -1.562984
  C     -2.335938   -1.204275    1.079849
  H     -2.239416   -1.188667    2.184462
  H     -1.875965   -2.186271    0.871544
  H     -3.403125   -1.327313    0.954347
  C     -1.898942    1.594181   -0.668252
  H     -2.083402   -0.054241    0.303763
  H     -1.140646    2.259244   -1.107814
  H     -2.477936    2.328072   -0.099273
  H     -2.527358    1.409746   -1.542475

 Total Charge           Charge          ....    0
 Multiplicity           Mult            ....    1
 Number of Electrons    NEL             ....  132
 Basis Dimension        Dim             ....  295

ORBITAL ENERGIES
----------------

  NO   OCC          E(Eh)            E(eV)
   0   2.0000     -19.256733      -524.0024
   1   2.0000     -12.628440      -343.6373
   2   2.0000     -12.627281      -343.6058
   3   2.0000     -12.626610      -343.5875
   4   2.0000     -10.447264      -284.2845
   5   2.0000     -10.446920      -284.2752
   6   2.0000     -10.445885      -284.2470
   7   2.0000     -10.445112      -284.2260
   8   2.0000     -10.445000      -284.2229
   9   2.0000     -10.444916      -284.2206
  10   2.0000     -10.444228      -284.2019
  11   2.0000     -10.442934      -284.1667
  12   2.0000     -10.442720      -284.1609
  13   2.0000     -10.442043      -284.1424
  14   2.0000     -10.441660      -284.1320
  15   2.0000     -10.381461      -282.4939
  16   2.0000      -5.897832      -160.4882
  17   2.0000      -5.897762      -160.4863
  18   2.0000      -5.897105      -160.4684
  19   2.0000      -5.896514      -160.4523
  20   2.0000      -5.896416      -160.4496
  21   2.0000      -2.439811       -66.3906
  22   2.0000      -1.277342       -34.7582
  23   2.0000      -1.276193       -34.7270
  24   2.0000      -1.269073       -34.5332
  25   2.0000      -0.977839       -26.6084
  26   2.0000      -0.969405       -26.3788
  27   2.0000      -0.796014       -21.6606
  28   2.0000      -0.793222       -21.5847
  29   2.0000      -0.791747       -21.5445
  30   2.0000      -0.790387       -21.5075
  31   2.0000      -0.770644       -20.9703
  32   2.0000      -0.719349       -19.5745
  33   2.0000      -0.616146       -16.7662
  34   2.0000      -0.614793       -16.7294
  35   2.0000      -0.613353       -16.6902
  36   2.0000      -0.607862       -16.5408
  37   2.0000      -0.597824       -16.2676
  38   2.0000      -0.593094       -16.1389
  39   2.0000      -0.565111       -15.3774
  40   2.0000      -0.564248       -15.3540
  41   2.0000      -0.564196       -15.3525
  42   2.0000      -0.563333       -15.3291
  43   2.0000      -0.563210       -15.3257
  44   2.0000      -0.562438       -15.3047
  45   2.0000      -0.561213       -15.2714
  46   2.0000      -0.471452       -12.8289
  47   2.0000      -0.464907       -12.6508
  48   2.0000      -0.456793       -12.4300
  49   2.0000      -0.454417       -12.3653
  50   2.0000      -0.452317       -12.3082
  51   2.0000      -0.451207       -12.2780
  52   2.0000      -0.439617       -11.9626
  53   2.0000      -0.434948       -11.8355
  54   2.0000      -0.433171       -11.7872
  55   2.0000      -0.431661       -11.7461
  56   2.0000      -0.429225       -11.6798
  57   2.0000      -0.428373       -11.6566
  58   2.0000      -0.423861       -11.5339
  59   2.0000      -0.397043       -10.8041
  60   2.0000      -0.395369       -10.7585
  61   2.0000      -0.291869        -7.9422
  62   2.0000      -0.284053        -7.7295
  63   2.0000      -0.280331        -7.6282
  64   2.0000      -0.264179        -7.1887
  65   2.0000      -0.257318        -7.0020
  66   0.0000      -0.016298        -0.4435
  67   0.0000       0.024993         0.6801
  68   0.0000       0.044154         1.2015
  69   0.0000       0.054419         1.4808
  70   0.0000       0.057903         1.5756

MULLIKEN ATOMIC CHARGES
-----------------------
   0 Lu:    0.720463
   1 C :   -0.227057
   2 C :   -0.357412
   3 C :   -0.218561
   4 C :   -0.328771
   5 C :   -0.276522
   6 H :    0.236212
   7 H :    0.246298
   8 H :    0.241241
   9 H :    0.233060
  10 H :    0.233467
  11 C :   -0.336395
  12 C :   -0.227623
  13 C :   -0.328818
  14 C :   -0.234966
  15 H :    0.237227
  16 C :   -0.267814
  17 H :    0.247117
  18 H :    0.230804
  19 H :    0.231930
  20 H :    0.238643
  21 C :   -0.977974
  22 H :    0.247287
  23 H :    0.241579
  24 H :    0.267054
  25 C :   -1.039931
  26 H :    0.290695
  27 H :    0.218850
  28 H :    0.231548
  29 H :    0.228372
Sum of atomic charges:   -0.0000000

LOEWDIN ATOMIC CHARGES
----------------------
   0 Lu:   -0.128786
   1 C :   -0.127827
   2 C :   -0.156861
   3 C :   -0.119507
   4 C :   -0.147745
   5 C :   -0.131899
   6 H :    0.155469
   7 H :    0.158589
   8 H :    0.154505
   9 H :    0.153345
  10 H :    0.151097
  11 C :   -0.149211
  12 C :   -0.122687
  13 C :   -0.154612
  14 C :   -0.122120
  15 H :    0.156157
  16 C :   -0.135386
  17 H :    0.158622
  18 H :    0.151130
  19 H :    0.153017
  20 H :    0.153063
  21 C :   -0.534799
  22 H :    0.143108
  23 H :    0.147946
  24 H :    0.148159
  25 C :   -0.638345
  26 H :    0.275879
  27 H :    0.149730
  28 H :    0.131026
  29 H :    0.128943

  Mayer bond orders larger than 0.100000
B(  0-Lu,  1-C ) :   0.2491 B(  0-Lu,  2-C ) :   0.2856 B(  0-Lu,  3-C ) :   0.2532
B(  0-Lu,  4-C ) :   0.2895 B(  0-Lu,  5-C ) :   0.2491 B(  0-Lu, 11-C ) :   0.2884
B(  0-Lu, 12-C ) :   0.2368 B(  0-Lu, 13-C ) :   0.2900 B(  0-Lu, 14-C ) :   0.2648
B(  0-Lu, 16-C ) :   0.2621 B(  0-Lu, 21-C ) :   0.2507 B(  0-Lu, 25-C ) :   0.6737
B(  0-Lu, 26-H ) :   0.1687 B(  1-C ,  2-C ) :   1.2681 B(  1-C ,  5-C ) :   1.3173
B(  1-C ,  8-H ) :   0.9143 B(  2-C ,  3-C ) :   1.2884 B(  2-C ,  9-H ) :   0.9252
B(  3-C ,  4-C ) :   1.2914 B(  3-C , 10-H ) :   0.9215 B(  4-C ,  5-C ) :   1.2656
B(  4-C ,  6-H ) :   0.9244 B(  5-C ,  7-H ) :   0.9161 B( 11-C , 12-C ) :   1.2724
B( 11-C , 14-C ) :   1.2900 B( 11-C , 15-H ) :   0.9222 B( 12-C , 16-C ) :   1.3236
B( 12-C , 17-H ) :   0.9095 B( 13-C , 14-C ) :   1.2821 B( 13-C , 16-C ) :   1.2629
B( 13-C , 19-H ) :   0.9262 B( 14-C , 18-H ) :   0.9232 B( 16-C , 20-H ) :   0.9159
B( 21-C , 22-H ) :   0.9029 B( 21-C , 23-H ) :   0.8906 B( 21-C , 24-H ) :   0.9017
B( 21-C , 26-H ) :   0.6091 B( 25-C , 26-H ) :   0.1277 B( 25-C , 27-H ) :   0.8660
B( 25-C , 28-H ) :   0.9123 B( 25-C , 29-H ) :   0.9081

Dispersion correction           -0.017871981
FINAL SINGLE POINT ENERGY     -1702.332951595483
Dispersion correction            ... done

DIPOLE MOMENT
-------------
                                X             Y             Z
Electronic contribution:     -5.56627       4.87726       0.20874
Nuclear contribution   :      5.91683      -5.33998       0.06831
                        -----------------------------------------
Total Dipole Moment    :      0.35056      -0.46272       0.27705
                        -----------------------------------------
Magnitude (a.u.)       :      0.64324
Magnitude (Debye)      :      1.63499

Rotational constants in cm-1:     0.029930     0.020751     0.017492
Rotational constants in MHz :   897.272914   622.099759   524.393720

                             ****ORCA TERMINATED NORMALLY****
TOTAL RUN TIME: 0 days 0 hours 10 minutes 19 seconds 357 msec
