                         Program Version 5.0.3 -  RELEASE  -
|  1> ! EnGrad PBEh-3c
|  2> %output
|  3> xyzfile=True
|  4> end
|  5> %scf
|  6> maxiter 250
|  7> end
|  8> %output
|  9> Print[P_Hirshfeld] = 1
| 10> end
| 11> % maxcore
| 12> 4000
| 13> *xyz 0 1
| 14> Lu  -0.03685307   0.09167609  -0.00229293
| 15> C    0.43559748   0.80594387   2.51009514
| 16> C    1.43262427  -0.15658383   2.21734662
| 17> C    2.31451969   0.41300508   1.25075598
| 18> C    1.83264144   1.70862152   0.93468203
| 19> C    0.66911823   1.95588112   1.72472781
| 20> H    2.34400655   2.42806362   0.32894298
| 21> H    0.08830156   2.86081417   1.73207872
| 22> H   -0.35269356   0.68775633   3.23697934
| 23> H    1.58328874  -1.09592382   2.71135096
| 24> H    3.24601129  -0.00804739   0.93597520
| 25> C    0.91852286  -0.08619891  -2.45317070
| 26> C   -0.35134235  -0.72995843  -2.48662419
| 27> C    1.06505281  -2.01332428  -1.20921558
| 28> C    1.79743401  -0.88393618  -1.68199259
| 29> H    1.19800276   0.78571889  -3.01193324
| 30> C   -0.25075326  -1.90736801  -1.71986518
| 31> H   -1.22912953  -0.35839721  -2.98699326
| 32> H    2.85619365  -0.75975302  -1.61208408
| 33> H    1.49240214  -2.85558973  -0.69846675
| 34> H   -1.03877119  -2.62857063  -1.55748334
| 35> C   -2.33531872  -1.28066276   1.11584306
| 36> H   -2.26031812  -1.22660034   2.22107661
| 37> H   -1.92029481  -2.28111462   0.93665003
| 38> H   -3.41559567  -1.33247849   0.92535708
| 39> C   -1.89290406   1.69175151  -0.72841855
| 40> H   -2.03264538  -0.05148866   0.33608683
| 41> H   -1.14480766   2.35988461  -1.17295850
| 42> H   -2.48908505   2.42080329  -0.16657405
| 43> H   -2.51914023   1.46770668  -1.59772278
| 44> *
| 45>
| 46>                          ****END OF INPUT****

CARTESIAN COORDINATES (ANGSTROEM)
---------------------------------
  Lu    -0.036853    0.091676   -0.002293
  C      0.435597    0.805944    2.510095
  C      1.432624   -0.156584    2.217347
  C      2.314520    0.413005    1.250756
  C      1.832641    1.708622    0.934682
  C      0.669118    1.955881    1.724728
  H      2.344007    2.428064    0.328943
  H      0.088302    2.860814    1.732079
  H     -0.352694    0.687756    3.236979
  H      1.583289   -1.095924    2.711351
  H      3.246011   -0.008047    0.935975
  C      0.918523   -0.086199   -2.453171
  C     -0.351342   -0.729958   -2.486624
  C      1.065053   -2.013324   -1.209216
  C      1.797434   -0.883936   -1.681993
  H      1.198003    0.785719   -3.011933
  C     -0.250753   -1.907368   -1.719865
  H     -1.229130   -0.358397   -2.986993
  H      2.856194   -0.759753   -1.612084
  H      1.492402   -2.855590   -0.698467
  H     -1.038771   -2.628571   -1.557483
  C     -2.335319   -1.280663    1.115843
  H     -2.260318   -1.226600    2.221077
  H     -1.920295   -2.281115    0.936650
  H     -3.415596   -1.332478    0.925357
  C     -1.892904    1.691752   -0.728419
  H     -2.032645   -0.051489    0.336087
  H     -1.144808    2.359885   -1.172959
  H     -2.489085    2.420803   -0.166574
  H     -2.519140    1.467707   -1.597723

 Total Charge           Charge          ....    0
 Multiplicity           Mult            ....    1
 Number of Electrons    NEL             ....  132
 Basis Dimension        Dim             ....  295

ORBITAL ENERGIES
----------------

  NO   OCC          E(Eh)            E(eV)
   0   2.0000     -19.260842      -524.1142
   1   2.0000     -12.632548      -343.7491
   2   2.0000     -12.631336      -343.7161
   3   2.0000     -12.630820      -343.7021
   4   2.0000     -10.460774      -284.6521
   5   2.0000     -10.446924      -284.2753
   6   2.0000     -10.445745      -284.2432
   7   2.0000     -10.445582      -284.2387
   8   2.0000     -10.445166      -284.2274
   9   2.0000     -10.444809      -284.2177
  10   2.0000     -10.444374      -284.2059
  11   2.0000     -10.443980      -284.1951
  12   2.0000     -10.443811      -284.1905
  13   2.0000     -10.442877      -284.1651
  14   2.0000     -10.441879      -284.1380
  15   2.0000     -10.387182      -282.6496
  16   2.0000      -5.901940      -160.5999
  17   2.0000      -5.901850      -160.5975
  18   2.0000      -5.901302      -160.5826
  19   2.0000      -5.900693      -160.5660
  20   2.0000      -5.900581      -160.5630
  21   2.0000      -2.443687       -66.4961
  22   2.0000      -1.279883       -34.8274
  23   2.0000      -1.279012       -34.8037
  24   2.0000      -1.272308       -34.6213
  25   2.0000      -0.971468       -26.4350
  26   2.0000      -0.964295       -26.2398
  27   2.0000      -0.791838       -21.5470
  28   2.0000      -0.789139       -21.4736
  29   2.0000      -0.788080       -21.4448
  30   2.0000      -0.786375       -21.3984
  31   2.0000      -0.776433       -21.1278
  32   2.0000      -0.719016       -19.5654
  33   2.0000      -0.613630       -16.6977
  34   2.0000      -0.610797       -16.6206
  35   2.0000      -0.608441       -16.5565
  36   2.0000      -0.608093       -16.5470
  37   2.0000      -0.593676       -16.1547
  38   2.0000      -0.589437       -16.0394
  39   2.0000      -0.569048       -15.4846
  40   2.0000      -0.568333       -15.4651
  41   2.0000      -0.568277       -15.4636
  42   2.0000      -0.567469       -15.4416
  43   2.0000      -0.567353       -15.4385
  44   2.0000      -0.566553       -15.4167
  45   2.0000      -0.565305       -15.3827
  46   2.0000      -0.474943       -12.9239
  47   2.0000      -0.466549       -12.6954
  48   2.0000      -0.453691       -12.3456
  49   2.0000      -0.451573       -12.2879
  50   2.0000      -0.449886       -12.2420
  51   2.0000      -0.449613       -12.2346
  52   2.0000      -0.443851       -12.0778
  53   2.0000      -0.432814       -11.7775
  54   2.0000      -0.431574       -11.7437
  55   2.0000      -0.429826       -11.6962
  56   2.0000      -0.427530       -11.6337
  57   2.0000      -0.425942       -11.5905
  58   2.0000      -0.422437       -11.4951
  59   2.0000      -0.398674       -10.8485
  60   2.0000      -0.396447       -10.7879
  61   2.0000      -0.290844        -7.9143
  62   2.0000      -0.278761        -7.5855
  63   2.0000      -0.276679        -7.5288
  64   2.0000      -0.262564        -7.1447
  65   2.0000      -0.258789        -7.0420
  66   0.0000      -0.017882        -0.4866
  67   0.0000       0.025225         0.6864
  68   0.0000       0.041438         1.1276
  69   0.0000       0.051538         1.4024
  70   0.0000       0.054602         1.4858

MULLIKEN ATOMIC CHARGES
-----------------------
   0 Lu:    0.697914
   1 C :   -0.274057
   2 C :   -0.310837
   3 C :   -0.249387
   4 C :   -0.317544
   5 C :   -0.265669
   6 H :    0.235224
   7 H :    0.247220
   8 H :    0.237302
   9 H :    0.233531
  10 H :    0.228666
  11 C :   -0.312814
  12 C :   -0.250287
  13 C :   -0.306290
  14 C :   -0.259254
  15 H :    0.237661
  16 C :   -0.275069
  17 H :    0.246769
  18 H :    0.227450
  19 H :    0.231055
  20 H :    0.235755
  21 C :   -0.941936
  22 H :    0.253987
  23 H :    0.253325
  24 H :    0.266680
  25 C :   -1.014678
  26 H :    0.271548
  27 H :    0.221364
  28 H :    0.227695
  29 H :    0.224673
Sum of atomic charges:    0.0000000

LOEWDIN ATOMIC CHARGES
----------------------
   0 Lu:   -0.128368
   1 C :   -0.142115
   2 C :   -0.155010
   3 C :   -0.126289
   4 C :   -0.148531
   5 C :   -0.136533
   6 H :    0.153516
   7 H :    0.159170
   8 H :    0.153570
   9 H :    0.151624
  10 H :    0.149937
  11 C :   -0.146506
  12 C :   -0.132875
  13 C :   -0.153677
  14 C :   -0.127509
  15 H :    0.154074
  16 C :   -0.142503
  17 H :    0.159187
  18 H :    0.149516
  19 H :    0.151885
  20 H :    0.152155
  21 C :   -0.500324
  22 H :    0.146271
  23 H :    0.152901
  24 H :    0.151056
  25 C :   -0.621311
  26 H :    0.271264
  27 H :    0.147226
  28 H :    0.130042
  29 H :    0.128160

  Mayer bond orders larger than 0.100000
B(  0-Lu,  1-C ) :   0.2578 B(  0-Lu,  2-C ) :   0.2698 B(  0-Lu,  3-C ) :   0.2455
B(  0-Lu,  4-C ) :   0.2791 B(  0-Lu,  5-C ) :   0.2467 B(  0-Lu, 11-C ) :   0.2789
B(  0-Lu, 12-C ) :   0.2423 B(  0-Lu, 13-C ) :   0.2747 B(  0-Lu, 14-C ) :   0.2581
B(  0-Lu, 16-C ) :   0.2644 B(  0-Lu, 21-C ) :   0.2865 B(  0-Lu, 25-C ) :   0.6871
B(  0-Lu, 26-H ) :   0.2085 B(  1-C ,  2-C ) :   1.2725 B(  1-C ,  5-C ) :   1.3082
B(  1-C ,  8-H ) :   0.9161 B(  2-C ,  3-C ) :   1.3001 B(  2-C ,  9-H ) :   0.9211
B(  3-C ,  4-C ) :   1.2963 B(  3-C , 10-H ) :   0.9252 B(  4-C ,  5-C ) :   1.2732
B(  4-C ,  6-H ) :   0.9232 B(  5-C ,  7-H ) :   0.9130 B( 11-C , 12-C ) :   1.2771
B( 11-C , 14-C ) :   1.2979 B( 11-C , 15-H ) :   0.9202 B( 12-C , 16-C ) :   1.3094
B( 12-C , 17-H ) :   0.9099 B( 13-C , 14-C ) :   1.2885 B( 13-C , 16-C ) :   1.2714
B( 13-C , 19-H ) :   0.9242 B( 14-C , 18-H ) :   0.9269 B( 16-C , 20-H ) :   0.9153
B( 21-C , 22-H ) :   0.8987 B( 21-C , 23-H ) :   0.8878 B( 21-C , 24-H ) :   0.9002
B( 21-C , 26-H ) :   0.5857 B( 25-C , 26-H ) :   0.1210 B( 25-C , 27-H ) :   0.8754
B( 25-C , 28-H ) :   0.9148 B( 25-C , 29-H ) :   0.9098

Dispersion correction           -0.017638593
FINAL SINGLE POINT ENERGY     -1702.317175745982
Dispersion correction            ... done

DIPOLE MOMENT
-------------
                                X             Y             Z
Electronic contribution:     -8.95808       4.58708       0.87217
Nuclear contribution   :      9.08147      -5.15124      -0.52547
                        -----------------------------------------
Total Dipole Moment    :      0.12339      -0.56415       0.34670
                        -----------------------------------------
Magnitude (a.u.)       :      0.67357
Magnitude (Debye)      :      1.71208

Rotational constants in cm-1:     0.029030     0.020302     0.017261
Rotational constants in MHz :   870.300131   608.641453   517.480436

                             ****ORCA TERMINATED NORMALLY****
TOTAL RUN TIME: 0 days 0 hours 10 minutes 13 seconds 516 msec
