                         Program Version 5.0.3 -  RELEASE  -
|  1> ! EnGrad PBEh-3c
|  2> %output
|  3> xyzfile=True
|  4> end
|  5> %scf
|  6> maxiter 250
|  7> end
|  8> %output
|  9> Print[P_Hirshfeld] = 1
| 10> end
| 11> % maxcore
| 12> 4000
| 13> *xyz -1 1
| 14> Pd  -2.36558733  -1.64280019   0.82210107
| 15> Cl  -3.95082443  -3.10105842   0.05400629
| 16> Cl  -1.20954338  -3.90658180   1.81468959
| 17> Cl  -3.56747181   0.13561075   0.02823874
| 18> N   -0.90232702  -0.25873058   1.43883626
| 19> C   -1.18651535   0.25362225   2.62045718
| 20> C   -0.69892073   1.48595116   3.05819540
| 21> C    0.07921568   2.21139046   2.19497926
| 22> C   -0.05974151   0.38594330   0.60548296
| 23> C    0.41465012   1.66987890   0.94759967
| 24> H    0.44148893   3.19300117   2.47661958
| 25> H   -1.85798927  -0.31637546   3.24812480
| 26> H   -0.96600445   1.85550268   4.03738674
| 27> C    0.38764456  -0.25006569  -0.61027016
| 28> C    1.21077483   2.40212201   0.01569274
| 29> C    1.53373416   1.86179656  -1.17775623
| 30> C    1.15899888   0.52242825  -1.50781066
| 31> H    1.53610462   3.40179579   0.27480189
| 32> H    2.11994034   2.43409940  -1.88652727
| 33> C    0.13941551  -1.59853728  -0.91740148
| 34> C    1.60880011  -0.04878046  -2.70740638
| 35> C    0.61164008  -2.13442551  -2.09714581
| 36> C    1.33962918  -1.36026886  -3.00280181
| 37> H    2.18693238   0.54600184  -3.40424164
| 38> H    1.69685133  -1.79386501  -3.92823584
| 39> H   -0.14672678  -2.76962707  -0.05978767
| 40> H    0.44582330  -3.17802821  -2.33783527
| 41> *
| 42>
| 43>                          ****END OF INPUT****

CARTESIAN COORDINATES (ANGSTROEM)
---------------------------------
  Pd    -2.365587   -1.642800    0.822101
  Cl    -3.950824   -3.101058    0.054006
  Cl    -1.209543   -3.906582    1.814690
  Cl    -3.567472    0.135611    0.028239
  N     -0.902327   -0.258731    1.438836
  C     -1.186515    0.253622    2.620457
  C     -0.698921    1.485951    3.058195
  C      0.079216    2.211390    2.194979
  C     -0.059742    0.385943    0.605483
  C      0.414650    1.669879    0.947600
  H      0.441489    3.193001    2.476620
  H     -1.857989   -0.316375    3.248125
  H     -0.966004    1.855503    4.037387
  C      0.387645   -0.250066   -0.610270
  C      1.210775    2.402122    0.015693
  C      1.533734    1.861797   -1.177756
  C      1.158999    0.522428   -1.507811
  H      1.536105    3.401796    0.274802
  H      2.119940    2.434099   -1.886527
  C      0.139416   -1.598537   -0.917401
  C      1.608800   -0.048780   -2.707406
  C      0.611640   -2.134426   -2.097146
  C      1.339629   -1.360269   -3.002802
  H      2.186932    0.546002   -3.404242
  H      1.696851   -1.793865   -3.928236
  H     -0.146727   -2.769627   -0.059788
  H      0.445823   -3.178028   -2.337835

 Total Charge           Charge          ....   -1
 Multiplicity           Mult            ....    1
 Number of Electrons    NEL             ....  164
 Basis Dimension        Dim             ....  313

ORBITAL ENERGIES
----------------

  NO   OCC          E(Eh)            E(eV)
   0   2.0000    -102.091286     -2778.0451
   1   2.0000    -102.075282     -2777.6096
   2   2.0000    -102.058628     -2777.1564
   3   2.0000     -14.596440      -397.1893
   4   2.0000     -10.421423      -283.5813
   5   2.0000     -10.412398      -283.3357
   6   2.0000     -10.397847      -282.9398
   7   2.0000     -10.392670      -282.7989
   8   2.0000     -10.383827      -282.5583
   9   2.0000     -10.383093      -282.5383
  10   2.0000     -10.382313      -282.5171
  11   2.0000     -10.382046      -282.5098
  12   2.0000     -10.381467      -282.4941
  13   2.0000     -10.375630      -282.3353
  14   2.0000     -10.367797      -282.1221
  15   2.0000     -10.366392      -282.0839
  16   2.0000     -10.356227      -281.8073
  17   2.0000      -9.555282      -260.0124
  18   2.0000      -9.539656      -259.5872
  19   2.0000      -9.520724      -259.0721
  20   2.0000      -7.241529      -197.0520
  21   2.0000      -7.236101      -196.9043
  22   2.0000      -7.235853      -196.8976
  23   2.0000      -7.226124      -196.6328
  24   2.0000      -7.220394      -196.4769
  25   2.0000      -7.219925      -196.4641
  26   2.0000      -7.205670      -196.0763
  27   2.0000      -7.202762      -195.9971
  28   2.0000      -7.202029      -195.9772
  29   2.0000      -3.511403       -95.5501
  30   2.0000      -2.160454       -58.7889
  31   2.0000      -2.152846       -58.5819
  32   2.0000      -2.122534       -57.7571
  33   2.0000      -0.994357       -27.0578
  34   2.0000      -0.897214       -24.4144
  35   2.0000      -0.856670       -23.3112
  36   2.0000      -0.823590       -22.4110
  37   2.0000      -0.789311       -21.4782
  38   2.0000      -0.755630       -20.5617
  39   2.0000      -0.734475       -19.9861
  40   2.0000      -0.682469       -18.5709
  41   2.0000      -0.663884       -18.0652
  42   2.0000      -0.655117       -17.8266
  43   2.0000      -0.651327       -17.7235
  44   2.0000      -0.638159       -17.3652
  45   2.0000      -0.620285       -16.8788
  46   2.0000      -0.587263       -15.9802
  47   2.0000      -0.539569       -14.6824
  48   2.0000      -0.527697       -14.3594
  49   2.0000      -0.504748       -13.7349
  50   2.0000      -0.471574       -12.8322
  51   2.0000      -0.470607       -12.8059
  52   2.0000      -0.442249       -12.0342
  53   2.0000      -0.421948       -11.4818
  54   2.0000      -0.416804       -11.3418
  55   2.0000      -0.406343       -11.0571
  56   2.0000      -0.400836       -10.9073
  57   2.0000      -0.389803       -10.6071
  58   2.0000      -0.370660       -10.0862
  59   2.0000      -0.354985        -9.6596
  60   2.0000      -0.348595        -9.4858
  61   2.0000      -0.327430        -8.9098
  62   2.0000      -0.312558        -8.5051
  63   2.0000      -0.300654        -8.1812
  64   2.0000      -0.275541        -7.4979
  65   2.0000      -0.274604        -7.4724
  66   2.0000      -0.254464        -6.9243
  67   2.0000      -0.251652        -6.8478
  68   2.0000      -0.237294        -6.4571
  69   2.0000      -0.222070        -6.0428
  70   2.0000      -0.221064        -6.0155
  71   2.0000      -0.211935        -5.7671
  72   2.0000      -0.197865        -5.3842
  73   2.0000      -0.179003        -4.8709
  74   2.0000      -0.166102        -4.5199
  75   2.0000      -0.159348        -4.3361
  76   2.0000      -0.156305        -4.2533
  77   2.0000      -0.144958        -3.9445
  78   2.0000      -0.140670        -3.8278
  79   2.0000      -0.136180        -3.7057
  80   2.0000      -0.134147        -3.6503
  81   2.0000      -0.123719        -3.3666
  82   0.0000       0.038441         1.0460
  83   0.0000       0.055622         1.5135
  84   0.0000       0.077136         2.0990
  85   0.0000       0.100014         2.7215
  86   0.0000       0.127906         3.4805

MULLIKEN ATOMIC CHARGES
-----------------------
   0 Pd:    0.121023
   1 Cl:   -0.320789
   2 Cl:   -0.511832
   3 Cl:   -0.376855
   4 N :   -0.548999
   5 C :    0.047552
   6 C :   -0.309164
   7 C :   -0.157896
   8 C :    0.372963
   9 C :    0.042680
  10 H :    0.212737
  11 H :    0.285158
  12 H :    0.222805
  13 C :    0.048064
  14 C :   -0.292102
  15 C :   -0.283063
  16 C :    0.135292
  17 H :    0.198915
  18 H :    0.199807
  19 C :   -0.247500
  20 C :   -0.309425
  21 C :   -0.226032
  22 C :   -0.203351
  23 H :    0.194004
  24 H :    0.202537
  25 H :    0.269633
  26 H :    0.233839
Sum of atomic charges:   -1.0000000

LOEWDIN ATOMIC CHARGES
----------------------
   0 Pd:   -0.893028
   1 Cl:   -0.065920
   2 Cl:   -0.367096
   3 Cl:   -0.096451
   4 N :    0.035411
   5 C :    0.021529
   6 C :   -0.159961
   7 C :   -0.083095
   8 C :    0.094121
   9 C :   -0.048006
  10 H :    0.136393
  11 H :    0.169195
  12 H :    0.142126
  13 C :   -0.024081
  14 C :   -0.133892
  15 C :   -0.116904
  16 C :   -0.027399
  17 H :    0.132105
  18 H :    0.133365
  19 C :   -0.078994
  20 C :   -0.141168
  21 C :   -0.136849
  22 C :   -0.131402
  23 H :    0.127494
  24 H :    0.128893
  25 H :    0.242660
  26 H :    0.140951

  Mayer bond orders larger than 0.100000
B(  0-Pd,  1-Cl) :   0.9538 B(  0-Pd,  2-Cl) :   0.5821 B(  0-Pd,  3-Cl) :   0.8809
B(  0-Pd,  4-N ) :   0.3488 B(  2-Cl, 25-H ) :   0.1252 B(  4-N ,  5-C ) :   1.4704
B(  4-N ,  8-C ) :   1.2229 B(  5-C ,  6-C ) :   1.3151 B(  5-C , 11-H ) :   0.8925
B(  6-C ,  7-C ) :   1.4666 B(  6-C , 12-H ) :   0.9183 B(  7-C ,  9-C ) :   1.2778
B(  7-C , 10-H ) :   0.9281 B(  8-C ,  9-C ) :   1.2313 B(  8-C , 13-C ) :   1.1104
B(  9-C , 14-C ) :   1.1624 B( 13-C , 16-C ) :   1.3096 B( 13-C , 19-C ) :   1.2595
B( 14-C , 15-C ) :   1.6511 B( 14-C , 17-H ) :   0.9289 B( 15-C , 16-C ) :   1.1546
B( 15-C , 18-H ) :   0.9275 B( 16-C , 20-C ) :   1.2742 B( 19-C , 21-C ) :   1.4712
B( 19-C , 25-H ) :   0.7691 B( 20-C , 22-C ) :   1.4950 B( 20-C , 23-H ) :   0.9311
B( 21-C , 22-C ) :   1.3525 B( 21-C , 26-H ) :   0.9132 B( 22-C , 24-H ) :   0.9219

Dispersion correction           -0.024752829
FINAL SINGLE POINT ENERGY     -2061.463978999738
Dispersion correction            ... done

DIPOLE MOMENT
-------------
                                X             Y             Z
Electronic contribution:    -92.83568     -61.62988      36.00038
Nuclear contribution   :     96.50139      65.55016     -36.11729
                        -----------------------------------------
Total Dipole Moment    :      3.66571       3.92027      -0.11691
                        -----------------------------------------
Magnitude (a.u.)       :      5.36839
Magnitude (Debye)      :     13.64536

Rotational constants in cm-1:     0.012296     0.007217     0.005922
Rotational constants in MHz :   368.631195   216.368785   177.527108

                             ****ORCA TERMINATED NORMALLY****
TOTAL RUN TIME: 0 days 0 hours 13 minutes 8 seconds 243 msec
