                         Program Version 5.0.3 -  RELEASE  -
|  1> ! EnGrad PBEh-3c
|  2> %output
|  3> xyzfile=True
|  4> end
|  5> %scf
|  6> maxiter 250
|  7> end
|  8> %output
|  9> Print[P_Hirshfeld] = 1
| 10> end
| 11> % maxcore
| 12> 4000
| 13> *xyz -1 1
| 14> Pd  -2.33260089  -1.74033952   0.82320221
| 15> Cl  -3.89087241  -3.11373384   0.03123639
| 16> Cl  -1.17065173  -3.91871396   1.74624274
| 17> Cl  -3.61387285   0.11022895   0.10528216
| 18> N   -0.92086939  -0.24365815   1.44662692
| 19> C   -1.19454973   0.28339541   2.61915270
| 20> C   -0.70600764   1.50564302   3.04612701
| 21> C    0.07620899   2.22381381   2.19682028
| 22> C   -0.05894493   0.39035786   0.61745528
| 23> C    0.42360958   1.68917583   0.94497656
| 24> H    0.44839317   3.20872756   2.47066731
| 25> H   -1.87184218  -0.28801134   3.24260458
| 26> H   -0.98109977   1.88535231   4.02812793
| 27> C    0.36561334  -0.24415611  -0.59341092
| 28> C    1.22669869   2.40151038   0.01608291
| 29> C    1.55062294   1.86273110  -1.16206181
| 30> C    1.16638534   0.52647849  -1.51522092
| 31> H    1.56069019   3.40316546   0.28110280
| 32> H    2.14958588   2.42353331  -1.87767862
| 33> C    0.11782522  -1.81899111  -0.81193299
| 34> C    1.61874719  -0.05079265  -2.70914502
| 35> C    0.57997759  -2.10792227  -2.12060448
| 36> C    1.31726569  -1.34818362  -3.00649799
| 37> H    2.20524742   0.54306497  -3.39073552
| 38> H    1.68732310  -1.79032030  -3.92582828
| 39> H   -0.14521022  -2.63636237  -0.15821889
| 40> H    0.39413993  -3.15395190  -2.34462942
| 41> *
| 42>
| 43>                          ****END OF INPUT****

CARTESIAN COORDINATES (ANGSTROEM)
---------------------------------
  Pd    -2.332601   -1.740340    0.823202
  Cl    -3.890872   -3.113734    0.031236
  Cl    -1.170652   -3.918714    1.746243
  Cl    -3.613873    0.110229    0.105282
  N     -0.920869   -0.243658    1.446627
  C     -1.194550    0.283395    2.619153
  C     -0.706008    1.505643    3.046127
  C      0.076209    2.223814    2.196820
  C     -0.058945    0.390358    0.617455
  C      0.423610    1.689176    0.944977
  H      0.448393    3.208728    2.470667
  H     -1.871842   -0.288011    3.242605
  H     -0.981100    1.885352    4.028128
  C      0.365613   -0.244156   -0.593411
  C      1.226699    2.401510    0.016083
  C      1.550623    1.862731   -1.162062
  C      1.166385    0.526478   -1.515221
  H      1.560690    3.403165    0.281103
  H      2.149586    2.423533   -1.877679
  C      0.117825   -1.818991   -0.811933
  C      1.618747   -0.050793   -2.709145
  C      0.579978   -2.107922   -2.120604
  C      1.317266   -1.348184   -3.006498
  H      2.205247    0.543065   -3.390736
  H      1.687323   -1.790320   -3.925828
  H     -0.145210   -2.636362   -0.158219
  H      0.394140   -3.153952   -2.344629

 Total Charge           Charge          ....   -1
 Multiplicity           Mult            ....    1
 Number of Electrons    NEL             ....  164
 Basis Dimension        Dim             ....  313

ORBITAL ENERGIES
----------------

  NO   OCC          E(Eh)            E(eV)
   0   2.0000    -102.084082     -2777.8491
   1   2.0000    -102.080430     -2777.7497
   2   2.0000    -102.061483     -2777.2341
   3   2.0000     -14.593466      -397.1084
   4   2.0000     -10.418239      -283.4947
   5   2.0000     -10.408729      -283.2359
   6   2.0000     -10.398639      -282.9614
   7   2.0000     -10.395858      -282.8857
   8   2.0000     -10.391579      -282.7693
   9   2.0000     -10.388599      -282.6881
  10   2.0000     -10.382639      -282.5260
  11   2.0000     -10.381819      -282.5037
  12   2.0000     -10.380107      -282.4571
  13   2.0000     -10.380103      -282.4570
  14   2.0000     -10.369517      -282.1689
  15   2.0000     -10.368789      -282.1491
  16   2.0000     -10.358271      -281.8629
  17   2.0000      -9.547469      -259.7998
  18   2.0000      -9.545604      -259.7491
  19   2.0000      -9.523770      -259.1550
  20   2.0000      -7.233602      -196.8363
  21   2.0000      -7.232153      -196.7969
  22   2.0000      -7.228428      -196.6955
  23   2.0000      -7.228192      -196.6891
  24   2.0000      -7.226221      -196.6355
  25   2.0000      -7.225682      -196.6208
  26   2.0000      -7.209067      -196.1687
  27   2.0000      -7.205427      -196.0696
  28   2.0000      -7.205089      -196.0604
  29   2.0000      -3.510855       -95.5352
  30   2.0000      -2.160703       -58.7957
  31   2.0000      -2.150767       -58.5254
  32   2.0000      -2.122670       -57.7608
  33   2.0000      -0.991479       -26.9795
  34   2.0000      -0.890117       -24.2213
  35   2.0000      -0.852512       -23.1980
  36   2.0000      -0.823707       -22.4142
  37   2.0000      -0.785241       -21.3675
  38   2.0000      -0.750072       -20.4105
  39   2.0000      -0.734444       -19.9852
  40   2.0000      -0.678328       -18.4582
  41   2.0000      -0.666710       -18.1421
  42   2.0000      -0.656988       -17.8775
  43   2.0000      -0.647269       -17.6131
  44   2.0000      -0.642572       -17.4853
  45   2.0000      -0.610327       -16.6078
  46   2.0000      -0.596570       -16.2335
  47   2.0000      -0.538125       -14.6431
  48   2.0000      -0.522844       -14.2273
  49   2.0000      -0.506160       -13.7733
  50   2.0000      -0.476739       -12.9727
  51   2.0000      -0.468109       -12.7379
  52   2.0000      -0.435329       -11.8459
  53   2.0000      -0.425429       -11.5765
  54   2.0000      -0.415298       -11.3008
  55   2.0000      -0.411992       -11.2109
  56   2.0000      -0.401871       -10.9355
  57   2.0000      -0.389485       -10.5984
  58   2.0000      -0.373278       -10.1574
  59   2.0000      -0.356634        -9.7045
  60   2.0000      -0.349378        -9.5071
  61   2.0000      -0.327879        -8.9220
  62   2.0000      -0.315641        -8.5890
  63   2.0000      -0.304675        -8.2906
  64   2.0000      -0.284771        -7.7490
  65   2.0000      -0.274100        -7.4586
  66   2.0000      -0.252524        -6.8715
  67   2.0000      -0.245534        -6.6813
  68   2.0000      -0.235747        -6.4150
  69   2.0000      -0.227628        -6.1941
  70   2.0000      -0.220040        -5.9876
  71   2.0000      -0.217158        -5.9092
  72   2.0000      -0.192737        -5.2446
  73   2.0000      -0.180190        -4.9032
  74   2.0000      -0.169724        -4.6184
  75   2.0000      -0.161047        -4.3823
  76   2.0000      -0.155326        -4.2266
  77   2.0000      -0.145968        -3.9720
  78   2.0000      -0.142718        -3.8835
  79   2.0000      -0.136602        -3.7171
  80   2.0000      -0.134264        -3.6535
  81   2.0000      -0.125975        -3.4279
  82   0.0000       0.038174         1.0388
  83   0.0000       0.054053         1.4709
  84   0.0000       0.077160         2.0996
  85   0.0000       0.101687         2.7671
  86   0.0000       0.122006         3.3199

MULLIKEN ATOMIC CHARGES
-----------------------
   0 Pd:    0.098430
   1 Cl:   -0.297762
   2 Cl:   -0.501203
   3 Cl:   -0.401143
   4 N :   -0.536863
   5 C :    0.050194
   6 C :   -0.309979
   7 C :   -0.153060
   8 C :    0.382173
   9 C :    0.041070
  10 H :    0.210252
  11 H :    0.280475
  12 H :    0.221104
  13 C :   -0.089636
  14 C :   -0.280383
  15 C :   -0.280810
  16 C :    0.165303
  17 H :    0.197548
  18 H :    0.198433
  19 C :   -0.210892
  20 C :   -0.307619
  21 C :   -0.255417
  22 C :   -0.165639
  23 H :    0.196210
  24 H :    0.206632
  25 H :    0.324618
  26 H :    0.217963
Sum of atomic charges:   -1.0000000

LOEWDIN ATOMIC CHARGES
----------------------
   0 Pd:   -0.905606
   1 Cl:   -0.020334
   2 Cl:   -0.333396
   3 Cl:   -0.147254
   4 N :    0.030352
   5 C :    0.017424
   6 C :   -0.162435
   7 C :   -0.083406
   8 C :    0.079099
   9 C :   -0.047616
  10 H :    0.135225
  11 H :    0.166739
  12 H :    0.142168
  13 C :    0.005011
  14 C :   -0.134610
  15 C :   -0.119462
  16 C :   -0.034085
  17 H :    0.132159
  18 H :    0.133163
  19 C :   -0.053795
  20 C :   -0.137668
  21 C :   -0.135514
  22 C :   -0.134673
  23 H :    0.128001
  24 H :    0.133776
  25 H :    0.209060
  26 H :    0.137675

  Mayer bond orders larger than 0.100000
B(  0-Pd,  1-Cl) :   0.9852 B(  0-Pd,  2-Cl) :   0.6489 B(  0-Pd,  3-Cl) :   0.8307
B(  0-Pd,  4-N ) :   0.3298 B(  4-N ,  5-C ) :   1.4911 B(  4-N ,  8-C ) :   1.2122
B(  5-C ,  6-C ) :   1.3046 B(  5-C , 11-H ) :   0.8954 B(  6-C ,  7-C ) :   1.4712
B(  6-C , 12-H ) :   0.9187 B(  7-C ,  9-C ) :   1.2746 B(  7-C , 10-H ) :   0.9284
B(  8-C ,  9-C ) :   1.2267 B(  8-C , 13-C ) :   1.1367 B(  9-C , 14-C ) :   1.1771
B( 13-C , 16-C ) :   1.3207 B( 13-C , 19-C ) :   1.2046 B( 14-C , 15-C ) :   1.6328
B( 14-C , 17-H ) :   0.9292 B( 15-C , 16-C ) :   1.1635 B( 15-C , 18-H ) :   0.9274
B( 16-C , 20-C ) :   1.2454 B( 19-C , 20-C ) :   0.1095 B( 19-C , 21-C ) :   1.5193
B( 19-C , 25-H ) :   0.8051 B( 20-C , 22-C ) :   1.5148 B( 20-C , 23-H ) :   0.9273
B( 21-C , 22-C ) :   1.3072 B( 21-C , 26-H ) :   0.9185 B( 22-C , 24-H ) :   0.9236

Dispersion correction           -0.024313753
FINAL SINGLE POINT ENERGY     -2061.484481440263
Dispersion correction            ... done

DIPOLE MOMENT
-------------
                                X             Y             Z
Electronic contribution:    -91.28200     -66.53573      36.00440
Nuclear contribution   :     94.93168      70.28433     -36.12936
                        -----------------------------------------
Total Dipole Moment    :      3.64968       3.74860      -0.12496
                        -----------------------------------------
Magnitude (a.u.)       :      5.23333
Magnitude (Debye)      :     13.30208

Rotational constants in cm-1:     0.012285     0.007240     0.005893
Rotational constants in MHz :   368.299810   217.061844   176.667626

                             ****ORCA TERMINATED NORMALLY****
TOTAL RUN TIME: 0 days 0 hours 13 minutes 25 seconds 716 msec
