                         Program Version 5.0.3 -  RELEASE  -
|  1> ! EnGrad PBEh-3c
|  2> %output
|  3> xyzfile=True
|  4> end
|  5> %scf
|  6> maxiter 250
|  7> end
|  8> %output
|  9> Print[P_Hirshfeld] = 1
| 10> end
| 11> % maxcore
| 12> 4000
| 13> *xyz -1 1
| 14> Pd  -2.32073718  -1.76653685   0.82664719
| 15> Cl  -3.87852584  -3.12209737   0.02339187
| 16> Cl  -1.16258577  -3.90833147   1.72273046
| 17> Cl  -3.62194673   0.09769047   0.13048726
| 18> N   -0.92383873  -0.24334514   1.44882095
| 19> C   -1.20265447   0.28417666   2.61806871
| 20> C   -0.70927611   1.51593341   3.05136659
| 21> C    0.08074017   2.23254282   2.19170087
| 22> C   -0.05916697   0.39522262   0.61993498
| 23> C    0.42194985   1.68895594   0.94743714
| 24> H    0.44943935   3.21172597   2.46868037
| 25> H   -1.87535100  -0.27862488   3.24129418
| 26> H   -0.98469578   1.89265428   4.02236392
| 27> C    0.35987360  -0.28604835  -0.58686103
| 28> C    1.22994353   2.40866156   0.02586752
| 29> C    1.55757150   1.85636547  -1.17004775
| 30> C    1.15664477   0.51756794  -1.50265727
| 31> H    1.56724884   3.40142709   0.28232918
| 32> H    2.15692360   2.41920057  -1.87363842
| 33> C    0.14624282  -1.79559866  -0.83387249
| 34> C    1.62117193  -0.05211760  -2.71048443
| 35> C    0.55396182  -2.13256710  -2.09197500
| 36> C    1.31267231  -1.33492403  -3.01192198
| 37> H    2.21279026   0.54355923  -3.38809515
| 38> H    1.68220321  -1.78953439  -3.92397826
| 39> H   -0.15054783  -2.60624478  -0.17403689
| 40> H    0.38236084  -3.14730602  -2.35335208
| 41> *
| 42>
| 43>                          ****END OF INPUT****

CARTESIAN COORDINATES (ANGSTROEM)
---------------------------------
  Pd    -2.320737   -1.766537    0.826647
  Cl    -3.878526   -3.122097    0.023392
  Cl    -1.162586   -3.908331    1.722730
  Cl    -3.621947    0.097690    0.130487
  N     -0.923839   -0.243345    1.448821
  C     -1.202654    0.284177    2.618069
  C     -0.709276    1.515933    3.051367
  C      0.080740    2.232543    2.191701
  C     -0.059167    0.395223    0.619935
  C      0.421950    1.688956    0.947437
  H      0.449439    3.211726    2.468680
  H     -1.875351   -0.278625    3.241294
  H     -0.984696    1.892654    4.022364
  C      0.359874   -0.286048   -0.586861
  C      1.229944    2.408662    0.025868
  C      1.557571    1.856365   -1.170048
  C      1.156645    0.517568   -1.502657
  H      1.567249    3.401427    0.282329
  H      2.156924    2.419201   -1.873638
  C      0.146243   -1.795599   -0.833872
  C      1.621172   -0.052118   -2.710484
  C      0.553962   -2.132567   -2.091975
  C      1.312672   -1.334924   -3.011922
  H      2.212790    0.543559   -3.388095
  H      1.682203   -1.789534   -3.923978
  H     -0.150548   -2.606245   -0.174037
  H      0.382361   -3.147306   -2.353352

 Total Charge           Charge          ....   -1
 Multiplicity           Mult            ....    1
 Number of Electrons    NEL             ....  164
 Basis Dimension        Dim             ....  313

ORBITAL ENERGIES
----------------

  NO   OCC          E(Eh)            E(eV)
   0   2.0000    -102.081234     -2777.7716
   1   2.0000    -102.080010     -2777.7383
   2   2.0000    -102.063790     -2777.2969
   3   2.0000     -14.592463      -397.0811
   4   2.0000     -10.419300      -283.5236
   5   2.0000     -10.407916      -283.2138
   6   2.0000     -10.397411      -282.9279
   7   2.0000     -10.395588      -282.8783
   8   2.0000     -10.391611      -282.7701
   9   2.0000     -10.389678      -282.7175
  10   2.0000     -10.383191      -282.5410
  11   2.0000     -10.381245      -282.4880
  12   2.0000     -10.380485      -282.4674
  13   2.0000     -10.370916      -282.2070
  14   2.0000     -10.370243      -282.1887
  15   2.0000     -10.368612      -282.1443
  16   2.0000     -10.355827      -281.7964
  17   2.0000      -9.545283      -259.7404
  18   2.0000      -9.544541      -259.7202
  19   2.0000      -9.526149      -259.2197
  20   2.0000      -7.231837      -196.7883
  21   2.0000      -7.230624      -196.7553
  22   2.0000      -7.225887      -196.6264
  23   2.0000      -7.225546      -196.6171
  24   2.0000      -7.225347      -196.6117
  25   2.0000      -7.225300      -196.6104
  26   2.0000      -7.211509      -196.2351
  27   2.0000      -7.207756      -196.1330
  28   2.0000      -7.207431      -196.1242
  29   2.0000      -3.509138       -95.4885
  30   2.0000      -2.159087       -58.7517
  31   2.0000      -2.149080       -58.4794
  32   2.0000      -2.120885       -57.7122
  33   2.0000      -0.989585       -26.9280
  34   2.0000      -0.887318       -24.1451
  35   2.0000      -0.852299       -23.1922
  36   2.0000      -0.819753       -22.3066
  37   2.0000      -0.785986       -21.3878
  38   2.0000      -0.745928       -20.2977
  39   2.0000      -0.740708       -20.1557
  40   2.0000      -0.677641       -18.4396
  41   2.0000      -0.664460       -18.0809
  42   2.0000      -0.655124       -17.8268
  43   2.0000      -0.645858       -17.5747
  44   2.0000      -0.644896       -17.5485
  45   2.0000      -0.613633       -16.6978
  46   2.0000      -0.592406       -16.1202
  47   2.0000      -0.537605       -14.6290
  48   2.0000      -0.524494       -14.2722
  49   2.0000      -0.504546       -13.7294
  50   2.0000      -0.474290       -12.9061
  51   2.0000      -0.470184       -12.7944
  52   2.0000      -0.436187       -11.8693
  53   2.0000      -0.423717       -11.5299
  54   2.0000      -0.412960       -11.2372
  55   2.0000      -0.411226       -11.1900
  56   2.0000      -0.400043       -10.8857
  57   2.0000      -0.392884       -10.6909
  58   2.0000      -0.378061       -10.2876
  59   2.0000      -0.352611        -9.5950
  60   2.0000      -0.347269        -9.4497
  61   2.0000      -0.320340        -8.7169
  62   2.0000      -0.318591        -8.6693
  63   2.0000      -0.307348        -8.3634
  64   2.0000      -0.293501        -7.9866
  65   2.0000      -0.271371        -7.3844
  66   2.0000      -0.251736        -6.8501
  67   2.0000      -0.244180        -6.6445
  68   2.0000      -0.236789        -6.4433
  69   2.0000      -0.227582        -6.1928
  70   2.0000      -0.220174        -5.9912
  71   2.0000      -0.215527        -5.8648
  72   2.0000      -0.189888        -5.1671
  73   2.0000      -0.182112        -4.9555
  74   2.0000      -0.170411        -4.6371
  75   2.0000      -0.161325        -4.3899
  76   2.0000      -0.154626        -4.2076
  77   2.0000      -0.146405        -3.9839
  78   2.0000      -0.142350        -3.8735
  79   2.0000      -0.135707        -3.6928
  80   2.0000      -0.133450        -3.6314
  81   2.0000      -0.126060        -3.4303
  82   0.0000       0.039063         1.0630
  83   0.0000       0.057570         1.5666
  84   0.0000       0.079172         2.1544
  85   0.0000       0.101588         2.7643
  86   0.0000       0.123132         3.3506

MULLIKEN ATOMIC CHARGES
-----------------------
   0 Pd:    0.092010
   1 Cl:   -0.297403
   2 Cl:   -0.490484
   3 Cl:   -0.407522
   4 N :   -0.532520
   5 C :    0.052465
   6 C :   -0.313674
   7 C :   -0.156622
   8 C :    0.353757
   9 C :    0.059552
  10 H :    0.211344
  11 H :    0.279945
  12 H :    0.221710
  13 C :   -0.041557
  14 C :   -0.296606
  15 C :   -0.271547
  16 C :    0.129509
  17 H :    0.199346
  18 H :    0.200394
  19 C :   -0.215266
  20 C :   -0.289405
  21 C :   -0.237930
  22 C :   -0.194085
  23 H :    0.196040
  24 H :    0.204255
  25 H :    0.319911
  26 H :    0.224382
Sum of atomic charges:   -1.0000000

LOEWDIN ATOMIC CHARGES
----------------------
   0 Pd:   -0.914626
   1 Cl:   -0.016692
   2 Cl:   -0.311614
   3 Cl:   -0.159503
   4 N :    0.029541
   5 C :    0.017128
   6 C :   -0.162101
   7 C :   -0.083946
   8 C :    0.082110
   9 C :   -0.049140
  10 H :    0.135680
  11 H :    0.165257
  12 H :    0.141560
  13 C :    0.006321
  14 C :   -0.134382
  15 C :   -0.122244
  16 C :   -0.029209
  17 H :    0.132046
  18 H :    0.133753
  19 C :   -0.066581
  20 C :   -0.139805
  21 C :   -0.129616
  22 C :   -0.130975
  23 H :    0.128182
  24 H :    0.131568
  25 H :    0.208506
  26 H :    0.138782

  Mayer bond orders larger than 0.100000
B(  0-Pd,  1-Cl) :   0.9884 B(  0-Pd,  2-Cl) :   0.6668 B(  0-Pd,  3-Cl) :   0.8193
B(  0-Pd,  4-N ) :   0.3251 B(  4-N ,  5-C ) :   1.4978 B(  4-N ,  8-C ) :   1.2161
B(  5-C ,  6-C ) :   1.3001 B(  5-C , 11-H ) :   0.8954 B(  6-C ,  7-C ) :   1.4784
B(  6-C , 12-H ) :   0.9187 B(  7-C ,  9-C ) :   1.2671 B(  7-C , 10-H ) :   0.9285
B(  8-C ,  9-C ) :   1.2180 B(  8-C , 13-C ) :   1.1282 B(  9-C , 14-C ) :   1.1828
B( 13-C , 16-C ) :   1.3296 B( 13-C , 19-C ) :   1.1973 B( 14-C , 15-C ) :   1.6220
B( 14-C , 17-H ) :   0.9286 B( 15-C , 16-C ) :   1.1709 B( 15-C , 18-H ) :   0.9273
B( 16-C , 20-C ) :   1.2288 B( 19-C , 21-C ) :   1.5599 B( 19-C , 25-H ) :   0.8125
B( 20-C , 22-C ) :   1.5534 B( 20-C , 23-H ) :   0.9281 B( 21-C , 22-C ) :   1.2755
B( 21-C , 26-H ) :   0.9158 B( 22-C , 24-H ) :   0.9244

Dispersion correction           -0.024343481
FINAL SINGLE POINT ENERGY     -2061.502766958669
Dispersion correction            ... done

DIPOLE MOMENT
-------------
                                X             Y             Z
Electronic contribution:    -90.67843     -67.88395      36.18189
Nuclear contribution   :     94.35562      71.56785     -36.30061
                        -----------------------------------------
Total Dipole Moment    :      3.67719       3.68390      -0.11872
                        -----------------------------------------
Magnitude (a.u.)       :      5.20644
Magnitude (Debye)      :     13.23371

Rotational constants in cm-1:     0.012312     0.007261     0.005889
Rotational constants in MHz :   369.099370   217.686532   176.551780

                             ****ORCA TERMINATED NORMALLY****
TOTAL RUN TIME: 0 days 0 hours 11 minutes 52 seconds 698 msec
