                         Program Version 5.0.3 -  RELEASE  -
|  1> ! EnGrad PBEh-3c
|  2> %output
|  3> xyzfile=True
|  4> end
|  5> %scf
|  6> maxiter 250
|  7> end
|  8> %output
|  9> Print[P_Hirshfeld] = 1
| 10> end
| 11> % maxcore
| 12> 4000
| 13> *xyz -1 1
| 14> Pd  -2.31719932  -1.76455282   0.82865451
| 15> Cl  -3.87853967  -3.12910859   0.01966824
| 16> Cl  -1.16054022  -3.90211789   1.71500640
| 17> Cl  -3.62122876   0.08924756   0.14053065
| 18> N   -0.92170097  -0.24474436   1.44939196
| 19> C   -1.20569064   0.28478690   2.61774759
| 20> C   -0.70909268   1.51929133   3.05049327
| 21> C    0.08049284   2.23424764   2.19211034
| 22> C   -0.06115601   0.39059807   0.61747137
| 23> C    0.42118638   1.68734090   0.94699803
| 24> H    0.44994629   3.21316516   2.46804875
| 25> H   -1.87764409  -0.27661406   3.24225718
| 26> H   -0.98597977   1.89527989   4.02178127
| 27> C    0.36551948  -0.30558672  -0.58626648
| 28> C    1.23126443   2.40742037   0.02484887
| 29> C    1.55544675   1.85185935  -1.16786980
| 30> C    1.14896589   0.50754047  -1.49262736
| 31> H    1.56956571   3.40206457   0.28328241
| 32> H    2.15923745   2.41739069  -1.87323262
| 33> C    0.16240602  -1.73488274  -0.85669092
| 34> C    1.61985510  -0.05083168  -2.70767704
| 35> C    0.55551346  -2.13957247  -2.08976588
| 36> C    1.30449556  -1.33904149  -3.00698988
| 37> H    2.21600020   0.54412931  -3.38778415
| 38> H    1.67913794  -1.78942635  -3.92306412
| 39> H   -0.15627119  -2.61266542  -0.16568861
| 40> H    0.37847476  -3.15307060  -2.35984393
| 41> *
| 42>
| 43>                          ****END OF INPUT****

CARTESIAN COORDINATES (ANGSTROEM)
---------------------------------
  Pd    -2.317199   -1.764553    0.828655
  Cl    -3.878540   -3.129109    0.019668
  Cl    -1.160540   -3.902118    1.715006
  Cl    -3.621229    0.089248    0.140531
  N     -0.921701   -0.244744    1.449392
  C     -1.205691    0.284787    2.617748
  C     -0.709093    1.519291    3.050493
  C      0.080493    2.234248    2.192110
  C     -0.061156    0.390598    0.617471
  C      0.421186    1.687341    0.946998
  H      0.449946    3.213165    2.468049
  H     -1.877644   -0.276614    3.242257
  H     -0.985980    1.895280    4.021781
  C      0.365519   -0.305587   -0.586266
  C      1.231264    2.407420    0.024849
  C      1.555447    1.851859   -1.167870
  C      1.148966    0.507540   -1.492627
  H      1.569566    3.402065    0.283282
  H      2.159237    2.417391   -1.873233
  C      0.162406   -1.734883   -0.856691
  C      1.619855   -0.050832   -2.707677
  C      0.555513   -2.139572   -2.089766
  C      1.304496   -1.339041   -3.006990
  H      2.216000    0.544129   -3.387784
  H      1.679138   -1.789426   -3.923064
  H     -0.156271   -2.612665   -0.165689
  H      0.378475   -3.153071   -2.359844

 Total Charge           Charge          ....   -1
 Multiplicity           Mult            ....    1
 Number of Electrons    NEL             ....  164
 Basis Dimension        Dim             ....  313

ORBITAL ENERGIES
----------------

  NO   OCC          E(Eh)            E(eV)
   0   2.0000    -102.081422     -2777.7767
   1   2.0000    -102.078864     -2777.7071
   2   2.0000    -102.064379     -2777.3129
   3   2.0000     -14.592665      -397.0866
   4   2.0000     -10.420794      -283.5642
   5   2.0000     -10.408208      -283.2217
   6   2.0000     -10.395490      -282.8757
   7   2.0000     -10.392371      -282.7908
   8   2.0000     -10.392119      -282.7839
   9   2.0000     -10.388805      -282.6937
  10   2.0000     -10.383455      -282.5482
  11   2.0000     -10.381265      -282.4886
  12   2.0000     -10.380627      -282.4712
  13   2.0000     -10.369809      -282.1768
  14   2.0000     -10.368859      -282.1510
  15   2.0000     -10.366664      -282.0913
  16   2.0000     -10.355229      -281.7801
  17   2.0000      -9.544807      -259.7274
  18   2.0000      -9.543993      -259.7052
  19   2.0000      -9.526763      -259.2364
  20   2.0000      -7.230890      -196.7625
  21   2.0000      -7.230536      -196.7529
  22   2.0000      -7.225808      -196.6242
  23   2.0000      -7.225556      -196.6174
  24   2.0000      -7.224617      -196.5918
  25   2.0000      -7.224087      -196.5774
  26   2.0000      -7.212104      -196.2513
  27   2.0000      -7.208392      -196.1503
  28   2.0000      -7.208030      -196.1405
  29   2.0000      -3.508512       -95.4715
  30   2.0000      -2.158224       -58.7283
  31   2.0000      -2.148757       -58.4706
  32   2.0000      -2.120133       -57.6917
  33   2.0000      -0.989621       -26.9290
  34   2.0000      -0.888976       -24.1903
  35   2.0000      -0.853721       -23.2309
  36   2.0000      -0.819935       -22.3116
  37   2.0000      -0.786685       -21.4068
  38   2.0000      -0.747693       -20.3458
  39   2.0000      -0.740382       -20.1468
  40   2.0000      -0.676618       -18.4117
  41   2.0000      -0.664410       -18.0795
  42   2.0000      -0.653104       -17.7719
  43   2.0000      -0.646664       -17.5966
  44   2.0000      -0.645751       -17.5718
  45   2.0000      -0.616336       -16.7713
  46   2.0000      -0.589379       -16.0378
  47   2.0000      -0.537460       -14.6250
  48   2.0000      -0.525739       -14.3061
  49   2.0000      -0.503645       -13.7049
  50   2.0000      -0.471349       -12.8261
  51   2.0000      -0.470847       -12.8124
  52   2.0000      -0.437917       -11.9163
  53   2.0000      -0.419837       -11.4243
  54   2.0000      -0.411550       -11.1988
  55   2.0000      -0.408739       -11.1223
  56   2.0000      -0.398549       -10.8451
  57   2.0000      -0.394540       -10.7360
  58   2.0000      -0.379109       -10.3161
  59   2.0000      -0.350672        -9.5423
  60   2.0000      -0.348562        -9.4848
  61   2.0000      -0.322751        -8.7825
  62   2.0000      -0.314808        -8.5664
  63   2.0000      -0.307310        -8.3623
  64   2.0000      -0.294962        -8.0263
  65   2.0000      -0.271381        -7.3847
  66   2.0000      -0.251721        -6.8497
  67   2.0000      -0.245051        -6.6682
  68   2.0000      -0.236857        -6.4452
  69   2.0000      -0.226143        -6.1537
  70   2.0000      -0.218680        -5.9506
  71   2.0000      -0.215477        -5.8634
  72   2.0000      -0.192010        -5.2249
  73   2.0000      -0.180942        -4.9237
  74   2.0000      -0.170560        -4.6412
  75   2.0000      -0.161458        -4.3935
  76   2.0000      -0.154724        -4.2103
  77   2.0000      -0.145681        -3.9642
  78   2.0000      -0.142397        -3.8748
  79   2.0000      -0.135384        -3.6840
  80   2.0000      -0.133145        -3.6231
  81   2.0000      -0.125782        -3.4227
  82   0.0000       0.040943         1.1141
  83   0.0000       0.057544         1.5659
  84   0.0000       0.080270         2.1843
  85   0.0000       0.100309         2.7295
  86   0.0000       0.126614         3.4453

MULLIKEN ATOMIC CHARGES
-----------------------
   0 Pd:    0.092606
   1 Cl:   -0.301801
   2 Cl:   -0.486879
   3 Cl:   -0.405127
   4 N :   -0.533203
   5 C :    0.051640
   6 C :   -0.313775
   7 C :   -0.155031
   8 C :    0.339017
   9 C :    0.057163
  10 H :    0.211607
  11 H :    0.280422
  12 H :    0.221458
  13 C :    0.021914
  14 C :   -0.298177
  15 C :   -0.268263
  16 C :    0.108685
  17 H :    0.199284
  18 H :    0.200188
  19 C :   -0.248938
  20 C :   -0.288716
  21 C :   -0.219962
  22 C :   -0.208171
  23 H :    0.196366
  24 H :    0.201202
  25 H :    0.316261
  26 H :    0.230231
Sum of atomic charges:   -1.0000000

LOEWDIN ATOMIC CHARGES
----------------------
   0 Pd:   -0.919026
   1 Cl:   -0.024578
   2 Cl:   -0.306824
   3 Cl:   -0.154643
   4 N :    0.030281
   5 C :    0.017368
   6 C :   -0.161494
   7 C :   -0.085514
   8 C :    0.087591
   9 C :   -0.048817
  10 H :    0.135865
  11 H :    0.165457
  12 H :    0.141379
  13 C :   -0.002962
  14 C :   -0.135026
  15 C :   -0.121671
  16 C :   -0.025259
  17 H :    0.131831
  18 H :    0.133863
  19 C :   -0.077221
  20 C :   -0.141304
  21 C :   -0.127508
  22 C :   -0.130283
  23 H :    0.128540
  24 H :    0.129462
  25 H :    0.219814
  26 H :    0.140679

  Mayer bond orders larger than 0.100000
B(  0-Pd,  1-Cl) :   0.9831 B(  0-Pd,  2-Cl) :   0.6656 B(  0-Pd,  3-Cl) :   0.8235
B(  0-Pd,  4-N ) :   0.3264 B(  4-N ,  5-C ) :   1.4920 B(  4-N ,  8-C ) :   1.2262
B(  5-C ,  6-C ) :   1.3041 B(  5-C , 11-H ) :   0.8950 B(  6-C ,  7-C ) :   1.4752
B(  6-C , 12-H ) :   0.9187 B(  7-C ,  9-C ) :   1.2703 B(  7-C , 10-H ) :   0.9283
B(  8-C ,  9-C ) :   1.2190 B(  8-C , 13-C ) :   1.1097 B(  9-C , 14-C ) :   1.1762
B( 13-C , 16-C ) :   1.3247 B( 13-C , 19-C ) :   1.2163 B( 14-C , 15-C ) :   1.6298
B( 14-C , 17-H ) :   0.9284 B( 15-C , 16-C ) :   1.1613 B( 15-C , 18-H ) :   0.9277
B( 16-C , 20-C ) :   1.2448 B( 19-C , 21-C ) :   1.5302 B( 19-C , 25-H ) :   0.8077
B( 20-C , 22-C ) :   1.5350 B( 20-C , 23-H ) :   0.9289 B( 21-C , 22-C ) :   1.3012
B( 21-C , 26-H ) :   0.9139 B( 22-C , 24-H ) :   0.9247

Dispersion correction           -0.024366076
FINAL SINGLE POINT ENERGY     -2061.511715949435
Dispersion correction            ... done

DIPOLE MOMENT
-------------
                                X             Y             Z
Electronic contribution:    -90.50355     -67.76403      36.29903
Nuclear contribution   :     94.18707      71.44817     -36.40936
                        -----------------------------------------
Total Dipole Moment    :      3.68352       3.68414      -0.11033
                        -----------------------------------------
Magnitude (a.u.)       :      5.21090
Magnitude (Debye)      :     13.24504

Rotational constants in cm-1:     0.012339     0.007279     0.005894
Rotational constants in MHz :   369.903315   218.220604   176.704903

                             ****ORCA TERMINATED NORMALLY****
TOTAL RUN TIME: 0 days 0 hours 10 minutes 34 seconds 4 msec
