                         Program Version 5.0.3 -  RELEASE  -
|  1> ! EnGrad PBEh-3c
|  2> %output
|  3> xyzfile=True
|  4> end
|  5> %scf
|  6> maxiter 250
|  7> end
|  8> %output
|  9> Print[P_Hirshfeld] = 1
| 10> end
| 11> % maxcore
| 12> 4000
| 13> *xyz -1 1
| 14> Pd  -2.29273522  -1.79743207   0.83467905
| 15> Cl  -3.85174228  -3.15807826  -0.00260694
| 16> Cl  -1.13512127  -3.88855890   1.65928460
| 17> Cl  -3.63917862   0.04902174   0.20873169
| 18> N   -0.92298133  -0.24324605   1.45454468
| 19> C   -1.21787100   0.30202832   2.61627763
| 20> C   -0.71489198   1.53591488   3.04442750
| 21> C    0.08028104   2.24542296   2.18994019
| 22> C   -0.06577391   0.37767299   0.61699133
| 23> C    0.42070458   1.68681600   0.94487038
| 24> H    0.45465206   3.22478775   2.46331345
| 25> H   -1.89172436  -0.25757796   3.24328158
| 26> H   -0.99661583   1.91705200   4.01519359
| 27> C    0.37727382  -0.34521441  -0.57624506
| 28> C    1.24244504   2.40524487   0.02420231
| 29> C    1.55701353   1.83641681  -1.15680617
| 30> C    1.13456986   0.48068413  -1.47164762
| 31> H    1.58760676   3.40298901   0.28852053
| 32> H    2.17765152   2.40387944  -1.86606141
| 33> C    0.18656850  -1.67561635  -0.85752873
| 34> C    1.61578776  -0.04992054  -2.69431064
| 35> C    0.55142328  -2.14561638  -2.10247003
| 36> C    1.27350492  -1.34661063  -2.99889818
| 37> H    2.23319728   0.54347737  -3.37910535
| 38> H    1.66333765  -1.78690588  -3.91731149
| 39> H   -0.16598360  -2.55387922  -0.19659339
| 40> H    0.34199649  -3.16067232  -2.38183801
| 41> *
| 42>
| 43>                          ****END OF INPUT****

CARTESIAN COORDINATES (ANGSTROEM)
---------------------------------
  Pd    -2.292735   -1.797432    0.834679
  Cl    -3.851742   -3.158078   -0.002607
  Cl    -1.135121   -3.888559    1.659285
  Cl    -3.639179    0.049022    0.208732
  N     -0.922981   -0.243246    1.454545
  C     -1.217871    0.302028    2.616278
  C     -0.714892    1.535915    3.044427
  C      0.080281    2.245423    2.189940
  C     -0.065774    0.377673    0.616991
  C      0.420705    1.686816    0.944870
  H      0.454652    3.224788    2.463313
  H     -1.891724   -0.257578    3.243282
  H     -0.996616    1.917052    4.015194
  C      0.377274   -0.345214   -0.576245
  C      1.242445    2.405245    0.024202
  C      1.557014    1.836417   -1.156806
  C      1.134570    0.480684   -1.471648
  H      1.587607    3.402989    0.288521
  H      2.177652    2.403879   -1.866061
  C      0.186568   -1.675616   -0.857529
  C      1.615788   -0.049921   -2.694311
  C      0.551423   -2.145616   -2.102470
  C      1.273505   -1.346611   -2.998898
  H      2.233197    0.543477   -3.379105
  H      1.663338   -1.786906   -3.917311
  H     -0.165984   -2.553879   -0.196593
  H      0.341996   -3.160672   -2.381838

 Total Charge           Charge          ....   -1
 Multiplicity           Mult            ....    1
 Number of Electrons    NEL             ....  164
 Basis Dimension        Dim             ....  313

ORBITAL ENERGIES
----------------

  NO   OCC          E(Eh)            E(eV)
   0   2.0000    -102.079200     -2777.7163
   1   2.0000    -102.077659     -2777.6743
   2   2.0000    -102.067380     -2777.3946
   3   2.0000     -14.591918      -397.0663
   4   2.0000     -10.422443      -283.6091
   5   2.0000     -10.407214      -283.1947
   6   2.0000     -10.394792      -282.8567
   7   2.0000     -10.393565      -282.8233
   8   2.0000     -10.387447      -282.6568
   9   2.0000     -10.384022      -282.5636
  10   2.0000     -10.383447      -282.5480
  11   2.0000     -10.380672      -282.4724
  12   2.0000     -10.379883      -282.4510
  13   2.0000     -10.371162      -282.2137
  14   2.0000     -10.367196      -282.1057
  15   2.0000     -10.358815      -281.8777
  16   2.0000     -10.357601      -281.8447
  17   2.0000      -9.542680      -259.6695
  18   2.0000      -9.542646      -259.6686
  19   2.0000      -9.529943      -259.3229
  20   2.0000      -7.229223      -196.7172
  21   2.0000      -7.228675      -196.7023
  22   2.0000      -7.223685      -196.5665
  23   2.0000      -7.223408      -196.5589
  24   2.0000      -7.223316      -196.5564
  25   2.0000      -7.222790      -196.5421
  26   2.0000      -7.215367      -196.3401
  27   2.0000      -7.211504      -196.2350
  28   2.0000      -7.211145      -196.2252
  29   2.0000      -3.506934       -95.4285
  30   2.0000      -2.156150       -58.6718
  31   2.0000      -2.147708       -58.4421
  32   2.0000      -2.118489       -57.6470
  33   2.0000      -0.988499       -26.8984
  34   2.0000      -0.892184       -24.2776
  35   2.0000      -0.854770       -23.2595
  36   2.0000      -0.819779       -22.3073
  37   2.0000      -0.787050       -21.4167
  38   2.0000      -0.751513       -20.4497
  39   2.0000      -0.738090       -20.0844
  40   2.0000      -0.675449       -18.3799
  41   2.0000      -0.662608       -18.0305
  42   2.0000      -0.650956       -17.7134
  43   2.0000      -0.648836       -17.6557
  44   2.0000      -0.647506       -17.6195
  45   2.0000      -0.618369       -16.8267
  46   2.0000      -0.588427       -16.0119
  47   2.0000      -0.538466       -14.6524
  48   2.0000      -0.526437       -14.3251
  49   2.0000      -0.501842       -13.6558
  50   2.0000      -0.471073       -12.8185
  51   2.0000      -0.468985       -12.7617
  52   2.0000      -0.439443       -11.9579
  53   2.0000      -0.419764       -11.4224
  54   2.0000      -0.410935       -11.1821
  55   2.0000      -0.408947       -11.1280
  56   2.0000      -0.398298       -10.8383
  57   2.0000      -0.394620       -10.7382
  58   2.0000      -0.378361       -10.2957
  59   2.0000      -0.351088        -9.5536
  60   2.0000      -0.348477        -9.4825
  61   2.0000      -0.325320        -8.8524
  62   2.0000      -0.313301        -8.5254
  63   2.0000      -0.302403        -8.2288
  64   2.0000      -0.295342        -8.0367
  65   2.0000      -0.270750        -7.3675
  66   2.0000      -0.252328        -6.8662
  67   2.0000      -0.246097        -6.6966
  68   2.0000      -0.236118        -6.4251
  69   2.0000      -0.224575        -6.1110
  70   2.0000      -0.217476        -5.9178
  71   2.0000      -0.215274        -5.8579
  72   2.0000      -0.196013        -5.3338
  73   2.0000      -0.178071        -4.8456
  74   2.0000      -0.171855        -4.6764
  75   2.0000      -0.162536        -4.4228
  76   2.0000      -0.154374        -4.2007
  77   2.0000      -0.144560        -3.9337
  78   2.0000      -0.142153        -3.8682
  79   2.0000      -0.134466        -3.6590
  80   2.0000      -0.131840        -3.5876
  81   2.0000      -0.125446        -3.4136
  82   0.0000       0.044667         1.2155
  83   0.0000       0.056442         1.5359
  84   0.0000       0.083568         2.2740
  85   0.0000       0.098111         2.6697
  86   0.0000       0.131242         3.5713

MULLIKEN ATOMIC CHARGES
-----------------------
   0 Pd:    0.081904
   1 Cl:   -0.306199
   2 Cl:   -0.471056
   3 Cl:   -0.407017
   4 N :   -0.529859
   5 C :    0.049391
   6 C :   -0.312086
   7 C :   -0.153906
   8 C :    0.314648
   9 C :    0.042467
  10 H :    0.211608
  11 H :    0.279179
  12 H :    0.220512
  13 C :    0.135256
  14 C :   -0.294421
  15 C :   -0.265005
  16 C :    0.074040
  17 H :    0.199355
  18 H :    0.198691
  19 C :   -0.287682
  20 C :   -0.288638
  21 C :   -0.211340
  22 C :   -0.221354
  23 H :    0.197541
  24 H :    0.197128
  25 H :    0.309386
  26 H :    0.237458
Sum of atomic charges:   -1.0000000

LOEWDIN ATOMIC CHARGES
----------------------
   0 Pd:   -0.935993
   1 Cl:   -0.030438
   2 Cl:   -0.275356
   3 Cl:   -0.158734
   4 N :    0.030282
   5 C :    0.015341
   6 C :   -0.160838
   7 C :   -0.089397
   8 C :    0.094410
   9 C :   -0.047298
  10 H :    0.135892
  11 H :    0.165078
  12 H :    0.140912
  13 C :   -0.017439
  14 C :   -0.138134
  15 C :   -0.119869
  16 C :   -0.020443
  17 H :    0.131649
  18 H :    0.133635
  19 C :   -0.078414
  20 C :   -0.140836
  21 C :   -0.119706
  22 C :   -0.132079
  23 H :    0.129665
  24 H :    0.126850
  25 H :    0.217099
  26 H :    0.144162

  Mayer bond orders larger than 0.100000
B(  0-Pd,  1-Cl) :   0.9786 B(  0-Pd,  2-Cl) :   0.6909 B(  0-Pd,  3-Cl) :   0.8161
B(  0-Pd,  4-N ) :   0.3231 B(  4-N ,  5-C ) :   1.4777 B(  4-N ,  8-C ) :   1.2502
B(  5-C ,  6-C ) :   1.3177 B(  5-C , 11-H ) :   0.8956 B(  6-C ,  7-C ) :   1.4626
B(  6-C , 12-H ) :   0.9187 B(  7-C ,  9-C ) :   1.2820 B(  7-C , 10-H ) :   0.9279
B(  8-C ,  9-C ) :   1.2209 B(  8-C , 13-C ) :   1.0701 B(  9-C , 14-C ) :   1.1621
B( 13-C , 16-C ) :   1.2951 B( 13-C , 19-C ) :   1.2418 B( 14-C , 15-C ) :   1.6474
B( 14-C , 17-H ) :   0.9277 B( 15-C , 16-C ) :   1.1411 B( 15-C , 18-H ) :   0.9287
B( 16-C , 20-C ) :   1.2879 B( 19-C , 21-C ) :   1.4713 B( 19-C , 25-H ) :   0.8169
B( 20-C , 22-C ) :   1.4786 B( 20-C , 23-H ) :   0.9297 B( 21-C , 22-C ) :   1.3630
B( 21-C , 26-H ) :   0.9118 B( 22-C , 24-H ) :   0.9254

Dispersion correction           -0.024410007
FINAL SINGLE POINT ENERGY     -2061.516051788904
Dispersion correction            ... done

DIPOLE MOMENT
-------------
                                X             Y             Z
Electronic contribution:    -89.33597     -69.31171      36.61035
Nuclear contribution   :     93.03244      72.93551     -36.70807
                        -----------------------------------------
Total Dipole Moment    :      3.69647       3.62380      -0.09772
                        -----------------------------------------
Magnitude (a.u.)       :      5.17739
Magnitude (Debye)      :     13.15988

Rotational constants in cm-1:     0.012406     0.007342     0.005894
Rotational constants in MHz :   371.909708   220.116561   176.692131

                             ****ORCA TERMINATED NORMALLY****
TOTAL RUN TIME: 0 days 0 hours 10 minutes 50 seconds 758 msec
