                         Program Version 5.0.3 -  RELEASE  -
|  1> ! EnGrad PBEh-3c
|  2> %output
|  3> xyzfile=True
|  4> end
|  5> %scf
|  6> maxiter 250
|  7> end
|  8> %output
|  9> Print[P_Hirshfeld] = 1
| 10> end
| 11> % maxcore
| 12> 4000
| 13> *xyz -1 1
| 14> Pd  -2.28277255  -1.80343490   0.83841129
| 15> Cl  -3.83962213  -3.17974400  -0.01667038
| 16> Cl  -1.11868930  -3.87689786   1.62587365
| 17> Cl  -3.64526869   0.02000395   0.25169093
| 18> N   -0.92090252  -0.24525710   1.45751979
| 19> C   -1.22388372   0.31406316   2.61625486
| 20> C   -0.72206517   1.54158462   3.04162394
| 21> C    0.08090876   2.24905398   2.18314557
| 22> C   -0.06642451   0.36786255   0.62081979
| 23> C    0.41731265   1.67929132   0.94386443
| 24> H    0.45748697   3.23138263   2.45994683
| 25> H   -1.90131969  -0.24699570   3.24521875
| 26> H   -1.00250725   1.92960818   4.01141048
| 27> C    0.39487471  -0.32153362  -0.56277979
| 28> C    1.24774574   2.40231331   0.02435012
| 29> C    1.55667686   1.82469461  -1.15133528
| 30> C    1.13933298   0.47128447  -1.47174448
| 31> H    1.59720984   3.40090915   0.29064093
| 32> H    2.18314069   2.38914522  -1.85898029
| 33> C    0.18696116  -1.66981987  -0.86826989
| 34> C    1.60574721  -0.05247577  -2.67871526
| 35> C    0.55732504  -2.14014082  -2.11216165
| 36> C    1.26296665  -1.35403192  -3.00131184
| 37> H    2.23871405   0.53960170  -3.36867409
| 38> H    1.65012471  -1.78494066  -3.91246618
| 39> H   -0.16929058  -2.51571880  -0.20935050
| 40> H    0.32015030  -3.16840810  -2.39350489
| 41> *
| 42>
| 43>                          ****END OF INPUT****

CARTESIAN COORDINATES (ANGSTROEM)
---------------------------------
  Pd    -2.282773   -1.803435    0.838411
  Cl    -3.839622   -3.179744   -0.016670
  Cl    -1.118689   -3.876898    1.625874
  Cl    -3.645269    0.020004    0.251691
  N     -0.920903   -0.245257    1.457520
  C     -1.223884    0.314063    2.616255
  C     -0.722065    1.541585    3.041624
  C      0.080909    2.249054    2.183146
  C     -0.066425    0.367863    0.620820
  C      0.417313    1.679291    0.943864
  H      0.457487    3.231383    2.459947
  H     -1.901320   -0.246996    3.245219
  H     -1.002507    1.929608    4.011410
  C      0.394875   -0.321534   -0.562780
  C      1.247746    2.402313    0.024350
  C      1.556677    1.824695   -1.151335
  C      1.139333    0.471284   -1.471744
  H      1.597210    3.400909    0.290641
  H      2.183141    2.389145   -1.858980
  C      0.186961   -1.669820   -0.868270
  C      1.605747   -0.052476   -2.678715
  C      0.557325   -2.140141   -2.112162
  C      1.262967   -1.354032   -3.001312
  H      2.238714    0.539602   -3.368674
  H      1.650125   -1.784941   -3.912466
  H     -0.169291   -2.515719   -0.209350
  H      0.320150   -3.168408   -2.393505

 Total Charge           Charge          ....   -1
 Multiplicity           Mult            ....    1
 Number of Electrons    NEL             ....  164
 Basis Dimension        Dim             ....  313

ORBITAL ENERGIES
----------------

  NO   OCC          E(Eh)            E(eV)
   0   2.0000    -102.079460     -2777.7233
   1   2.0000    -102.076164     -2777.6336
   2   2.0000    -102.067613     -2777.4010
   3   2.0000     -14.592294      -397.0765
   4   2.0000     -10.421560      -283.5851
   5   2.0000     -10.407392      -283.1995
   6   2.0000     -10.395460      -282.8748
   7   2.0000     -10.393475      -282.8208
   8   2.0000     -10.384222      -282.5691
   9   2.0000     -10.382829      -282.5311
  10   2.0000     -10.381522      -282.4956
  11   2.0000     -10.381019      -282.4819
  12   2.0000     -10.379922      -282.4520
  13   2.0000     -10.370832      -282.2047
  14   2.0000     -10.365518      -282.0601
  15   2.0000     -10.358270      -281.8628
  16   2.0000     -10.356670      -281.8193
  17   2.0000      -9.543091      -259.6807
  18   2.0000      -9.540974      -259.6231
  19   2.0000      -9.530286      -259.3323
  20   2.0000      -7.229108      -196.7140
  21   2.0000      -7.227506      -196.6704
  22   2.0000      -7.224121      -196.5783
  23   2.0000      -7.223831      -196.5704
  24   2.0000      -7.221642      -196.5109
  25   2.0000      -7.221122      -196.4967
  26   2.0000      -7.215741      -196.3503
  27   2.0000      -7.211816      -196.2435
  28   2.0000      -7.211463      -196.2339
  29   2.0000      -3.506355       -95.4128
  30   2.0000      -2.154984       -58.6401
  31   2.0000      -2.147719       -58.4424
  32   2.0000      -2.117845       -57.6295
  33   2.0000      -0.989284       -26.9198
  34   2.0000      -0.894785       -24.3483
  35   2.0000      -0.854391       -23.2492
  36   2.0000      -0.821136       -22.3443
  37   2.0000      -0.786893       -21.4124
  38   2.0000      -0.754168       -20.5220
  39   2.0000      -0.736735       -20.0476
  40   2.0000      -0.674785       -18.3618
  41   2.0000      -0.662513       -18.0279
  42   2.0000      -0.653203       -17.7746
  43   2.0000      -0.650138       -17.6912
  44   2.0000      -0.647051       -17.6072
  45   2.0000      -0.616476       -16.7752
  46   2.0000      -0.590623       -16.0717
  47   2.0000      -0.538287       -14.6475
  48   2.0000      -0.526709       -14.3325
  49   2.0000      -0.501782       -13.6542
  50   2.0000      -0.471023       -12.8172
  51   2.0000      -0.468946       -12.7607
  52   2.0000      -0.438209       -11.9243
  53   2.0000      -0.422096       -11.4858
  54   2.0000      -0.411453       -11.1962
  55   2.0000      -0.407955       -11.1010
  56   2.0000      -0.399580       -10.8731
  57   2.0000      -0.395823       -10.7709
  58   2.0000      -0.376915       -10.2564
  59   2.0000      -0.352663        -9.5965
  60   2.0000      -0.347856        -9.4656
  61   2.0000      -0.322243        -8.7687
  62   2.0000      -0.314127        -8.5478
  63   2.0000      -0.306959        -8.3528
  64   2.0000      -0.294223        -8.0062
  65   2.0000      -0.271522        -7.3885
  66   2.0000      -0.252410        -6.8684
  67   2.0000      -0.248431        -6.7602
  68   2.0000      -0.235376        -6.4049
  69   2.0000      -0.222879        -6.0649
  70   2.0000      -0.217085        -5.9072
  71   2.0000      -0.215167        -5.8550
  72   2.0000      -0.197076        -5.3627
  73   2.0000      -0.178073        -4.8456
  74   2.0000      -0.172567        -4.6958
  75   2.0000      -0.163114        -4.4386
  76   2.0000      -0.154371        -4.2007
  77   2.0000      -0.143999        -3.9184
  78   2.0000      -0.141789        -3.8583
  79   2.0000      -0.133833        -3.6418
  80   2.0000      -0.130804        -3.5593
  81   2.0000      -0.124744        -3.3945
  82   0.0000       0.044532         1.2118
  83   0.0000       0.055740         1.5168
  84   0.0000       0.085506         2.3267
  85   0.0000       0.100483         2.7343
  86   0.0000       0.130797         3.5592

MULLIKEN ATOMIC CHARGES
-----------------------
   0 Pd:    0.075928
   1 Cl:   -0.311995
   2 Cl:   -0.465029
   3 Cl:   -0.402123
   4 N :   -0.532821
   5 C :    0.046993
   6 C :   -0.308606
   7 C :   -0.158187
   8 C :    0.342845
   9 C :    0.019012
  10 H :    0.211781
  11 H :    0.278523
  12 H :    0.220753
  13 C :    0.121127
  14 C :   -0.282043
  15 C :   -0.284265
  16 C :    0.108639
  17 H :    0.200007
  18 H :    0.196777
  19 C :   -0.286658
  20 C :   -0.301021
  21 C :   -0.215468
  22 C :   -0.214589
  23 H :    0.195541
  24 H :    0.199749
  25 H :    0.308894
  26 H :    0.236237
Sum of atomic charges:   -1.0000000

LOEWDIN ATOMIC CHARGES
----------------------
   0 Pd:   -0.945480
   1 Cl:   -0.041296
   2 Cl:   -0.263428
   3 Cl:   -0.148786
   4 N :    0.030912
   5 C :    0.015137
   6 C :   -0.161205
   7 C :   -0.089359
   8 C :    0.091713
   9 C :   -0.045205
  10 H :    0.135887
  11 H :    0.165575
  12 H :    0.140950
  13 C :   -0.019932
  14 C :   -0.138381
  15 C :   -0.117338
  16 C :   -0.024100
  17 H :    0.132378
  18 H :    0.132303
  19 C :   -0.071192
  20 C :   -0.139697
  21 C :   -0.122756
  22 C :   -0.130959
  23 H :    0.129412
  24 H :    0.127872
  25 H :    0.211816
  26 H :    0.145159

  Mayer bond orders larger than 0.100000
B(  0-Pd,  1-Cl) :   0.9706 B(  0-Pd,  2-Cl) :   0.7011 B(  0-Pd,  3-Cl) :   0.8217
B(  0-Pd,  4-N ) :   0.3249 B(  4-N ,  5-C ) :   1.4660 B(  4-N ,  8-C ) :   1.2550
B(  5-C ,  6-C ) :   1.3302 B(  5-C , 11-H ) :   0.8961 B(  6-C ,  7-C ) :   1.4506
B(  6-C , 12-H ) :   0.9184 B(  7-C ,  9-C ) :   1.2921 B(  7-C , 10-H ) :   0.9279
B(  8-C ,  9-C ) :   1.2204 B(  8-C , 13-C ) :   1.0782 B(  9-C , 14-C ) :   1.1572
B( 13-C , 16-C ) :   1.3004 B( 13-C , 19-C ) :   1.2484 B( 14-C , 15-C ) :   1.6575
B( 14-C , 17-H ) :   0.9278 B( 15-C , 16-C ) :   1.1374 B( 15-C , 18-H ) :   0.9292
B( 16-C , 20-C ) :   1.2877 B( 19-C , 21-C ) :   1.4733 B( 19-C , 25-H ) :   0.8197
B( 20-C , 22-C ) :   1.4656 B( 20-C , 23-H ) :   0.9317 B( 21-C , 22-C ) :   1.3709
B( 21-C , 26-H ) :   0.9126 B( 22-C , 24-H ) :   0.9243

Dispersion correction           -0.024426553
FINAL SINGLE POINT ENERGY     -2061.522483242402
Dispersion correction            ... done

DIPOLE MOMENT
-------------
                                X             Y             Z
Electronic contribution:    -88.90242     -69.46675      36.81403
Nuclear contribution   :     92.59864      73.11713     -36.90210
                        -----------------------------------------
Total Dipole Moment    :      3.69621       3.65038      -0.08807
                        -----------------------------------------
Magnitude (a.u.)       :      5.19567
Magnitude (Debye)      :     13.20635

Rotational constants in cm-1:     0.012448     0.007383     0.005892
Rotational constants in MHz :   373.191235   221.331294   176.644199

                             ****ORCA TERMINATED NORMALLY****
TOTAL RUN TIME: 0 days 0 hours 10 minutes 19 seconds 940 msec
