                         Program Version 5.0.3 -  RELEASE  -
|  1> ! EnGrad PBEh-3c
|  2> %output
|  3> xyzfile=True
|  4> end
|  5> %scf
|  6> maxiter 250
|  7> end
|  8> %output
|  9> Print[P_Hirshfeld] = 1
| 10> end
| 11> % maxcore
| 12> 4000
| 13> *xyz -1 1
| 14> Pd  -2.26528917  -1.82927565   0.84345321
| 15> Cl  -3.80869489  -3.21467579  -0.04216105
| 16> Cl  -1.08320420  -3.86124827   1.56124882
| 17> Cl  -3.66353946  -0.02907224   0.33287445
| 18> N   -0.92305777  -0.24729569   1.46641761
| 19> C   -1.23697046   0.33056585   2.61496036
| 20> C   -0.73253000   1.55898782   3.03520566
| 21> C    0.07967897   2.25476796   2.17371978
| 22> C   -0.06300672   0.36648030   0.63560231
| 23> C    0.41595447   1.67538357   0.94362796
| 24> H    0.46231409   3.24156363   2.45192319
| 25> H   -1.91739698  -0.22367609   3.24555875
| 26> H   -1.01423431   1.95368665   4.00270667
| 27> C    0.41010386  -0.30714212  -0.54616863
| 28> C    1.25465878   2.39417014   0.02910732
| 29> C    1.56522000   1.81139522  -1.14594814
| 30> C    1.15281350   0.47513666  -1.46590719
| 31> H    1.61530671   3.39468617   0.29384049
| 32> H    2.19459056   2.36181653  -1.84512045
| 33> C    0.18944393  -1.68429417  -0.88059274
| 34> C    1.59940451  -0.06535822  -2.67407987
| 35> C    0.54414807  -2.14641505  -2.11522417
| 36> C    1.25448385  -1.34496076  -3.00900763
| 37> H    2.24385979   0.52845993  -3.34322774
| 38> H    1.62891582  -1.78332908  -3.91055123
| 39> H   -0.17829320  -2.44617336  -0.23501846
| 40> H    0.28043719  -3.16373273  -2.40916450
| 41> *
| 42>
| 43>                          ****END OF INPUT****

CARTESIAN COORDINATES (ANGSTROEM)
---------------------------------
  Pd    -2.265289   -1.829276    0.843453
  Cl    -3.808695   -3.214676   -0.042161
  Cl    -1.083204   -3.861248    1.561249
  Cl    -3.663539   -0.029072    0.332874
  N     -0.923058   -0.247296    1.466418
  C     -1.236970    0.330566    2.614960
  C     -0.732530    1.558988    3.035206
  C      0.079679    2.254768    2.173720
  C     -0.063007    0.366480    0.635602
  C      0.415954    1.675384    0.943628
  H      0.462314    3.241564    2.451923
  H     -1.917397   -0.223676    3.245559
  H     -1.014234    1.953687    4.002707
  C      0.410104   -0.307142   -0.546169
  C      1.254659    2.394170    0.029107
  C      1.565220    1.811395   -1.145948
  C      1.152813    0.475137   -1.465907
  H      1.615307    3.394686    0.293840
  H      2.194591    2.361817   -1.845120
  C      0.189444   -1.684294   -0.880593
  C      1.599405   -0.065358   -2.674080
  C      0.544148   -2.146415   -2.115224
  C      1.254484   -1.344961   -3.009008
  H      2.243860    0.528460   -3.343228
  H      1.628916   -1.783329   -3.910551
  H     -0.178293   -2.446173   -0.235018
  H      0.280437   -3.163733   -2.409165

 Total Charge           Charge          ....   -1
 Multiplicity           Mult            ....    1
 Number of Electrons    NEL             ....  164
 Basis Dimension        Dim             ....  313

ORBITAL ENERGIES
----------------

  NO   OCC          E(Eh)            E(eV)
   0   2.0000    -102.078628     -2777.7007
   1   2.0000    -102.075132     -2777.6055
   2   2.0000    -102.068922     -2777.4366
   3   2.0000     -14.592245      -397.0752
   4   2.0000     -10.420388      -283.5532
   5   2.0000     -10.407538      -283.2035
   6   2.0000     -10.395778      -282.8835
   7   2.0000     -10.392223      -282.7868
   8   2.0000     -10.382641      -282.5260
   9   2.0000     -10.381923      -282.5065
  10   2.0000     -10.381742      -282.5016
  11   2.0000     -10.379994      -282.4540
  12   2.0000     -10.379765      -282.4478
  13   2.0000     -10.368096      -282.1302
  14   2.0000     -10.364105      -282.0216
  15   2.0000     -10.355410      -281.7850
  16   2.0000     -10.352449      -281.7045
  17   2.0000      -9.542444      -259.6631
  18   2.0000      -9.539815      -259.5916
  19   2.0000      -9.531834      -259.3744
  20   2.0000      -7.228414      -196.6951
  21   2.0000      -7.226344      -196.6388
  22   2.0000      -7.223493      -196.5612
  23   2.0000      -7.223181      -196.5528
  24   2.0000      -7.220501      -196.4798
  25   2.0000      -7.219980      -196.4656
  26   2.0000      -7.217363      -196.3944
  27   2.0000      -7.213287      -196.2835
  28   2.0000      -7.212956      -196.2745
  29   2.0000      -3.505403       -95.3869
  30   2.0000      -2.153400       -58.5970
  31   2.0000      -2.147539       -58.4375
  32   2.0000      -2.116842       -57.6022
  33   2.0000      -0.989198       -26.9174
  34   2.0000      -0.894549       -24.3419
  35   2.0000      -0.854379       -23.2488
  36   2.0000      -0.821415       -22.3518
  37   2.0000      -0.787286       -21.4231
  38   2.0000      -0.752888       -20.4871
  39   2.0000      -0.737923       -20.0799
  40   2.0000      -0.674761       -18.3612
  41   2.0000      -0.662064       -18.0157
  42   2.0000      -0.654926       -17.8215
  43   2.0000      -0.652190       -17.7470
  44   2.0000      -0.646606       -17.5950
  45   2.0000      -0.616153       -16.7664
  46   2.0000      -0.591919       -16.1069
  47   2.0000      -0.538676       -14.6581
  48   2.0000      -0.526442       -14.3252
  49   2.0000      -0.502330       -13.6691
  50   2.0000      -0.474655       -12.9160
  51   2.0000      -0.468062       -12.7366
  52   2.0000      -0.437553       -11.9064
  53   2.0000      -0.421611       -11.4726
  54   2.0000      -0.411087       -11.1863
  55   2.0000      -0.409004       -11.1296
  56   2.0000      -0.400427       -10.8962
  57   2.0000      -0.396437       -10.7876
  58   2.0000      -0.378809       -10.3079
  59   2.0000      -0.352147        -9.5824
  60   2.0000      -0.348157        -9.4738
  61   2.0000      -0.323552        -8.8043
  62   2.0000      -0.314356        -8.5541
  63   2.0000      -0.308701        -8.4002
  64   2.0000      -0.293747        -7.9933
  65   2.0000      -0.271654        -7.3921
  66   2.0000      -0.252530        -6.8717
  67   2.0000      -0.251305        -6.8384
  68   2.0000      -0.235400        -6.4056
  69   2.0000      -0.222085        -6.0432
  70   2.0000      -0.218609        -5.9487
  71   2.0000      -0.214431        -5.8350
  72   2.0000      -0.195367        -5.3162
  73   2.0000      -0.178942        -4.8693
  74   2.0000      -0.173754        -4.7281
  75   2.0000      -0.164352        -4.4722
  76   2.0000      -0.154398        -4.2014
  77   2.0000      -0.143617        -3.9080
  78   2.0000      -0.141034        -3.8377
  79   2.0000      -0.132990        -3.6188
  80   2.0000      -0.129263        -3.5174
  81   2.0000      -0.124119        -3.3775
  82   0.0000       0.043037         1.1711
  83   0.0000       0.057788         1.5725
  84   0.0000       0.088220         2.4006
  85   0.0000       0.101719         2.7679
  86   0.0000       0.131093         3.5672

MULLIKEN ATOMIC CHARGES
-----------------------
   0 Pd:    0.063702
   1 Cl:   -0.316082
   2 Cl:   -0.452946
   3 Cl:   -0.399610
   4 N :   -0.530615
   5 C :    0.046047
   6 C :   -0.308324
   7 C :   -0.161334
   8 C :    0.354859
   9 C :    0.017481
  10 H :    0.211181
  11 H :    0.277657
  12 H :    0.221006
  13 C :    0.082325
  14 C :   -0.282926
  15 C :   -0.292161
  16 C :    0.126071
  17 H :    0.199651
  18 H :    0.196704
  19 C :   -0.260037
  20 C :   -0.292787
  21 C :   -0.223967
  22 C :   -0.214174
  23 H :    0.193059
  24 H :    0.201005
  25 H :    0.307276
  26 H :    0.236938
Sum of atomic charges:   -1.0000000

LOEWDIN ATOMIC CHARGES
----------------------
   0 Pd:   -0.961877
   1 Cl:   -0.047689
   2 Cl:   -0.237886
   3 Cl:   -0.142968
   4 N :    0.030048
   5 C :    0.016035
   6 C :   -0.162491
   7 C :   -0.087513
   8 C :    0.087049
   9 C :   -0.045864
  10 H :    0.135717
  11 H :    0.165009
  12 H :    0.141021
  13 C :   -0.013690
  14 C :   -0.136382
  15 C :   -0.118790
  16 C :   -0.027001
  17 H :    0.132745
  18 H :    0.131554
  19 C :   -0.067970
  20 C :   -0.139614
  21 C :   -0.122199
  22 C :   -0.129254
  23 H :    0.128341
  24 H :    0.128580
  25 H :    0.198754
  26 H :    0.146333

  Mayer bond orders larger than 0.100000
B(  0-Pd,  1-Cl) :   0.9658 B(  0-Pd,  2-Cl) :   0.7233 B(  0-Pd,  3-Cl) :   0.8215
B(  0-Pd,  4-N ) :   0.3226 B(  4-N ,  5-C ) :   1.4719 B(  4-N ,  8-C ) :   1.2496
B(  5-C ,  6-C ) :   1.3270 B(  5-C , 11-H ) :   0.8965 B(  6-C ,  7-C ) :   1.4533
B(  6-C , 12-H ) :   0.9184 B(  7-C ,  9-C ) :   1.2872 B(  7-C , 10-H ) :   0.9286
B(  8-C ,  9-C ) :   1.2212 B(  8-C , 13-C ) :   1.0924 B(  9-C , 14-C ) :   1.1617
B( 13-C , 16-C ) :   1.3134 B( 13-C , 19-C ) :   1.2441 B( 14-C , 15-C ) :   1.6480
B( 14-C , 17-H ) :   0.9286 B( 15-C , 16-C ) :   1.1523 B( 15-C , 18-H ) :   0.9288
B( 16-C , 20-C ) :   1.2616 B( 19-C , 21-C ) :   1.5183 B( 19-C , 25-H ) :   0.8259
B( 20-C , 22-C ) :   1.5000 B( 20-C , 23-H ) :   0.9321 B( 21-C , 22-C ) :   1.3317
B( 21-C , 26-H ) :   0.9123 B( 22-C , 24-H ) :   0.9240

Dispersion correction           -0.024452105
FINAL SINGLE POINT ENERGY     -2061.526998487057
Dispersion correction            ... done

DIPOLE MOMENT
-------------
                                X             Y             Z
Electronic contribution:    -88.18724     -70.55895      37.10968
Nuclear contribution   :     91.86047      74.21246     -37.16314
                        -----------------------------------------
Total Dipole Moment    :      3.67323       3.65351      -0.05346
                        -----------------------------------------
Magnitude (a.u.)       :      5.18108
Magnitude (Debye)      :     13.16927

Rotational constants in cm-1:     0.012492     0.007439     0.005876
Rotational constants in MHz :   374.511097   223.030369   176.160590

                             ****ORCA TERMINATED NORMALLY****
TOTAL RUN TIME: 0 days 0 hours 12 minutes 22 seconds 849 msec
