                         Program Version 5.0.3 -  RELEASE  -
|  1> ! EnGrad PBEh-3c
|  2> %output
|  3> xyzfile=True
|  4> end
|  5> %scf
|  6> maxiter 250
|  7> end
|  8> %output
|  9> Print[P_Hirshfeld] = 1
| 10> end
| 11> % maxcore
| 12> 4000
| 13> *xyz -1 1
| 14> Pd  -2.25132913  -1.85682008   0.84795445
| 15> Cl  -3.76688199  -3.25772210  -0.07425669
| 16> Cl  -1.03025016  -3.84456111   1.47861342
| 17> Cl  -3.68918076  -0.09004287   0.43747696
| 18> N   -0.92638667  -0.24844179   1.48339463
| 19> C   -1.25233522   0.34619840   2.61202173
| 20> C   -0.74511935   1.58180974   3.02314234
| 21> C    0.07439351   2.26491343   2.17104032
| 22> C   -0.05404620   0.36459508   0.65171302
| 23> C    0.42065235   1.67932133   0.94414920
| 24> H    0.46624393   3.24750000   2.43781474
| 25> H   -1.93911351  -0.19345129   3.24553452
| 26> H   -1.02917256   1.98420019   3.99075095
| 27> C    0.42689611  -0.30321281  -0.54587593
| 28> C    1.26165433   2.38035597   0.03476781
| 29> C    1.58021096   1.80510497  -1.13315746
| 30> C    1.17001090   0.47838102  -1.45188079
| 31> H    1.63469714   3.37913600   0.29632963
| 32> H    2.21096823   2.32881743  -1.83174125
| 33> C    0.19447968  -1.65660188  -0.89628369
| 34> C    1.60044191  -0.07166103  -2.67449723
| 35> C    0.53287434  -2.14554843  -2.13885801
| 36> C    1.23923771  -1.34867823  -3.00818544
| 37> H    2.24548697   0.51093338  -3.30909948
| 38> H    1.60492062  -1.78338665  -3.92026988
| 39> H   -0.20507277  -2.39928378  -0.23389046
| 40> H    0.23213079  -3.15331368  -2.42400012
| 41> *
| 42>
| 43>                          ****END OF INPUT****

CARTESIAN COORDINATES (ANGSTROEM)
---------------------------------
  Pd    -2.251329   -1.856820    0.847954
  Cl    -3.766882   -3.257722   -0.074257
  Cl    -1.030250   -3.844561    1.478613
  Cl    -3.689181   -0.090043    0.437477
  N     -0.926387   -0.248442    1.483395
  C     -1.252335    0.346198    2.612022
  C     -0.745119    1.581810    3.023142
  C      0.074394    2.264913    2.171040
  C     -0.054046    0.364595    0.651713
  C      0.420652    1.679321    0.944149
  H      0.466244    3.247500    2.437815
  H     -1.939114   -0.193451    3.245535
  H     -1.029173    1.984200    3.990751
  C      0.426896   -0.303213   -0.545876
  C      1.261654    2.380356    0.034768
  C      1.580211    1.805105   -1.133157
  C      1.170011    0.478381   -1.451881
  H      1.634697    3.379136    0.296330
  H      2.210968    2.328817   -1.831741
  C      0.194480   -1.656602   -0.896284
  C      1.600442   -0.071661   -2.674497
  C      0.532874   -2.145548   -2.138858
  C      1.239238   -1.348678   -3.008185
  H      2.245487    0.510933   -3.309099
  H      1.604921   -1.783387   -3.920270
  H     -0.205073   -2.399284   -0.233890
  H      0.232131   -3.153314   -2.424000

 Total Charge           Charge          ....   -1
 Multiplicity           Mult            ....    1
 Number of Electrons    NEL             ....  164
 Basis Dimension        Dim             ....  313

ORBITAL ENERGIES
----------------

  NO   OCC          E(Eh)            E(eV)
   0   2.0000    -102.078764     -2777.7044
   1   2.0000    -102.074858     -2777.5981
   2   2.0000    -102.071038     -2777.4941
   3   2.0000     -14.592089      -397.0709
   4   2.0000     -10.421171      -283.5745
   5   2.0000     -10.407127      -283.1923
   6   2.0000     -10.394275      -282.8426
   7   2.0000     -10.390854      -282.7495
   8   2.0000     -10.379736      -282.4470
   9   2.0000     -10.379433      -282.4387
  10   2.0000     -10.379202      -282.4324
  11   2.0000     -10.378671      -282.4180
  12   2.0000     -10.376050      -282.3467
  13   2.0000     -10.364544      -282.0336
  14   2.0000     -10.361510      -281.9510
  15   2.0000     -10.353583      -281.7353
  16   2.0000     -10.349511      -281.6245
  17   2.0000      -9.542816      -259.6732
  18   2.0000      -9.539445      -259.5815
  19   2.0000      -9.534269      -259.4406
  20   2.0000      -7.228740      -196.7040
  21   2.0000      -7.225973      -196.6287
  22   2.0000      -7.223882      -196.5718
  23   2.0000      -7.223544      -196.5626
  24   2.0000      -7.220144      -196.4701
  25   2.0000      -7.219832      -196.4616
  26   2.0000      -7.219626      -196.4560
  27   2.0000      -7.215671      -196.3484
  28   2.0000      -7.215316      -196.3387
  29   2.0000      -3.504826       -95.3712
  30   2.0000      -2.152175       -58.5637
  31   2.0000      -2.147958       -58.4489
  32   2.0000      -2.116165       -57.5838
  33   2.0000      -0.988094       -26.8874
  34   2.0000      -0.895631       -24.3713
  35   2.0000      -0.855484       -23.2789
  36   2.0000      -0.821403       -22.3515
  37   2.0000      -0.786476       -21.4011
  38   2.0000      -0.754518       -20.5315
  39   2.0000      -0.735222       -20.0064
  40   2.0000      -0.676125       -18.3983
  41   2.0000      -0.662972       -18.0404
  42   2.0000      -0.656349       -17.8602
  43   2.0000      -0.651921       -17.7397
  44   2.0000      -0.647853       -17.6290
  45   2.0000      -0.616259       -16.7692
  46   2.0000      -0.591812       -16.1040
  47   2.0000      -0.537860       -14.6359
  48   2.0000      -0.526727       -14.3330
  49   2.0000      -0.502581       -13.6759
  50   2.0000      -0.474089       -12.9006
  51   2.0000      -0.468536       -12.7495
  52   2.0000      -0.438590       -11.9346
  53   2.0000      -0.419949       -11.4274
  54   2.0000      -0.410139       -11.1604
  55   2.0000      -0.407406       -11.0861
  56   2.0000      -0.400611       -10.9012
  57   2.0000      -0.396742       -10.7959
  58   2.0000      -0.377630       -10.2758
  59   2.0000      -0.352128        -9.5819
  60   2.0000      -0.349379        -9.5071
  61   2.0000      -0.323936        -8.8148
  62   2.0000      -0.313617        -8.5340
  63   2.0000      -0.307242        -8.3605
  64   2.0000      -0.292532        -7.9602
  65   2.0000      -0.271936        -7.3998
  66   2.0000      -0.255416        -6.9502
  67   2.0000      -0.252979        -6.8839
  68   2.0000      -0.234488        -6.3808
  69   2.0000      -0.222463        -6.0535
  70   2.0000      -0.220371        -5.9966
  71   2.0000      -0.214137        -5.8270
  72   2.0000      -0.197265        -5.3679
  73   2.0000      -0.177689        -4.8352
  74   2.0000      -0.174722        -4.7544
  75   2.0000      -0.166079        -4.5192
  76   2.0000      -0.155305        -4.2261
  77   2.0000      -0.142554        -3.8791
  78   2.0000      -0.140769        -3.8305
  79   2.0000      -0.132679        -3.6104
  80   2.0000      -0.128469        -3.4958
  81   2.0000      -0.124194        -3.3795
  82   0.0000       0.045353         1.2341
  83   0.0000       0.057707         1.5703
  84   0.0000       0.090684         2.4676
  85   0.0000       0.102622         2.7925
  86   0.0000       0.132711         3.6112

MULLIKEN ATOMIC CHARGES
-----------------------
   0 Pd:    0.053201
   1 Cl:   -0.319452
   2 Cl:   -0.439753
   3 Cl:   -0.395043
   4 N :   -0.522401
   5 C :    0.046707
   6 C :   -0.311511
   7 C :   -0.157561
   8 C :    0.332258
   9 C :    0.026733
  10 H :    0.210579
  11 H :    0.276855
  12 H :    0.219767
  13 C :    0.115423
  14 C :   -0.290122
  15 C :   -0.284835
  16 C :    0.106395
  17 H :    0.197132
  18 H :    0.197460
  19 C :   -0.283052
  20 C :   -0.280900
  21 C :   -0.213127
  22 C :   -0.222170
  23 H :    0.193860
  24 H :    0.197526
  25 H :    0.306243
  26 H :    0.239788
Sum of atomic charges:   -1.0000000

LOEWDIN ATOMIC CHARGES
----------------------
   0 Pd:   -0.981469
   1 Cl:   -0.052190
   2 Cl:   -0.213373
   3 Cl:   -0.132362
   4 N :    0.028498
   5 C :    0.015002
   6 C :   -0.162860
   7 C :   -0.087785
   8 C :    0.090779
   9 C :   -0.047935
  10 H :    0.135325
  11 H :    0.164049
  12 H :    0.140709
  13 C :   -0.019139
  14 C :   -0.135641
  15 C :   -0.119478
  16 C :   -0.027060
  17 H :    0.132092
  18 H :    0.131352
  19 C :   -0.066675
  20 C :   -0.142301
  21 C :   -0.122893
  22 C :   -0.128720
  23 H :    0.128024
  24 H :    0.127438
  25 H :    0.197964
  26 H :    0.148648

  Mayer bond orders larger than 0.100000
B(  0-Pd,  1-Cl) :   0.9620 B(  0-Pd,  2-Cl) :   0.7358 B(  0-Pd,  3-Cl) :   0.8243
B(  0-Pd,  4-N ) :   0.3179 B(  4-N ,  5-C ) :   1.4865 B(  4-N ,  8-C ) :   1.2468
B(  5-C ,  6-C ) :   1.3144 B(  5-C , 11-H ) :   0.8963 B(  6-C ,  7-C ) :   1.4630
B(  6-C , 12-H ) :   0.9191 B(  7-C ,  9-C ) :   1.2797 B(  7-C , 10-H ) :   0.9286
B(  8-C ,  9-C ) :   1.2349 B(  8-C , 13-C ) :   1.0883 B(  9-C , 14-C ) :   1.1600
B( 13-C , 16-C ) :   1.3001 B( 13-C , 19-C ) :   1.2507 B( 14-C , 15-C ) :   1.6464
B( 14-C , 17-H ) :   0.9301 B( 15-C , 16-C ) :   1.1631 B( 15-C , 18-H ) :   0.9277
B( 16-C , 20-C ) :   1.2764 B( 19-C , 21-C ) :   1.5025 B( 19-C , 25-H ) :   0.8217
B( 20-C , 22-C ) :   1.4914 B( 20-C , 23-H ) :   0.9304 B( 21-C , 22-C ) :   1.3420
B( 21-C , 26-H ) :   0.9116 B( 22-C , 24-H ) :   0.9251

Dispersion correction           -0.024486129
FINAL SINGLE POINT ENERGY     -2061.528500023885
Dispersion correction            ... done

DIPOLE MOMENT
-------------
                                X             Y             Z
Electronic contribution:    -87.77587     -71.73332      37.39831
Nuclear contribution   :     91.38226      75.37386     -37.40503
                        -----------------------------------------
Total Dipole Moment    :      3.60639       3.64054      -0.00671
                        -----------------------------------------
Magnitude (a.u.)       :      5.12442
Magnitude (Debye)      :     13.02524

Rotational constants in cm-1:     0.012521     0.007501     0.005848
Rotational constants in MHz :   375.367268   224.866030   175.306704

                             ****ORCA TERMINATED NORMALLY****
TOTAL RUN TIME: 0 days 0 hours 11 minutes 36 seconds 673 msec
