                         Program Version 5.0.3 -  RELEASE  -
|  1> ! EnGrad PBEh-3c
|  2> %output
|  3> xyzfile=True
|  4> end
|  5> %scf
|  6> maxiter 250
|  7> end
|  8> %output
|  9> Print[P_Hirshfeld] = 1
| 10> end
| 11> % maxcore
| 12> 4000
| 13> *xyz 0 1
| 14> Pd   0.57367329   0.52637776  -0.52582498
| 15> O    2.19114315   1.54785209   0.38495266
| 16> C    1.69978892   2.68174509   0.27822369
| 17> O    0.48280464   2.78082572  -0.08137645
| 18> C    2.48318608   3.91550998   0.56142742
| 19> H    1.87307053   4.67692603   1.04304024
| 20> H    2.84482038   4.32080457  -0.38538164
| 21> H    3.34878557   3.69902817   1.18188695
| 22> N   -1.21601151  -0.37490042  -1.15287211
| 23> C   -1.27648215  -1.04571463  -2.46994445
| 24> H   -0.95141386  -0.39051197  -3.27558002
| 25> H   -2.29211031  -1.38104505  -2.71644614
| 26> H   -0.64811538  -1.92790088  -2.49592031
| 27> C   -2.14647626   0.74977590  -1.32272601
| 28> H   -2.16203081   1.37308806  -0.44501492
| 29> H   -3.17919272   0.43723607  -1.50811445
| 30> H   -1.82443676   1.40829054  -2.12975450
| 31> C   -1.42780259  -0.95916318   1.30017953
| 32> C   -0.46047055  -1.68472299   2.00547849
| 33> C   -0.33377233  -1.62166210   3.38618162
| 34> C   -1.20541214  -0.81888733   4.10038719
| 35> C   -2.30511684  -0.29775622   3.42941011
| 36> C   -2.22338878  -0.07900052   2.05330978
| 37> H   -1.12038430  -0.75872571   5.17768429
| 38> H   -3.17572096  -0.06936081   4.03188779
| 39> H    0.17196722  -2.41231041   1.51021764
| 40> H    0.42368683  -2.19447642   3.90572785
| 41> H   -3.12424380   1.99444098   2.09900490
| 42> C   -1.71221820  -1.32316941  -0.13438151
| 43> H   -2.80037831  -1.45988710  -0.19152127
| 44> H   -1.30043618  -2.31267883  -0.34866811
| 45> O    1.77334142  -0.92635390  -1.09928992
| 46> C    2.28204696  -0.79416471  -2.28425492
| 47> O    1.85250277  -0.00989996  -3.10943417
| 48> C    3.47368025  -1.65195432  -2.63698386
| 49> H    3.27996538  -2.71058252  -2.46884600
| 50> H    4.31842547  -1.37938865  -2.00124048
| 51> H    3.81272268  -1.52768291  -3.66540713
| 52> *
| 53>
| 54>                          ****END OF INPUT****

CARTESIAN COORDINATES (ANGSTROEM)
---------------------------------
  Pd     0.573673    0.526378   -0.525825
  O      2.191143    1.547852    0.384953
  C      1.699789    2.681745    0.278224
  O      0.482805    2.780826   -0.081376
  C      2.483186    3.915510    0.561427
  H      1.873071    4.676926    1.043040
  H      2.844820    4.320805   -0.385382
  H      3.348786    3.699028    1.181887
  N     -1.216012   -0.374900   -1.152872
  C     -1.276482   -1.045715   -2.469944
  H     -0.951414   -0.390512   -3.275580
  H     -2.292110   -1.381045   -2.716446
  H     -0.648115   -1.927901   -2.495920
  C     -2.146476    0.749776   -1.322726
  H     -2.162031    1.373088   -0.445015
  H     -3.179193    0.437236   -1.508114
  H     -1.824437    1.408291   -2.129755
  C     -1.427803   -0.959163    1.300180
  C     -0.460471   -1.684723    2.005478
  C     -0.333772   -1.621662    3.386182
  C     -1.205412   -0.818887    4.100387
  C     -2.305117   -0.297756    3.429410
  C     -2.223389   -0.079001    2.053310
  H     -1.120384   -0.758726    5.177684
  H     -3.175721   -0.069361    4.031888
  H      0.171967   -2.412310    1.510218
  H      0.423687   -2.194476    3.905728
  H     -3.124244    1.994441    2.099005
  C     -1.712218   -1.323169   -0.134382
  H     -2.800378   -1.459887   -0.191521
  H     -1.300436   -2.312679   -0.348668
  O      1.773341   -0.926354   -1.099290
  C      2.282047   -0.794165   -2.284255
  O      1.852503   -0.009900   -3.109434
  C      3.473680   -1.651954   -2.636984
  H      3.279965   -2.710583   -2.468846
  H      4.318425   -1.379389   -2.001240
  H      3.812723   -1.527683   -3.665407

 Total Charge           Charge          ....    0
 Multiplicity           Mult            ....    1
 Number of Electrons    NEL             ....  154
 Basis Dimension        Dim             ....  339

ORBITAL ENERGIES
----------------

  NO   OCC          E(Eh)            E(eV)
   0   2.0000     -19.489019      -530.3232
   1   2.0000     -19.479724      -530.0702
   2   2.0000     -19.465673      -529.6879
   3   2.0000     -19.428279      -528.6703
   4   2.0000     -14.731529      -400.8653
   5   2.0000     -10.552267      -287.1418
   6   2.0000     -10.531969      -286.5894
   7   2.0000     -10.527235      -286.4606
   8   2.0000     -10.510287      -285.9995
   9   2.0000     -10.494331      -285.5653
  10   2.0000     -10.481856      -285.2258
  11   2.0000     -10.481528      -285.2169
  12   2.0000     -10.473803      -285.0067
  13   2.0000     -10.468291      -284.8567
  14   2.0000     -10.466596      -284.8106
  15   2.0000     -10.461772      -284.6793
  16   2.0000     -10.429577      -283.8032
  17   2.0000     -10.417359      -283.4708
  18   2.0000      -3.661796       -99.6425
  19   2.0000      -2.309681       -62.8496
  20   2.0000      -2.306575       -62.7651
  21   2.0000      -2.270261       -61.7769
  22   2.0000      -1.185663       -32.2635
  23   2.0000      -1.152573       -31.3631
  24   2.0000      -1.087179       -29.5836
  25   2.0000      -1.063012       -28.9260
  26   2.0000      -1.051882       -28.6232
  27   2.0000      -0.983055       -26.7503
  28   2.0000      -0.891580       -24.2611
  29   2.0000      -0.850138       -23.1334
  30   2.0000      -0.821799       -22.3623
  31   2.0000      -0.821073       -22.3425
  32   2.0000      -0.808907       -22.0115
  33   2.0000      -0.799155       -21.7461
  34   2.0000      -0.727761       -19.8034
  35   2.0000      -0.695386       -18.9224
  36   2.0000      -0.674177       -18.3453
  37   2.0000      -0.603407       -16.4195
  38   2.0000      -0.596939       -16.2435
  39   2.0000      -0.590585       -16.0706
  40   2.0000      -0.583350       -15.8738
  41   2.0000      -0.578724       -15.7479
  42   2.0000      -0.560158       -15.2427
  43   2.0000      -0.535231       -14.5644
  44   2.0000      -0.528789       -14.3891
  45   2.0000      -0.524184       -14.2638
  46   2.0000      -0.523238       -14.2380
  47   2.0000      -0.514506       -14.0004
  48   2.0000      -0.512844       -13.9552
  49   2.0000      -0.497534       -13.5386
  50   2.0000      -0.495453       -13.4819
  51   2.0000      -0.489439       -13.3183
  52   2.0000      -0.479602       -13.0506
  53   2.0000      -0.470755       -12.8099
  54   2.0000      -0.457855       -12.4589
  55   2.0000      -0.447007       -12.1637
  56   2.0000      -0.443847       -12.0777
  57   2.0000      -0.439383       -11.9562
  58   2.0000      -0.436005       -11.8643
  59   2.0000      -0.434020       -11.8103
  60   2.0000      -0.431778       -11.7493
  61   2.0000      -0.423031       -11.5113
  62   2.0000      -0.419726       -11.4213
  63   2.0000      -0.406500       -11.0614
  64   2.0000      -0.380630       -10.3575
  65   2.0000      -0.374239       -10.1836
  66   2.0000      -0.354246        -9.6395
  67   2.0000      -0.343706        -9.3527
  68   2.0000      -0.341161        -9.2835
  69   2.0000      -0.334132        -9.0922
  70   2.0000      -0.320569        -8.7231
  71   2.0000      -0.312953        -8.5159
  72   2.0000      -0.304937        -8.2978
  73   2.0000      -0.294271        -8.0075
  74   2.0000      -0.291529        -7.9329
  75   2.0000      -0.278451        -7.5770
  76   2.0000      -0.272152        -7.4056
  77   0.0000      -0.114862        -3.1256
  78   0.0000      -0.064831        -1.7642
  79   0.0000      -0.012836        -0.3493
  80   0.0000      -0.006299        -0.1714
  81   0.0000       0.062492         1.7005

MULLIKEN ATOMIC CHARGES
-----------------------
   0 Pd:    0.530561
   1 O :   -0.462750
   2 C :    0.642036
   3 O :   -0.521745
   4 C :   -0.765253
   5 H :    0.251594
   6 H :    0.256891
   7 H :    0.247414
   8 N :   -0.487779
   9 C :   -0.534719
  10 H :    0.295349
  11 H :    0.225125
  12 H :    0.267613
  13 C :   -0.564196
  14 H :    0.300283
  15 H :    0.234550
  16 H :    0.286213
  17 C :   -0.034774
  18 C :   -0.208325
  19 C :   -0.220823
  20 C :   -0.205933
  21 C :   -0.251555
  22 C :   -0.040577
  23 H :    0.236665
  24 H :    0.249227
  25 H :    0.246664
  26 H :    0.239006
  27 H :    0.048910
  28 C :   -0.320728
  29 H :    0.253338
  30 H :    0.270513
  31 O :   -0.547328
  32 C :    0.566604
  33 O :   -0.456645
  34 C :   -0.744029
  35 H :    0.227145
  36 H :    0.244905
  37 H :    0.246552
Sum of atomic charges:   -0.0000000

LOEWDIN ATOMIC CHARGES
----------------------
   0 Pd:   -0.246962
   1 O :   -0.138925
   2 C :    0.160493
   3 O :   -0.239478
   4 C :   -0.378107
   5 H :    0.153400
   6 H :    0.162570
   7 H :    0.149078
   8 N :   -0.039419
   9 C :   -0.235346
  10 H :    0.163676
  11 H :    0.122923
  12 H :    0.146052
  13 C :   -0.241012
  14 H :    0.161918
  15 H :    0.127901
  16 H :    0.160177
  17 C :   -0.070245
  18 C :   -0.104416
  19 C :   -0.128435
  20 C :   -0.126799
  21 C :   -0.135235
  22 C :   -0.014319
  23 H :    0.143514
  24 H :    0.147329
  25 H :    0.158800
  26 H :    0.144970
  27 H :    0.050700
  28 C :   -0.102553
  29 H :    0.143386
  30 H :    0.155609
  31 O :   -0.179490
  32 C :    0.127355
  33 O :   -0.254442
  34 C :   -0.380871
  35 H :    0.140337
  36 H :    0.151220
  37 H :    0.144646

  Mayer bond orders larger than 0.100000
B(  0-Pd,  1-O ) :   0.5526 B(  0-Pd,  3-O ) :   0.4261 B(  0-Pd,  8-N ) :   0.4286
B(  0-Pd, 31-O ) :   0.6698 B(  0-Pd, 33-O ) :   0.1104 B(  1-O ,  2-C ) :   1.4573
B(  1-O ,  3-O ) :   0.1003 B(  2-C ,  3-O ) :   1.5275 B(  2-C ,  4-C ) :   0.9508
B(  4-C ,  5-H ) :   0.9119 B(  4-C ,  6-H ) :   0.9052 B(  4-C ,  7-H ) :   0.9107
B(  8-N ,  9-C ) :   0.9173 B(  8-N , 13-C ) :   0.9136 B(  8-N , 28-C ) :   0.8981
B(  9-C , 10-H ) :   0.8914 B(  9-C , 11-H ) :   0.9002 B(  9-C , 12-H ) :   0.9058
B( 13-C , 14-H ) :   0.8776 B( 13-C , 15-H ) :   0.9014 B( 13-C , 16-H ) :   0.8942
B( 17-C , 18-C ) :   1.3841 B( 17-C , 22-C ) :   1.4202 B( 17-C , 28-C ) :   0.9572
B( 18-C , 19-C ) :   1.4430 B( 18-C , 25-H ) :   0.9012 B( 19-C , 20-C ) :   1.4231
B( 19-C , 26-H ) :   0.9092 B( 20-C , 21-C ) :   1.4053 B( 20-C , 23-H ) :   0.9104
B( 21-C , 22-C ) :   1.4376 B( 21-C , 24-H ) :   0.9076 B( 22-C , 27-H ) :   0.8354
B( 28-C , 29-H ) :   0.8951 B( 28-C , 30-H ) :   0.9057 B( 31-O , 32-C ) :   1.2441
B( 32-C , 33-O ) :   1.8716 B( 32-C , 34-C ) :   0.9384 B( 34-C , 35-H ) :   0.9161
B( 34-C , 36-H ) :   0.9103 B( 34-C , 37-H ) :   0.9182

Dispersion correction           -0.026002422
FINAL SINGLE POINT ENERGY      -988.306560946327
Dispersion correction            ... done

DIPOLE MOMENT
-------------
                                X             Y             Z
Electronic contribution:     24.49837      25.10864     -26.27248
Nuclear contribution   :    -26.28231     -26.15246      27.22142
                        -----------------------------------------
Total Dipole Moment    :     -1.78394      -1.04383       0.94894
                        -----------------------------------------
Magnitude (a.u.)       :      2.27432
Magnitude (Debye)      :      5.78085

Rotational constants in cm-1:     0.013275     0.008303     0.007023
Rotational constants in MHz :   397.981744   248.907634   210.537257

                             ****ORCA TERMINATED NORMALLY****
TOTAL RUN TIME: 0 days 0 hours 19 minutes 5 seconds 357 msec
