                         Program Version 5.0.3 -  RELEASE  -
|  1> ! EnGrad PBEh-3c
|  2> %output
|  3> xyzfile=True
|  4> end
|  5> %scf
|  6> maxiter 250
|  7> end
|  8> %output
|  9> Print[P_Hirshfeld] = 1
| 10> end
| 11> % maxcore
| 12> 4000
| 13> *xyz 0 1
| 14> Pd   0.67232622   0.51957054  -0.46955037
| 15> O    2.13703719   1.46105108   0.35305899
| 16> C    1.61189239   2.63897438   0.29055576
| 17> O    0.44301978   2.74992365  -0.08990966
| 18> C    2.52645129   3.83474668   0.56744161
| 19> H    1.95710903   4.64074047   1.02839551
| 20> H    2.91494584   4.23211307  -0.37860291
| 21> H    3.38858995   3.59468204   1.19672195
| 22> N   -1.28971335  -0.42573591  -1.19069905
| 23> C   -1.25672481  -1.22483867  -2.43597458
| 24> H   -0.89787056  -0.57635143  -3.23037552
| 25> H   -2.29128631  -1.53316848  -2.64826872
| 26> H   -0.60163314  -2.09234936  -2.33869895
| 27> C   -2.18208520   0.73484589  -1.37112688
| 28> H   -2.22799474   1.36019948  -0.47126094
| 29> H   -3.17968941   0.34554783  -1.62352075
| 30> H   -1.79731132   1.27177685  -2.23650951
| 31> C   -1.46704802  -0.86860265   1.34320500
| 32> C   -0.61394149  -1.78233160   2.03822888
| 33> C   -0.39315659  -1.66107743   3.40257698
| 34> C   -1.26647343  -0.89287378   4.13371006
| 35> C   -2.14122084   0.00224593   3.50555339
| 36> C   -2.18353319   0.10726249   2.15140000
| 37> H   -1.15386381  -0.76089585   5.19977891
| 38> H   -2.96904972   0.46137779   4.03463608
| 39> H   -0.04975106  -2.54633618   1.49169168
| 40> H    0.27074070  -2.33188866   3.93225006
| 41> H   -2.69970692   1.79713314   1.90455257
| 42> C   -1.79998169  -1.28026123  -0.08587303
| 43> H   -2.89366227  -1.34933155  -0.18247140
| 44> H   -1.44752341  -2.30978405  -0.25124302
| 45> O    1.83310644  -0.96277946  -1.13185343
| 46> C    2.25075416  -0.70091822  -2.34847523
| 47> O    1.72886453   0.05134588  -3.15453580
| 48> C    3.53158089  -1.48182123  -2.66654266
| 49> H    3.38471637  -2.55992360  -2.56797867
| 50> H    4.35309955  -1.20113517  -2.00384241
| 51> H    3.81291625  -1.26109884  -3.69529297
| 52> *
| 53>
| 54>                          ****END OF INPUT****

CARTESIAN COORDINATES (ANGSTROEM)
---------------------------------
  Pd     0.672326    0.519571   -0.469550
  O      2.137037    1.461051    0.353059
  C      1.611892    2.638974    0.290556
  O      0.443020    2.749924   -0.089910
  C      2.526451    3.834747    0.567442
  H      1.957109    4.640740    1.028396
  H      2.914946    4.232113   -0.378603
  H      3.388590    3.594682    1.196722
  N     -1.289713   -0.425736   -1.190699
  C     -1.256725   -1.224839   -2.435975
  H     -0.897871   -0.576351   -3.230376
  H     -2.291286   -1.533168   -2.648269
  H     -0.601633   -2.092349   -2.338699
  C     -2.182085    0.734846   -1.371127
  H     -2.227995    1.360199   -0.471261
  H     -3.179689    0.345548   -1.623521
  H     -1.797311    1.271777   -2.236510
  C     -1.467048   -0.868603    1.343205
  C     -0.613941   -1.782332    2.038229
  C     -0.393157   -1.661077    3.402577
  C     -1.266473   -0.892874    4.133710
  C     -2.141221    0.002246    3.505553
  C     -2.183533    0.107262    2.151400
  H     -1.153864   -0.760896    5.199779
  H     -2.969050    0.461378    4.034636
  H     -0.049751   -2.546336    1.491692
  H      0.270741   -2.331889    3.932250
  H     -2.699707    1.797133    1.904553
  C     -1.799982   -1.280261   -0.085873
  H     -2.893662   -1.349332   -0.182471
  H     -1.447523   -2.309784   -0.251243
  O      1.833106   -0.962779   -1.131853
  C      2.250754   -0.700918   -2.348475
  O      1.728865    0.051346   -3.154536
  C      3.531581   -1.481821   -2.666543
  H      3.384716   -2.559924   -2.567979
  H      4.353100   -1.201135   -2.003842
  H      3.812916   -1.261099   -3.695293

 Total Charge           Charge          ....    0
 Multiplicity           Mult            ....    1
 Number of Electrons    NEL             ....  154
 Basis Dimension        Dim             ....  339

ORBITAL ENERGIES
----------------

  NO   OCC          E(Eh)            E(eV)
   0   2.0000     -19.507092      -530.8150
   1   2.0000     -19.496100      -530.5159
   2   2.0000     -19.476679      -529.9874
   3   2.0000     -19.439134      -528.9657
   4   2.0000     -14.707123      -400.2012
   5   2.0000     -10.575326      -287.7693
   6   2.0000     -10.536123      -286.7025
   7   2.0000     -10.516250      -286.1617
   8   2.0000     -10.501270      -285.7541
   9   2.0000     -10.495636      -285.6008
  10   2.0000     -10.479359      -285.1579
  11   2.0000     -10.475786      -285.0606
  12   2.0000     -10.472607      -284.9741
  13   2.0000     -10.463326      -284.7216
  14   2.0000     -10.462628      -284.7026
  15   2.0000     -10.460922      -284.6562
  16   2.0000     -10.444456      -284.2081
  17   2.0000     -10.414584      -283.3952
  18   2.0000      -3.658815       -99.5614
  19   2.0000      -2.309450       -62.8433
  20   2.0000      -2.302032       -62.6415
  21   2.0000      -2.267773       -61.7092
  22   2.0000      -1.205395       -32.8005
  23   2.0000      -1.145814       -31.1792
  24   2.0000      -1.091485       -29.7008
  25   2.0000      -1.064489       -28.9662
  26   2.0000      -1.053987       -28.6805
  27   2.0000      -0.972582       -26.4653
  28   2.0000      -0.877715       -23.8838
  29   2.0000      -0.853260       -23.2184
  30   2.0000      -0.824635       -22.4395
  31   2.0000      -0.813319       -22.1315
  32   2.0000      -0.795410       -21.6442
  33   2.0000      -0.791367       -21.5342
  34   2.0000      -0.711298       -19.3554
  35   2.0000      -0.685580       -18.6556
  36   2.0000      -0.669653       -18.2222
  37   2.0000      -0.618561       -16.8319
  38   2.0000      -0.592202       -16.1146
  39   2.0000      -0.585509       -15.9325
  40   2.0000      -0.566788       -15.4231
  41   2.0000      -0.564495       -15.3607
  42   2.0000      -0.551976       -15.0200
  43   2.0000      -0.547446       -14.8968
  44   2.0000      -0.543683       -14.7944
  45   2.0000      -0.527193       -14.3456
  46   2.0000      -0.525577       -14.3017
  47   2.0000      -0.514588       -14.0026
  48   2.0000      -0.506241       -13.7755
  49   2.0000      -0.494391       -13.4530
  50   2.0000      -0.488882       -13.3032
  51   2.0000      -0.485854       -13.2208
  52   2.0000      -0.473767       -12.8918
  53   2.0000      -0.464609       -12.6427
  54   2.0000      -0.458907       -12.4875
  55   2.0000      -0.454535       -12.3685
  56   2.0000      -0.450380       -12.2555
  57   2.0000      -0.447477       -12.1765
  58   2.0000      -0.433060       -11.7842
  59   2.0000      -0.430195       -11.7062
  60   2.0000      -0.429440       -11.6857
  61   2.0000      -0.418792       -11.3959
  62   2.0000      -0.414603       -11.2819
  63   2.0000      -0.407092       -11.0775
  64   2.0000      -0.381975       -10.3941
  65   2.0000      -0.376132       -10.2351
  66   2.0000      -0.361056        -9.8248
  67   2.0000      -0.356274        -9.6947
  68   2.0000      -0.353926        -9.6308
  69   2.0000      -0.340071        -9.2538
  70   2.0000      -0.318855        -8.6765
  71   2.0000      -0.315204        -8.5771
  72   2.0000      -0.306378        -8.3370
  73   2.0000      -0.301560        -8.2059
  74   2.0000      -0.298100        -8.1117
  75   2.0000      -0.291662        -7.9365
  76   2.0000      -0.275937        -7.5086
  77   0.0000      -0.056209        -1.5295
  78   0.0000      -0.051457        -1.4002
  79   0.0000      -0.009756        -0.2655
  80   0.0000       0.009027         0.2456
  81   0.0000       0.046388         1.2623

MULLIKEN ATOMIC CHARGES
-----------------------
   0 Pd:    0.538890
   1 O :   -0.505832
   2 C :    0.647914
   3 O :   -0.469380
   4 C :   -0.765274
   5 H :    0.247932
   6 H :    0.262341
   7 H :    0.256564
   8 N :   -0.461517
   9 C :   -0.516375
  10 H :    0.284161
  11 H :    0.209738
  12 H :    0.262943
  13 C :   -0.522535
  14 H :    0.275883
  15 H :    0.215828
  16 H :    0.269498
  17 C :   -0.014316
  18 C :   -0.247483
  19 C :   -0.191312
  20 C :   -0.230776
  21 C :   -0.197492
  22 C :   -0.128389
  23 H :    0.231087
  24 H :    0.242627
  25 H :    0.254455
  26 H :    0.229722
  27 H :    0.108481
  28 C :   -0.325470
  29 H :    0.240121
  30 H :    0.256716
  31 O :   -0.547495
  32 C :    0.568830
  33 O :   -0.450556
  34 C :   -0.739477
  35 H :    0.230164
  36 H :    0.245396
  37 H :    0.234388
Sum of atomic charges:   -0.0000000

LOEWDIN ATOMIC CHARGES
----------------------
   0 Pd:   -0.245883
   1 O :   -0.138360
   2 C :    0.192099
   3 O :   -0.177078
   4 C :   -0.380489
   5 H :    0.150114
   6 H :    0.163750
   7 H :    0.153662
   8 N :   -0.084782
   9 C :   -0.235166
  10 H :    0.159250
  11 H :    0.116145
  12 H :    0.148795
  13 C :   -0.233477
  14 H :    0.157623
  15 H :    0.118619
  16 H :    0.153449
  17 C :   -0.053769
  18 C :   -0.101081
  19 C :   -0.127525
  20 C :   -0.129158
  21 C :   -0.150500
  22 C :   -0.067522
  23 H :    0.142541
  24 H :    0.148019
  25 H :    0.156497
  26 H :    0.144335
  27 H :    0.102803
  28 C :   -0.110687
  29 H :    0.134221
  30 H :    0.148207
  31 O :   -0.197064
  32 C :    0.143831
  33 O :   -0.248752
  34 C :   -0.384514
  35 H :    0.142703
  36 H :    0.150048
  37 H :    0.139095

  Mayer bond orders larger than 0.100000
B(  0-Pd,  1-O ) :   0.6488 B(  0-Pd,  3-O ) :   0.3812 B(  0-Pd,  8-N ) :   0.3690
B(  0-Pd, 31-O ) :   0.6723 B(  0-Pd, 33-O ) :   0.1066 B(  1-O ,  2-C ) :   1.3120
B(  1-O ,  3-O ) :   0.1017 B(  2-C ,  3-O ) :   1.6262 B(  2-C ,  4-C ) :   0.9476
B(  4-C ,  5-H ) :   0.9100 B(  4-C ,  6-H ) :   0.9023 B(  4-C ,  7-H ) :   0.9082
B(  8-N ,  9-C ) :   0.9253 B(  8-N , 13-C ) :   0.9260 B(  8-N , 28-C ) :   0.9038
B(  9-C , 10-H ) :   0.8934 B(  9-C , 11-H ) :   0.9046 B(  9-C , 12-H ) :   0.9071
B( 13-C , 14-H ) :   0.8898 B( 13-C , 15-H ) :   0.9053 B( 13-C , 16-H ) :   0.9024
B( 17-C , 18-C ) :   1.4208 B( 17-C , 22-C ) :   1.3639 B( 17-C , 28-C ) :   0.9545
B( 18-C , 19-C ) :   1.3969 B( 18-C , 25-H ) :   0.9000 B( 19-C , 20-C ) :   1.4491
B( 19-C , 26-H ) :   0.9165 B( 20-C , 21-C ) :   1.3682 B( 20-C , 23-H ) :   0.9134
B( 21-C , 22-C ) :   1.4674 B( 21-C , 24-H ) :   0.9073 B( 22-C , 27-H ) :   0.8876
B( 28-C , 29-H ) :   0.8945 B( 28-C , 30-H ) :   0.9117 B( 31-O , 32-C ) :   1.2350
B( 31-O , 33-O ) :   0.1011 B( 32-C , 33-O ) :   1.8827 B( 32-C , 34-C ) :   0.9266
B( 34-C , 35-H ) :   0.9168 B( 34-C , 36-H ) :   0.9122 B( 34-C , 37-H ) :   0.9201

Dispersion correction           -0.025898842
FINAL SINGLE POINT ENERGY      -988.389066489901
Dispersion correction            ... done

DIPOLE MOMENT
-------------
                                X             Y             Z
Electronic contribution:     30.42327      25.28142     -23.15259
Nuclear contribution   :    -31.87034     -25.74079      24.21233
                        -----------------------------------------
Total Dipole Moment    :     -1.44708      -0.45937       1.05973
                        -----------------------------------------
Magnitude (a.u.)       :      1.85151
Magnitude (Debye)      :      4.70617

Rotational constants in cm-1:     0.013426     0.008241     0.006957
Rotational constants in MHz :   402.501693   247.047724   208.577029

                             ****ORCA TERMINATED NORMALLY****
TOTAL RUN TIME: 0 days 0 hours 20 minutes 32 seconds 143 msec
