                         Program Version 5.0.3 -  RELEASE  -
|  1> ! EnGrad PBEh-3c
|  2> %output
|  3> xyzfile=True
|  4> end
|  5> %scf
|  6> maxiter 250
|  7> end
|  8> %output
|  9> Print[P_Hirshfeld] = 1
| 10> end
| 11> % maxcore
| 12> 4000
| 13> *xyz 0 1
| 14> Pd   0.65730653   0.44851499  -0.45946214
| 15> O    2.10181189   1.44439510   0.35480153
| 16> C    1.61104716   2.58687315   0.29867119
| 17> O    0.40134044   2.71640814  -0.08697900
| 18> C    2.55276623   3.73795446   0.57274967
| 19> H    2.04985105   4.60005915   1.01581291
| 20> H    2.98491107   4.12204552  -0.36573113
| 21> H    3.41680647   3.47496539   1.20714439
| 22> N   -1.30988277  -0.48557299  -1.16105201
| 23> C   -1.24893225  -1.38637910  -2.36311114
| 24> H   -0.83617438  -0.79402335  -3.19062393
| 25> H   -2.28314712  -1.71910006  -2.58877474
| 26> H   -0.57206189  -2.25565040  -2.16553698
| 27> C   -2.20223947   0.66853132  -1.44953358
| 28> H   -2.29133047   1.32855789  -0.54731663
| 29> H   -3.18809646   0.26162176  -1.74458260
| 30> H   -1.77229332   1.14379987  -2.34151299
| 31> C   -1.52330215  -0.81369522   1.40401205
| 32> C   -0.77705628  -1.83264168   2.05050798
| 33> C   -0.51432028  -1.75673375   3.43636969
| 34> C   -1.30003523  -0.86771788   4.17468778
| 35> C   -1.99664607   0.24626054   3.57172154
| 36> C   -2.08570748   0.37411760   2.16531640
| 37> H   -1.17866934  -0.77403100   5.23920677
| 38> H   -2.70284977   1.02535501   4.06067455
| 39> H   -0.31391579  -2.68588908   1.49126154
| 40> H    0.09953796  -2.48560623   3.96232856
| 41> H   -2.25580865   1.55012066   1.70894154
| 42> C   -1.89741804  -1.23255641  -0.03896727
| 43> H   -2.99586844  -1.22651068  -0.15440753
| 44> H   -1.61726960  -2.29563026  -0.14808672
| 45> O    1.88700129  -0.95209770  -1.18698826
| 46> C    2.23384421  -0.62139202  -2.40360793
| 47> O    1.61085128   0.08178809  -3.16551824
| 48> C    3.57542599  -1.27817111  -2.72219424
| 49> H    3.49924867  -2.37938709  -2.68334313
| 50> H    4.38004944  -1.00155818  -2.01391239
| 51> H    3.83006559  -0.97297304  -3.73049146
| 52> *
| 53>
| 54>                          ****END OF INPUT****

CARTESIAN COORDINATES (ANGSTROEM)
---------------------------------
  Pd     0.657307    0.448515   -0.459462
  O      2.101812    1.444395    0.354802
  C      1.611047    2.586873    0.298671
  O      0.401340    2.716408   -0.086979
  C      2.552766    3.737954    0.572750
  H      2.049851    4.600059    1.015813
  H      2.984911    4.122046   -0.365731
  H      3.416806    3.474965    1.207144
  N     -1.309883   -0.485573   -1.161052
  C     -1.248932   -1.386379   -2.363111
  H     -0.836174   -0.794023   -3.190624
  H     -2.283147   -1.719100   -2.588775
  H     -0.572062   -2.255650   -2.165537
  C     -2.202239    0.668531   -1.449534
  H     -2.291330    1.328558   -0.547317
  H     -3.188096    0.261622   -1.744583
  H     -1.772293    1.143800   -2.341513
  C     -1.523302   -0.813695    1.404012
  C     -0.777056   -1.832642    2.050508
  C     -0.514320   -1.756734    3.436370
  C     -1.300035   -0.867718    4.174688
  C     -1.996646    0.246261    3.571722
  C     -2.085707    0.374118    2.165316
  H     -1.178669   -0.774031    5.239207
  H     -2.702850    1.025355    4.060675
  H     -0.313916   -2.685889    1.491262
  H      0.099538   -2.485606    3.962329
  H     -2.255809    1.550121    1.708942
  C     -1.897418   -1.232556   -0.038967
  H     -2.995868   -1.226511   -0.154408
  H     -1.617270   -2.295630   -0.148087
  O      1.887001   -0.952098   -1.186988
  C      2.233844   -0.621392   -2.403608
  O      1.610851    0.081788   -3.165518
  C      3.575426   -1.278171   -2.722194
  H      3.499249   -2.379387   -2.683343
  H      4.380049   -1.001558   -2.013912
  H      3.830066   -0.972973   -3.730491

 Total Charge           Charge          ....    0
 Multiplicity           Mult            ....    1
 Number of Electrons    NEL             ....  154
 Basis Dimension        Dim             ....  339

ORBITAL ENERGIES
----------------

  NO   OCC          E(Eh)            E(eV)
   0   2.0000     -19.511703      -530.9404
   1   2.0000     -19.484821      -530.2089
   2   2.0000     -19.476171      -529.9735
   3   2.0000     -19.443190      -529.0761
   4   2.0000     -14.709260      -400.2593
   5   2.0000     -10.572369      -287.6888
   6   2.0000     -10.536303      -286.7074
   7   2.0000     -10.498474      -285.6780
   8   2.0000     -10.497957      -285.6639
   9   2.0000     -10.494532      -285.5707
  10   2.0000     -10.487158      -285.3701
  11   2.0000     -10.483211      -285.2627
  12   2.0000     -10.479668      -285.1663
  13   2.0000     -10.473413      -284.9961
  14   2.0000     -10.468394      -284.8595
  15   2.0000     -10.467626      -284.8386
  16   2.0000     -10.443981      -284.1952
  17   2.0000     -10.417254      -283.4679
  18   2.0000      -3.659827       -99.5890
  19   2.0000      -2.310614       -62.8750
  20   2.0000      -2.302729       -62.6604
  21   2.0000      -2.268700       -61.7345
  22   2.0000      -1.208023       -32.8720
  23   2.0000      -1.153646       -31.3923
  24   2.0000      -1.082404       -29.4537
  25   2.0000      -1.062793       -28.9201
  26   2.0000      -1.059349       -28.8263
  27   2.0000      -0.952867       -25.9288
  28   2.0000      -0.865546       -23.5527
  29   2.0000      -0.842877       -22.9359
  30   2.0000      -0.825477       -22.4624
  31   2.0000      -0.809385       -22.0245
  32   2.0000      -0.792567       -21.5668
  33   2.0000      -0.787226       -21.4215
  34   2.0000      -0.707942       -19.2641
  35   2.0000      -0.676042       -18.3960
  36   2.0000      -0.665832       -18.1182
  37   2.0000      -0.622880       -16.9494
  38   2.0000      -0.588030       -16.0011
  39   2.0000      -0.584579       -15.9072
  40   2.0000      -0.561012       -15.2659
  41   2.0000      -0.557178       -15.1616
  42   2.0000      -0.549477       -14.9520
  43   2.0000      -0.547962       -14.9108
  44   2.0000      -0.541840       -14.7442
  45   2.0000      -0.527051       -14.3418
  46   2.0000      -0.522065       -14.2061
  47   2.0000      -0.509853       -13.8738
  48   2.0000      -0.509283       -13.8583
  49   2.0000      -0.498613       -13.5679
  50   2.0000      -0.491692       -13.3796
  51   2.0000      -0.485381       -13.2079
  52   2.0000      -0.475142       -12.9293
  53   2.0000      -0.471610       -12.8332
  54   2.0000      -0.454285       -12.3617
  55   2.0000      -0.451907       -12.2970
  56   2.0000      -0.446470       -12.1491
  57   2.0000      -0.443753       -12.0751
  58   2.0000      -0.434261       -11.8168
  59   2.0000      -0.433348       -11.7920
  60   2.0000      -0.419875       -11.4254
  61   2.0000      -0.416970       -11.3463
  62   2.0000      -0.407312       -11.0835
  63   2.0000      -0.397308       -10.8113
  64   2.0000      -0.394168       -10.7259
  65   2.0000      -0.380156       -10.3446
  66   2.0000      -0.373811       -10.1719
  67   2.0000      -0.359655        -9.7867
  68   2.0000      -0.350849        -9.5471
  69   2.0000      -0.343556        -9.3486
  70   2.0000      -0.321516        -8.7489
  71   2.0000      -0.315258        -8.5786
  72   2.0000      -0.304862        -8.2957
  73   2.0000      -0.301464        -8.2032
  74   2.0000      -0.298416        -8.1203
  75   2.0000      -0.288962        -7.8631
  76   2.0000      -0.276593        -7.5265
  77   0.0000      -0.061680        -1.6784
  78   0.0000      -0.025073        -0.6823
  79   0.0000      -0.001668        -0.0454
  80   0.0000       0.046779         1.2729
  81   0.0000       0.062066         1.6889

MULLIKEN ATOMIC CHARGES
-----------------------
   0 Pd:    0.552587
   1 O :   -0.473393
   2 C :    0.646443
   3 O :   -0.509520
   4 C :   -0.773962
   5 H :    0.249430
   6 H :    0.262684
   7 H :    0.255458
   8 N :   -0.458461
   9 C :   -0.518801
  10 H :    0.285937
  11 H :    0.212213
  12 H :    0.259974
  13 C :   -0.515225
  14 H :    0.260580
  15 H :    0.218312
  16 H :    0.273476
  17 C :    0.034406
  18 C :   -0.246462
  19 C :   -0.195455
  20 C :   -0.232091
  21 C :   -0.205627
  22 C :   -0.253524
  23 H :    0.227440
  24 H :    0.227476
  25 H :    0.243193
  26 H :    0.233587
  27 H :    0.231575
  28 C :   -0.329781
  29 H :    0.236657
  30 H :    0.249865
  31 O :   -0.543037
  32 C :    0.567953
  33 O :   -0.443185
  34 C :   -0.740095
  35 H :    0.231381
  36 H :    0.245309
  37 H :    0.232679
Sum of atomic charges:   -0.0000000

LOEWDIN ATOMIC CHARGES
----------------------
   0 Pd:   -0.230866
   1 O :   -0.101727
   2 C :    0.184134
   3 O :   -0.230353
   4 C :   -0.381135
   5 H :    0.149305
   6 H :    0.164188
   7 H :    0.154346
   8 N :   -0.086758
   9 C :   -0.235114
  10 H :    0.161184
  11 H :    0.118143
  12 H :    0.150898
  13 C :   -0.228087
  14 H :    0.153789
  15 H :    0.119494
  16 H :    0.155967
  17 C :   -0.039654
  18 C :   -0.115048
  19 C :   -0.123010
  20 C :   -0.134884
  21 C :   -0.134286
  22 C :   -0.131320
  23 H :    0.140647
  24 H :    0.148004
  25 H :    0.152994
  26 H :    0.144873
  27 H :    0.163425
  28 C :   -0.118794
  29 H :    0.131646
  30 H :    0.143744
  31 O :   -0.193284
  32 C :    0.133717
  33 O :   -0.237394
  34 C :   -0.383503
  35 H :    0.145389
  36 H :    0.151044
  37 H :    0.138285

  Mayer bond orders larger than 0.100000
B(  0-Pd,  1-O ) :   0.6153 B(  0-Pd,  3-O ) :   0.3898 B(  0-Pd,  8-N ) :   0.3754
B(  0-Pd, 31-O ) :   0.6765 B(  0-Pd, 33-O ) :   0.1057 B(  1-O ,  2-C ) :   1.3834
B(  1-O ,  3-O ) :   0.1013 B(  2-C ,  3-O ) :   1.5751 B(  2-C ,  4-C ) :   0.9470
B(  4-C ,  5-H ) :   0.9099 B(  4-C ,  6-H ) :   0.9006 B(  4-C ,  7-H ) :   0.9082
B(  8-N ,  9-C ) :   0.9175 B(  8-N , 13-C ) :   0.9234 B(  8-N , 28-C ) :   0.8996
B(  9-C , 10-H ) :   0.8886 B(  9-C , 11-H ) :   0.9036 B(  9-C , 12-H ) :   0.9072
B( 13-C , 14-H ) :   0.8988 B( 13-C , 15-H ) :   0.9024 B( 13-C , 16-H ) :   0.9020
B( 17-C , 18-C ) :   1.4540 B( 17-C , 22-C ) :   1.2938 B( 17-C , 28-C ) :   0.9506
B( 18-C , 19-C ) :   1.3558 B( 18-C , 25-H ) :   0.9058 B( 19-C , 20-C ) :   1.4751
B( 19-C , 22-C ) :   0.1022 B( 19-C , 26-H ) :   0.9144 B( 20-C , 21-C ) :   1.3395
B( 20-C , 23-H ) :   0.9165 B( 21-C , 22-C ) :   1.4768 B( 21-C , 24-H ) :   0.9134
B( 22-C , 27-H ) :   0.9042 B( 28-C , 29-H ) :   0.8936 B( 28-C , 30-H ) :   0.9131
B( 31-O , 32-C ) :   1.2339 B( 32-C , 33-O ) :   1.8933 B( 32-C , 34-C ) :   0.9225
B( 34-C , 35-H ) :   0.9164 B( 34-C , 36-H ) :   0.9132 B( 34-C , 37-H ) :   0.9187

Dispersion correction           -0.025589826
FINAL SINGLE POINT ENERGY      -988.457635269255
Dispersion correction            ... done

DIPOLE MOMENT
-------------
                                X             Y             Z
Electronic contribution:     29.99580      21.34059     -22.83108
Nuclear contribution   :    -31.33109     -21.81207      23.72839
                        -----------------------------------------
Total Dipole Moment    :     -1.33529      -0.47148       0.89731
                        -----------------------------------------
Magnitude (a.u.)       :      1.67644
Magnitude (Debye)      :      4.26117

Rotational constants in cm-1:     0.013611     0.008236     0.006902
Rotational constants in MHz :   408.052679   246.894935   206.901803

                             ****ORCA TERMINATED NORMALLY****
TOTAL RUN TIME: 0 days 0 hours 17 minutes 2 seconds 509 msec
