                         Program Version 5.0.3 -  RELEASE  -
|  1> ! EnGrad PBEh-3c
|  2> %output
|  3> xyzfile=True
|  4> end
|  5> %scf
|  6> maxiter 250
|  7> end
|  8> %output
|  9> Print[P_Hirshfeld] = 1
| 10> end
| 11> % maxcore
| 12> 4000
| 13> *xyz 0 1
| 14> Pd   0.66594354   0.48937520  -0.46526334
| 15> O    2.12206806   1.45397305   0.35379949
| 16> C    1.61153320   2.61683375   0.29400444
| 17> O    0.42530798   2.73568110  -0.08866426
| 18> C    2.53763393   3.79361443   0.56969729
| 19> H    1.99652013   4.62345278   1.02304848
| 20> H    2.94467785   4.18533942  -0.37313299
| 21> H    3.40058067   3.54380796   1.20115101
| 22> N   -1.29828443  -0.45116392  -1.17810042
| 23> C   -1.25341333  -1.29348593  -2.40501097
| 24> H   -0.87165252  -0.66885199  -3.21348292
| 25> H   -2.28782753  -1.61218085  -2.62298651
| 26> H   -0.58906672  -2.16174480  -2.26511307
| 27> C   -2.19064984   0.70666525  -1.40444612
| 28> H   -2.25490951   1.34675326  -0.50358111
| 29> H   -3.18326202   0.30988311  -1.67496647
| 30> H   -1.78667982   1.21739252  -2.28113116
| 31> C   -1.49095344  -0.84526952   1.36904520
| 32> C   -0.68325778  -1.80371107   2.04344693
| 33> C   -0.44464559  -1.70172697   3.41693733
| 34> C   -1.28073565  -0.88218368   4.15112371
| 35> C   -2.07978321   0.10594092   3.53367182
| 36> C   -2.14196176   0.22066365   2.15731383
| 37> H   -1.16440502  -0.76647769   5.21653394
| 38> H   -2.85592698   0.70104219   4.04570123
| 39> H   -0.16200893  -2.60563975   1.49150889
| 40> H    0.19798740  -2.39721156   3.94503204
| 41> H   -2.51107055   1.69216419   1.82142687
| 42> C   -1.84138766  -1.25998887  -0.06594024
| 43> H   -2.93709520  -1.29713833  -0.17054555
| 44> H   -1.51965774  -2.30376934  -0.20740633
| 45> O    1.85600928  -0.95824020  -1.15528319
| 46> C    2.24356821  -0.66712324  -2.37190410
| 47> O    1.67871432   0.06428242  -3.15920283
| 48> C    3.55021305  -1.39527929  -2.69019203
| 49> H    3.43338733  -2.48320388  -2.61700326
| 50> H    4.36455202  -1.11632412  -2.00812169
| 51> H    3.82020393  -1.13865862  -3.71025071
| 52> *
| 53>
| 54>                          ****END OF INPUT****

CARTESIAN COORDINATES (ANGSTROEM)
---------------------------------
  Pd     0.665944    0.489375   -0.465263
  O      2.122068    1.453973    0.353799
  C      1.611533    2.616834    0.294004
  O      0.425308    2.735681   -0.088664
  C      2.537634    3.793614    0.569697
  H      1.996520    4.623453    1.023048
  H      2.944678    4.185339   -0.373133
  H      3.400581    3.543808    1.201151
  N     -1.298284   -0.451164   -1.178100
  C     -1.253413   -1.293486   -2.405011
  H     -0.871653   -0.668852   -3.213483
  H     -2.287828   -1.612181   -2.622987
  H     -0.589067   -2.161745   -2.265113
  C     -2.190650    0.706665   -1.404446
  H     -2.254910    1.346753   -0.503581
  H     -3.183262    0.309883   -1.674966
  H     -1.786680    1.217393   -2.281131
  C     -1.490953   -0.845270    1.369045
  C     -0.683258   -1.803711    2.043447
  C     -0.444646   -1.701727    3.416937
  C     -1.280736   -0.882184    4.151124
  C     -2.079783    0.105941    3.533672
  C     -2.141962    0.220664    2.157314
  H     -1.164405   -0.766478    5.216534
  H     -2.855927    0.701042    4.045701
  H     -0.162009   -2.605640    1.491509
  H      0.197987   -2.397212    3.945032
  H     -2.511071    1.692164    1.821427
  C     -1.841388   -1.259989   -0.065940
  H     -2.937095   -1.297138   -0.170546
  H     -1.519658   -2.303769   -0.207406
  O      1.856009   -0.958240   -1.155283
  C      2.243568   -0.667123   -2.371904
  O      1.678714    0.064282   -3.159203
  C      3.550213   -1.395279   -2.690192
  H      3.433387   -2.483204   -2.617003
  H      4.364552   -1.116324   -2.008122
  H      3.820204   -1.138659   -3.710251

 Total Charge           Charge          ....    0
 Multiplicity           Mult            ....    1
 Number of Electrons    NEL             ....  154
 Basis Dimension        Dim             ....  339

ORBITAL ENERGIES
----------------

  NO   OCC          E(Eh)            E(eV)
   0   2.0000     -19.508910      -530.8644
   1   2.0000     -19.491101      -530.3798
   2   2.0000     -19.476246      -529.9756
   3   2.0000     -19.440637      -529.0066
   4   2.0000     -14.707802      -400.2196
   5   2.0000     -10.573985      -287.7328
   6   2.0000     -10.535685      -286.6906
   7   2.0000     -10.509940      -285.9900
   8   2.0000     -10.499588      -285.7083
   9   2.0000     -10.494402      -285.5672
  10   2.0000     -10.482443      -285.2418
  11   2.0000     -10.478592      -285.1370
  12   2.0000     -10.471966      -284.9567
  13   2.0000     -10.467099      -284.8242
  14   2.0000     -10.463344      -284.7221
  15   2.0000     -10.462619      -284.7023
  16   2.0000     -10.444064      -284.1974
  17   2.0000     -10.415102      -283.4093
  18   2.0000      -3.659113       -99.5695
  19   2.0000      -2.309799       -62.8528
  20   2.0000      -2.302220       -62.6466
  21   2.0000      -2.268028       -61.7162
  22   2.0000      -1.204376       -32.7727
  23   2.0000      -1.149736       -31.2859
  24   2.0000      -1.089035       -29.6342
  25   2.0000      -1.064272       -28.9603
  26   2.0000      -1.056708       -28.7545
  27   2.0000      -0.964508       -26.2456
  28   2.0000      -0.872836       -23.7511
  29   2.0000      -0.848275       -23.0827
  30   2.0000      -0.824977       -22.4488
  31   2.0000      -0.811887       -22.0926
  32   2.0000      -0.792641       -21.5689
  33   2.0000      -0.791548       -21.5391
  34   2.0000      -0.709529       -19.3073
  35   2.0000      -0.680737       -18.5238
  36   2.0000      -0.668700       -18.1963
  37   2.0000      -0.620091       -16.8735
  38   2.0000      -0.590353       -16.0643
  39   2.0000      -0.585150       -15.9228
  40   2.0000      -0.563715       -15.3395
  41   2.0000      -0.562222       -15.2988
  42   2.0000      -0.550025       -14.9669
  43   2.0000      -0.546453       -14.8697
  44   2.0000      -0.542865       -14.7721
  45   2.0000      -0.526439       -14.3251
  46   2.0000      -0.523384       -14.2420
  47   2.0000      -0.510655       -13.8956
  48   2.0000      -0.507847       -13.8192
  49   2.0000      -0.496323       -13.5056
  50   2.0000      -0.490247       -13.3403
  51   2.0000      -0.485134       -13.2012
  52   2.0000      -0.473578       -12.8867
  53   2.0000      -0.467950       -12.7336
  54   2.0000      -0.456910       -12.4332
  55   2.0000      -0.452905       -12.3242
  56   2.0000      -0.449487       -12.2312
  57   2.0000      -0.445790       -12.1306
  58   2.0000      -0.432072       -11.7573
  59   2.0000      -0.430592       -11.7170
  60   2.0000      -0.426761       -11.6128
  61   2.0000      -0.418011       -11.3747
  62   2.0000      -0.410413       -11.1679
  63   2.0000      -0.404211       -10.9991
  64   2.0000      -0.381060       -10.3692
  65   2.0000      -0.377268       -10.2660
  66   2.0000      -0.374476       -10.1900
  67   2.0000      -0.360767        -9.8170
  68   2.0000      -0.352758        -9.5990
  69   2.0000      -0.342021        -9.3069
  70   2.0000      -0.319678        -8.6989
  71   2.0000      -0.315513        -8.5856
  72   2.0000      -0.306144        -8.3306
  73   2.0000      -0.301575        -8.2063
  74   2.0000      -0.298276        -8.1165
  75   2.0000      -0.290967        -7.9176
  76   2.0000      -0.276366        -7.5203
  77   0.0000      -0.058241        -1.5848
  78   0.0000      -0.029018        -0.7896
  79   0.0000      -0.002888        -0.0786
  80   0.0000       0.028108         0.7648
  81   0.0000       0.046885         1.2758

MULLIKEN ATOMIC CHARGES
-----------------------
   0 Pd:    0.545968
   1 O :   -0.493000
   2 C :    0.648325
   3 O :   -0.487151
   4 C :   -0.768872
   5 H :    0.248619
   6 H :    0.262459
   7 H :    0.256045
   8 N :   -0.460081
   9 C :   -0.517802
  10 H :    0.285025
  11 H :    0.210680
  12 H :    0.261950
  13 C :   -0.518639
  14 H :    0.268794
  15 H :    0.216553
  16 H :    0.271140
  17 C :    0.009700
  18 C :   -0.246136
  19 C :   -0.194924
  20 C :   -0.229146
  21 C :   -0.191690
  22 C :   -0.198504
  23 H :    0.228288
  24 H :    0.236434
  25 H :    0.249295
  26 H :    0.230633
  27 H :    0.166004
  28 C :   -0.327794
  29 H :    0.238523
  30 H :    0.253666
  31 O :   -0.545506
  32 C :    0.568386
  33 O :   -0.446693
  34 C :   -0.740300
  35 H :    0.230828
  36 H :    0.245205
  37 H :    0.233719
Sum of atomic charges:    0.0000000

LOEWDIN ATOMIC CHARGES
----------------------
   0 Pd:   -0.238809
   1 O :   -0.123351
   2 C :    0.189147
   3 O :   -0.200100
   4 C :   -0.380783
   5 H :    0.149713
   6 H :    0.163928
   7 H :    0.153953
   8 N :   -0.085314
   9 C :   -0.235159
  10 H :    0.160028
  11 H :    0.116937
  12 H :    0.149669
  13 C :   -0.231121
  14 H :    0.155869
  15 H :    0.118841
  16 H :    0.154405
  17 C :   -0.048344
  18 C :   -0.106847
  19 C :   -0.125452
  20 C :   -0.132023
  21 C :   -0.144541
  22 C :   -0.100906
  23 H :    0.141398
  24 H :    0.146464
  25 H :    0.154713
  26 H :    0.144044
  27 H :    0.139018
  28 C :   -0.113962
  29 H :    0.133008
  30 H :    0.146154
  31 O :   -0.194727
  32 C :    0.137974
  33 O :   -0.242780
  34 C :   -0.384053
  35 H :    0.143869
  36 H :    0.150417
  37 H :    0.138721

  Mayer bond orders larger than 0.100000
B(  0-Pd,  1-O ) :   0.6345 B(  0-Pd,  3-O ) :   0.3846 B(  0-Pd,  8-N ) :   0.3716
B(  0-Pd, 31-O ) :   0.6745 B(  0-Pd, 33-O ) :   0.1063 B(  1-O ,  2-C ) :   1.3417
B(  1-O ,  3-O ) :   0.1018 B(  2-C ,  3-O ) :   1.6042 B(  2-C ,  4-C ) :   0.9477
B(  4-C ,  5-H ) :   0.9099 B(  4-C ,  6-H ) :   0.9016 B(  4-C ,  7-H ) :   0.9083
B(  8-N ,  9-C ) :   0.9223 B(  8-N , 13-C ) :   0.9254 B(  8-N , 28-C ) :   0.9028
B(  9-C , 10-H ) :   0.8914 B(  9-C , 11-H ) :   0.9043 B(  9-C , 12-H ) :   0.9070
B( 13-C , 14-H ) :   0.8939 B( 13-C , 15-H ) :   0.9041 B( 13-C , 16-H ) :   0.9024
B( 17-C , 18-C ) :   1.4352 B( 17-C , 22-C ) :   1.3352 B( 17-C , 28-C ) :   0.9528
B( 18-C , 19-C ) :   1.3820 B( 18-C , 25-H ) :   0.9028 B( 19-C , 20-C ) :   1.4577
B( 19-C , 26-H ) :   0.9161 B( 20-C , 21-C ) :   1.3628 B( 20-C , 23-H ) :   0.9154
B( 21-C , 22-C ) :   1.4596 B( 21-C , 24-H ) :   0.9100 B( 22-C , 27-H ) :   0.9063
B( 28-C , 29-H ) :   0.8942 B( 28-C , 30-H ) :   0.9125 B( 31-O , 32-C ) :   1.2348
B( 31-O , 33-O ) :   0.1003 B( 32-C , 33-O ) :   1.8886 B( 32-C , 34-C ) :   0.9251
B( 34-C , 35-H ) :   0.9166 B( 34-C , 36-H ) :   0.9127 B( 34-C , 37-H ) :   0.9195

Dispersion correction           -0.025962154
FINAL SINGLE POINT ENERGY      -988.428856920966
Dispersion correction            ... done

DIPOLE MOMENT
-------------
                                X             Y             Z
Electronic contribution:     30.22332      23.63592     -23.01659
Nuclear contribution   :    -31.64118     -24.07126      24.00668
                        -----------------------------------------
Total Dipole Moment    :     -1.41787      -0.43535       0.99009
                        -----------------------------------------
Magnitude (a.u.)       :      1.78330
Magnitude (Debye)      :      4.53278

Rotational constants in cm-1:     0.013517     0.008241     0.006937
Rotational constants in MHz :   405.218021   247.068040   207.975690

                             ****ORCA TERMINATED NORMALLY****
TOTAL RUN TIME: 0 days 0 hours 15 minutes 54 seconds 819 msec
