                         Program Version 5.0.3 -  RELEASE  -
|  1> ! EnGrad PBEh-3c
|  2> %output
|  3> xyzfile=True
|  4> end
|  5> %scf
|  6> maxiter 250
|  7> end
|  8> %output
|  9> Print[P_Hirshfeld] = 1
| 10> end
| 11> % maxcore
| 12> 4000
| 13> *xyz 0 1
| 14> Pd   0.62720582   0.43803617  -0.47002453
| 15> O    2.11170539   1.44636201   0.35918988
| 16> C    1.62123068   2.59767491   0.29320830
| 17> O    0.41447087   2.71948218  -0.07795521
| 18> C    2.54911008   3.74914051   0.57342758
| 19> H    2.04440193   4.59980746   1.01781236
| 20> H    2.97821692   4.12124099  -0.36499253
| 21> H    3.40706023   3.47686370   1.20414734
| 22> N   -1.29515915  -0.48270477  -1.15172296
| 23> C   -1.25017316  -1.36973784  -2.35405310
| 24> H   -0.83831794  -0.79311825  -3.18917916
| 25> H   -2.27348590  -1.71613081  -2.59178541
| 26> H   -0.58444415  -2.23829588  -2.17159916
| 27> C   -2.19313557   0.65545743  -1.45609218
| 28> H   -2.28334421   1.32258546  -0.56684412
| 29> H   -3.18515020   0.27037245  -1.73626253
| 30> H   -1.77477117   1.15691254  -2.32956669
| 31> C   -1.52574391  -0.81782795   1.40756662
| 32> C   -0.77100103  -1.81508599   2.05167583
| 33> C   -0.53626433  -1.75785741   3.43752427
| 34> C   -1.29092594  -0.82681963   4.17008682
| 35> C   -2.01892289   0.21890443   3.54960970
| 36> C   -2.05762337   0.37801925   2.13546902
| 37> H   -1.17318086  -0.77560679   5.24145585
| 38> H   -2.67482828   0.97564049   4.06090127
| 39> H   -0.31714959  -2.67088067   1.50101901
| 40> H    0.09830208  -2.47845193   3.95986401
| 41> H   -2.29025417   1.52009951   1.73503196
| 42> C   -1.89496346  -1.23729812  -0.03580048
| 43> H   -2.98947599  -1.22778663  -0.14996147
| 44> H   -1.61359570  -2.29128888  -0.15502640
| 45> O    1.87524482  -0.93809088  -1.18650553
| 46> C    2.24961306  -0.64716357  -2.37629063
| 47> O    1.61298415   0.08231958  -3.17248748
| 48> C    3.56958626  -1.28252698  -2.72913700
| 49> H    3.49345328  -2.37834640  -2.68252114
| 50> H    4.37111747  -1.00744618  -2.01780046
| 51> H    3.83665326  -0.98494872  -3.73060633
| 52> *
| 53>
| 54>                          ****END OF INPUT****

CARTESIAN COORDINATES (ANGSTROEM)
---------------------------------
  Pd     0.627206    0.438036   -0.470025
  O      2.111705    1.446362    0.359190
  C      1.621231    2.597675    0.293208
  O      0.414471    2.719482   -0.077955
  C      2.549110    3.749141    0.573428
  H      2.044402    4.599807    1.017812
  H      2.978217    4.121241   -0.364993
  H      3.407060    3.476864    1.204147
  N     -1.295159   -0.482705   -1.151723
  C     -1.250173   -1.369738   -2.354053
  H     -0.838318   -0.793118   -3.189179
  H     -2.273486   -1.716131   -2.591785
  H     -0.584444   -2.238296   -2.171599
  C     -2.193136    0.655457   -1.456092
  H     -2.283344    1.322585   -0.566844
  H     -3.185150    0.270372   -1.736263
  H     -1.774771    1.156913   -2.329567
  C     -1.525744   -0.817828    1.407567
  C     -0.771001   -1.815086    2.051676
  C     -0.536264   -1.757857    3.437524
  C     -1.290926   -0.826820    4.170087
  C     -2.018923    0.218904    3.549610
  C     -2.057623    0.378019    2.135469
  H     -1.173181   -0.775607    5.241456
  H     -2.674828    0.975640    4.060901
  H     -0.317150   -2.670881    1.501019
  H      0.098302   -2.478452    3.959864
  H     -2.290254    1.520100    1.735032
  C     -1.894963   -1.237298   -0.035800
  H     -2.989476   -1.227787   -0.149961
  H     -1.613596   -2.291289   -0.155026
  O      1.875245   -0.938091   -1.186506
  C      2.249613   -0.647164   -2.376291
  O      1.612984    0.082320   -3.172487
  C      3.569586   -1.282527   -2.729137
  H      3.493453   -2.378346   -2.682521
  H      4.371117   -1.007446   -2.017800
  H      3.836653   -0.984949   -3.730606

 Total Charge           Charge          ....    0
 Multiplicity           Mult            ....    1
 Number of Electrons    NEL             ....  154
 Basis Dimension        Dim             ....  339

ORBITAL ENERGIES
----------------

  NO   OCC          E(Eh)            E(eV)
   0   2.0000     -19.505492      -530.7714
   1   2.0000     -19.481981      -530.1317
   2   2.0000     -19.481018      -530.1054
   3   2.0000     -19.431305      -528.7527
   4   2.0000     -14.714722      -400.4079
   5   2.0000     -10.568218      -287.5758
   6   2.0000     -10.534741      -286.6649
   7   2.0000     -10.499978      -285.7189
   8   2.0000     -10.495747      -285.6038
   9   2.0000     -10.493437      -285.5409
  10   2.0000     -10.486330      -285.3476
  11   2.0000     -10.481258      -285.2095
  12   2.0000     -10.474328      -285.0209
  13   2.0000     -10.470625      -284.9202
  14   2.0000     -10.466967      -284.8206
  15   2.0000     -10.465855      -284.7904
  16   2.0000     -10.440206      -284.0924
  17   2.0000     -10.416621      -283.4507
  18   2.0000      -3.661303       -99.6291
  19   2.0000      -2.311308       -62.8939
  20   2.0000      -2.304729       -62.7149
  21   2.0000      -2.269873       -61.7664
  22   2.0000      -1.200168       -32.6582
  23   2.0000      -1.149005       -31.2660
  24   2.0000      -1.078927       -29.3591
  25   2.0000      -1.069015       -29.0894
  26   2.0000      -1.045456       -28.4483
  27   2.0000      -0.957378       -26.0516
  28   2.0000      -0.869602       -23.6631
  29   2.0000      -0.844196       -22.9717
  30   2.0000      -0.826115       -22.4797
  31   2.0000      -0.812756       -22.1162
  32   2.0000      -0.798007       -21.7149
  33   2.0000      -0.791186       -21.5293
  34   2.0000      -0.712099       -19.3772
  35   2.0000      -0.681620       -18.5478
  36   2.0000      -0.669412       -18.2156
  37   2.0000      -0.617109       -16.7924
  38   2.0000      -0.592343       -16.1185
  39   2.0000      -0.589739       -16.0476
  40   2.0000      -0.564740       -15.3673
  41   2.0000      -0.561717       -15.2851
  42   2.0000      -0.552277       -15.0282
  43   2.0000      -0.544004       -14.8031
  44   2.0000      -0.538021       -14.6403
  45   2.0000      -0.525242       -14.2926
  46   2.0000      -0.522784       -14.2257
  47   2.0000      -0.515882       -14.0379
  48   2.0000      -0.507633       -13.8134
  49   2.0000      -0.496572       -13.5124
  50   2.0000      -0.492443       -13.4001
  51   2.0000      -0.487592       -13.2681
  52   2.0000      -0.478853       -13.0302
  53   2.0000      -0.474248       -12.9049
  54   2.0000      -0.454847       -12.3770
  55   2.0000      -0.453157       -12.3310
  56   2.0000      -0.446533       -12.1508
  57   2.0000      -0.441829       -12.0228
  58   2.0000      -0.436679       -11.8826
  59   2.0000      -0.432336       -11.7645
  60   2.0000      -0.423840       -11.5333
  61   2.0000      -0.418067       -11.3762
  62   2.0000      -0.407981       -11.1017
  63   2.0000      -0.402686       -10.9576
  64   2.0000      -0.395456       -10.7609
  65   2.0000      -0.379373       -10.3233
  66   2.0000      -0.369780       -10.0622
  67   2.0000      -0.355639        -9.6774
  68   2.0000      -0.350753        -9.5445
  69   2.0000      -0.346187        -9.4202
  70   2.0000      -0.321115        -8.7380
  71   2.0000      -0.315865        -8.5951
  72   2.0000      -0.305323        -8.3083
  73   2.0000      -0.300382        -8.1738
  74   2.0000      -0.293979        -7.9996
  75   2.0000      -0.288449        -7.8491
  76   2.0000      -0.273054        -7.4302
  77   0.0000      -0.065401        -1.7797
  78   0.0000      -0.023933        -0.6512
  79   0.0000       0.001862         0.0507
  80   0.0000       0.050710         1.3799
  81   0.0000       0.063998         1.7415

MULLIKEN ATOMIC CHARGES
-----------------------
   0 Pd:    0.558534
   1 O :   -0.476861
   2 C :    0.645846
   3 O :   -0.506220
   4 C :   -0.772924
   5 H :    0.250411
   6 H :    0.262554
   7 H :    0.255483
   8 N :   -0.463812
   9 C :   -0.526108
  10 H :    0.292582
  11 H :    0.214564
  12 H :    0.260766
  13 C :   -0.524925
  14 H :    0.261888
  15 H :    0.223454
  16 H :    0.280083
  17 C :    0.033740
  18 C :   -0.237359
  19 C :   -0.204546
  20 C :   -0.226605
  21 C :   -0.205967
  22 C :   -0.265398
  23 H :    0.227713
  24 H :    0.229537
  25 H :    0.240180
  26 H :    0.233763
  27 H :    0.242658
  28 C :   -0.332504
  29 H :    0.240726
  30 H :    0.253034
  31 O :   -0.527161
  32 C :    0.574845
  33 O :   -0.489926
  34 C :   -0.739865
  35 H :    0.230887
  36 H :    0.244368
  37 H :    0.242565
Sum of atomic charges:   -0.0000000

LOEWDIN ATOMIC CHARGES
----------------------
   0 Pd:   -0.224052
   1 O :   -0.118070
   2 C :    0.180331
   3 O :   -0.227382
   4 C :   -0.380692
   5 H :    0.149534
   6 H :    0.164336
   7 H :    0.154389
   8 N :   -0.074567
   9 C :   -0.236956
  10 H :    0.163938
  11 H :    0.118786
  12 H :    0.149131
  13 C :   -0.229675
  14 H :    0.152401
  15 H :    0.121596
  16 H :    0.157484
  17 C :   -0.040260
  18 C :   -0.116555
  19 C :   -0.123082
  20 C :   -0.135397
  21 C :   -0.131208
  22 C :   -0.127066
  23 H :    0.140952
  24 H :    0.143508
  25 H :    0.152345
  26 H :    0.144361
  27 H :    0.165911
  28 C :   -0.115296
  29 H :    0.134002
  30 H :    0.144892
  31 O :   -0.168095
  32 C :    0.140980
  33 O :   -0.291339
  34 C :   -0.379083
  35 H :    0.145594
  36 H :    0.151456
  37 H :    0.142849

  Mayer bond orders larger than 0.100000
B(  0-Pd,  1-O ) :   0.6148 B(  0-Pd,  3-O ) :   0.3859 B(  0-Pd,  8-N ) :   0.3901
B(  0-Pd, 31-O ) :   0.6533 B(  0-Pd, 33-O ) :   0.1158 B(  1-O ,  2-C ) :   1.3779
B(  1-O ,  3-O ) :   0.1006 B(  2-C ,  3-O ) :   1.5864 B(  2-C ,  4-C ) :   0.9493
B(  4-C ,  5-H ) :   0.9097 B(  4-C ,  6-H ) :   0.9009 B(  4-C ,  7-H ) :   0.9086
B(  8-N ,  9-C ) :   0.9176 B(  8-N , 13-C ) :   0.9235 B(  8-N , 28-C ) :   0.8963
B(  9-C , 10-H ) :   0.8849 B(  9-C , 11-H ) :   0.9029 B(  9-C , 12-H ) :   0.9073
B( 13-C , 14-H ) :   0.8988 B( 13-C , 15-H ) :   0.9016 B( 13-C , 16-H ) :   0.8993
B( 17-C , 18-C ) :   1.4379 B( 17-C , 22-C ) :   1.3215 B( 17-C , 28-C ) :   0.9503
B( 18-C , 19-C ) :   1.3813 B( 18-C , 25-H ) :   0.9074 B( 19-C , 20-C ) :   1.4565
B( 19-C , 22-C ) :   0.1075 B( 19-C , 26-H ) :   0.9136 B( 20-C , 21-C ) :   1.3751
B( 20-C , 23-H ) :   0.9168 B( 21-C , 22-C ) :   1.4561 B( 21-C , 24-H ) :   0.9139
B( 22-C , 27-H ) :   0.9049 B( 28-C , 29-H ) :   0.8944 B( 28-C , 30-H ) :   0.9125
B( 31-O , 32-C ) :   1.2800 B( 31-O , 33-O ) :   0.1009 B( 32-C , 33-O ) :   1.8271
B( 32-C , 34-C ) :   0.9327 B( 34-C , 35-H ) :   0.9149 B( 34-C , 36-H ) :   0.9120
B( 34-C , 37-H ) :   0.9172

Dispersion correction           -0.025696571
FINAL SINGLE POINT ENERGY      -988.482353252225
Dispersion correction            ... done

DIPOLE MOMENT
-------------
                                X             Y             Z
Electronic contribution:     28.23330      20.66277     -23.29555
Nuclear contribution   :    -29.69227     -21.22288      24.28816
                        -----------------------------------------
Total Dipole Moment    :     -1.45897      -0.56011       0.99260
                        -----------------------------------------
Magnitude (a.u.)       :      1.85137
Magnitude (Debye)      :      4.70581

Rotational constants in cm-1:     0.013649     0.008268     0.006918
Rotational constants in MHz :   409.184050   247.865168   207.398546

                             ****ORCA TERMINATED NORMALLY****
TOTAL RUN TIME: 0 days 0 hours 14 minutes 58 seconds 602 msec
