                         Program Version 5.0.3 -  RELEASE  -
|  1> ! EnGrad PBEh-3c
|  2> %output
|  3> xyzfile=True
|  4> end
|  5> %scf
|  6> maxiter 250
|  7> end
|  8> %output
|  9> Print[P_Hirshfeld] = 1
| 10> end
| 11> % maxcore
| 12> 4000
| 13> *xyz 0 1
| 14> Pd   0.59308021   0.42473035  -0.48135534
| 15> O    2.12051438   1.44722483   0.36396635
| 16> C    1.63418405   2.60586786   0.28858617
| 17> O    0.42383829   2.72060845  -0.06900825
| 18> C    2.54699722   3.75355095   0.57365751
| 19> H    2.04278139   4.59862513   1.01992221
| 20> H    2.97502935   4.11478804  -0.36387946
| 21> H    3.39821296   3.47256995   1.20166271
| 22> N   -1.28045981  -0.48323083  -1.13867726
| 23> C   -1.24994561  -1.36089424  -2.34081147
| 24> H   -0.83741683  -0.80343077  -3.18575536
| 25> H   -2.26369703  -1.72274643  -2.59199283
| 26> H   -0.59573208  -2.22886024  -2.16874489
| 27> C   -2.18372407   0.63954588  -1.46502669
| 28> H   -2.27834237   1.31407376  -0.59241586
| 29> H   -3.18340712   0.27466814  -1.73419313
| 30> H   -1.77568908   1.16456448  -2.32355483
| 31> C   -1.53197790  -0.81717378   1.40981547
| 32> C   -0.77253640  -1.80066786   2.05552147
| 33> C   -0.56647139  -1.76178929   3.44240356
| 34> C   -1.27945863  -0.78762175   4.16654265
| 35> C   -2.03225068   0.20672673   3.52887008
| 36> C   -2.02192387   0.38024826   2.10802406
| 37> H   -1.16952842  -0.77716310   5.24558680
| 38> H   -2.63405844   0.95317564   4.06363573
| 39> H   -0.33500266  -2.66124577   1.51147722
| 40> H    0.08699967  -2.47788375   3.95834089
| 41> H   -2.30458914   1.48547271   1.74958803
| 42> C   -1.89637634  -1.23777257  -0.02963067
| 43> H   -2.98838199  -1.22281548  -0.14357914
| 44> H   -1.61873437  -2.28624298  -0.15629977
| 45> O    1.86563468  -0.92568265  -1.18281409
| 46> C    2.24907792  -0.64701936  -2.37756267
| 47> O    1.62400634   0.06519130  -3.15929726
| 48> C    3.56742459  -1.27814675  -2.73661364
| 49> H    3.49389687  -2.36785662  -2.68804914
| 50> H    4.36274143  -1.00320632  -2.02331529
| 51> H    3.84438551  -0.98166924  -3.73372176
| 52> *
| 53>
| 54>                          ****END OF INPUT****

CARTESIAN COORDINATES (ANGSTROEM)
---------------------------------
  Pd     0.593080    0.424730   -0.481355
  O      2.120514    1.447225    0.363966
  C      1.634184    2.605868    0.288586
  O      0.423838    2.720608   -0.069008
  C      2.546997    3.753551    0.573658
  H      2.042781    4.598625    1.019922
  H      2.975029    4.114788   -0.363879
  H      3.398213    3.472570    1.201663
  N     -1.280460   -0.483231   -1.138677
  C     -1.249946   -1.360894   -2.340811
  H     -0.837417   -0.803431   -3.185755
  H     -2.263697   -1.722746   -2.591993
  H     -0.595732   -2.228860   -2.168745
  C     -2.183724    0.639546   -1.465027
  H     -2.278342    1.314074   -0.592416
  H     -3.183407    0.274668   -1.734193
  H     -1.775689    1.164564   -2.323555
  C     -1.531978   -0.817174    1.409815
  C     -0.772536   -1.800668    2.055521
  C     -0.566471   -1.761789    3.442404
  C     -1.279459   -0.787622    4.166543
  C     -2.032251    0.206727    3.528870
  C     -2.021924    0.380248    2.108024
  H     -1.169528   -0.777163    5.245587
  H     -2.634058    0.953176    4.063636
  H     -0.335003   -2.661246    1.511477
  H      0.087000   -2.477884    3.958341
  H     -2.304589    1.485473    1.749588
  C     -1.896376   -1.237773   -0.029631
  H     -2.988382   -1.222815   -0.143579
  H     -1.618734   -2.286243   -0.156300
  O      1.865635   -0.925683   -1.182814
  C      2.249078   -0.647019   -2.377563
  O      1.624006    0.065191   -3.159297
  C      3.567425   -1.278147   -2.736614
  H      3.493897   -2.367857   -2.688049
  H      4.362741   -1.003206   -2.023315
  H      3.844386   -0.981669   -3.733722

 Total Charge           Charge          ....    0
 Multiplicity           Mult            ....    1
 Number of Electrons    NEL             ....  154
 Basis Dimension        Dim             ....  339

ORBITAL ENERGIES
----------------

  NO   OCC          E(Eh)            E(eV)
   0   2.0000     -19.497214      -530.5462
   1   2.0000     -19.478420      -530.0348
   2   2.0000     -19.475783      -529.9630
   3   2.0000     -19.431515      -528.7584
   4   2.0000     -14.720032      -400.5524
   5   2.0000     -10.562174      -287.4114
   6   2.0000     -10.531750      -286.5835
   7   2.0000     -10.501213      -285.7525
   8   2.0000     -10.492054      -285.5033
   9   2.0000     -10.491115      -285.4777
  10   2.0000     -10.486165      -285.3430
  11   2.0000     -10.481146      -285.2065
  12   2.0000     -10.469879      -284.8999
  13   2.0000     -10.467608      -284.8381
  14   2.0000     -10.465271      -284.7745
  15   2.0000     -10.463779      -284.7339
  16   2.0000     -10.435827      -283.9733
  17   2.0000     -10.414819      -283.4016
  18   2.0000      -3.659936       -99.5919
  19   2.0000      -2.309200       -62.8365
  20   2.0000      -2.303671       -62.6861
  21   2.0000      -2.268602       -61.7318
  22   2.0000      -1.190236       -32.3880
  23   2.0000      -1.152749       -31.3679
  24   2.0000      -1.075540       -29.2669
  25   2.0000      -1.070567       -29.1316
  26   2.0000      -1.052157       -28.6307
  27   2.0000      -0.961015       -26.1506
  28   2.0000      -0.872950       -23.7542
  29   2.0000      -0.844893       -22.9907
  30   2.0000      -0.826250       -22.4834
  31   2.0000      -0.816043       -22.2057
  32   2.0000      -0.798878       -21.7386
  33   2.0000      -0.794825       -21.6283
  34   2.0000      -0.716570       -19.4989
  35   2.0000      -0.685955       -18.6658
  36   2.0000      -0.671972       -18.2853
  37   2.0000      -0.610685       -16.6176
  38   2.0000      -0.595005       -16.1909
  39   2.0000      -0.589016       -16.0279
  40   2.0000      -0.569095       -15.4859
  41   2.0000      -0.566548       -15.4166
  42   2.0000      -0.555426       -15.1139
  43   2.0000      -0.536940       -14.6109
  44   2.0000      -0.531642       -14.4667
  45   2.0000      -0.526178       -14.3180
  46   2.0000      -0.520939       -14.1755
  47   2.0000      -0.518029       -14.0963
  48   2.0000      -0.510311       -13.8863
  49   2.0000      -0.497443       -13.5361
  50   2.0000      -0.494263       -13.4496
  51   2.0000      -0.489104       -13.3092
  52   2.0000      -0.482639       -13.1333
  53   2.0000      -0.476563       -12.9680
  54   2.0000      -0.456608       -12.4249
  55   2.0000      -0.451258       -12.2794
  56   2.0000      -0.446834       -12.1590
  57   2.0000      -0.438524       -11.9328
  58   2.0000      -0.436984       -11.8909
  59   2.0000      -0.433971       -11.8090
  60   2.0000      -0.426469       -11.6048
  61   2.0000      -0.417688       -11.3659
  62   2.0000      -0.410097       -11.1593
  63   2.0000      -0.405990       -11.0475
  64   2.0000      -0.394762       -10.7420
  65   2.0000      -0.379445       -10.3252
  66   2.0000      -0.370175       -10.0730
  67   2.0000      -0.352903        -9.6030
  68   2.0000      -0.348561        -9.4848
  69   2.0000      -0.345409        -9.3991
  70   2.0000      -0.319891        -8.7047
  71   2.0000      -0.314502        -8.5580
  72   2.0000      -0.304722        -8.2919
  73   2.0000      -0.300032        -8.1643
  74   2.0000      -0.293358        -7.9827
  75   2.0000      -0.288732        -7.8568
  76   2.0000      -0.273141        -7.4325
  77   0.0000      -0.065435        -1.7806
  78   0.0000      -0.021611        -0.5881
  79   0.0000       0.003699         0.1006
  80   0.0000       0.054957         1.4955
  81   0.0000       0.066365         1.8059

MULLIKEN ATOMIC CHARGES
-----------------------
   0 Pd:    0.553545
   1 O :   -0.478349
   2 C :    0.643590
   3 O :   -0.510018
   4 C :   -0.772128
   5 H :    0.250684
   6 H :    0.261236
   7 H :    0.255732
   8 N :   -0.471424
   9 C :   -0.533472
  10 H :    0.294969
  11 H :    0.217895
  12 H :    0.264004
  13 C :   -0.535136
  14 H :    0.265274
  15 H :    0.228100
  16 H :    0.284665
  17 C :    0.035780
  18 C :   -0.224605
  19 C :   -0.215725
  20 C :   -0.218222
  21 C :   -0.214296
  22 C :   -0.267758
  23 H :    0.227782
  24 H :    0.230817
  25 H :    0.235832
  26 H :    0.234337
  27 H :    0.248289
  28 C :   -0.334975
  29 H :    0.244158
  30 H :    0.255860
  31 O :   -0.532482
  32 C :    0.570822
  33 O :   -0.471148
  34 C :   -0.743035
  35 H :    0.231521
  36 H :    0.245165
  37 H :    0.242717
Sum of atomic charges:    0.0000000

LOEWDIN ATOMIC CHARGES
----------------------
   0 Pd:   -0.227919
   1 O :   -0.133462
   2 C :    0.176090
   3 O :   -0.233438
   4 C :   -0.380003
   5 H :    0.149747
   6 H :    0.164019
   7 H :    0.154505
   8 N :   -0.062980
   9 C :   -0.238348
  10 H :    0.164490
  11 H :    0.120110
  12 H :    0.148400
  13 C :   -0.231280
  14 H :    0.151743
  15 H :    0.123611
  16 H :    0.158290
  17 C :   -0.041963
  18 C :   -0.116059
  19 C :   -0.124075
  20 C :   -0.134788
  21 C :   -0.128958
  22 C :   -0.121614
  23 H :    0.140755
  24 H :    0.140366
  25 H :    0.151333
  26 H :    0.143830
  27 H :    0.166199
  28 C :   -0.111765
  29 H :    0.136075
  30 H :    0.146050
  31 O :   -0.170539
  32 C :    0.128623
  33 O :   -0.267234
  34 C :   -0.379591
  35 H :    0.145365
  36 H :    0.151605
  37 H :    0.142808

  Mayer bond orders larger than 0.100000
B(  0-Pd,  1-O ) :   0.6046 B(  0-Pd,  3-O ) :   0.3794 B(  0-Pd,  8-N ) :   0.4021
B(  0-Pd, 31-O ) :   0.6651 B(  0-Pd, 33-O ) :   0.1132 B(  1-O ,  2-C ) :   1.3832
B(  1-O ,  3-O ) :   0.1002 B(  2-C ,  3-O ) :   1.5895 B(  2-C ,  4-C ) :   0.9515
B(  4-C ,  5-H ) :   0.9101 B(  4-C ,  6-H ) :   0.9015 B(  4-C ,  7-H ) :   0.9087
B(  8-N ,  9-C ) :   0.9179 B(  8-N , 13-C ) :   0.9228 B(  8-N , 28-C ) :   0.8929
B(  9-C , 10-H ) :   0.8846 B(  9-C , 11-H ) :   0.9024 B(  9-C , 12-H ) :   0.9059
B( 13-C , 14-H ) :   0.8977 B( 13-C , 15-H ) :   0.9008 B( 13-C , 16-H ) :   0.8974
B( 17-C , 18-C ) :   1.4198 B( 17-C , 22-C ) :   1.3447 B( 17-C , 28-C ) :   0.9502
B( 18-C , 19-C ) :   1.4039 B( 18-C , 25-H ) :   0.9094 B( 19-C , 20-C ) :   1.4394
B( 19-C , 22-C ) :   0.1089 B( 19-C , 26-H ) :   0.9125 B( 20-C , 21-C ) :   1.4040
B( 20-C , 23-H ) :   0.9167 B( 21-C , 22-C ) :   1.4367 B( 21-C , 24-H ) :   0.9141
B( 22-C , 27-H ) :   0.9067 B( 28-C , 29-H ) :   0.8947 B( 28-C , 30-H ) :   0.9120
B( 31-O , 32-C ) :   1.2639 B( 32-C , 33-O ) :   1.8540 B( 32-C , 34-C ) :   0.9333
B( 34-C , 35-H ) :   0.9148 B( 34-C , 36-H ) :   0.9121 B( 34-C , 37-H ) :   0.9177

Dispersion correction           -0.025831821
FINAL SINGLE POINT ENERGY      -988.497431660595
Dispersion correction            ... done

DIPOLE MOMENT
-------------
                                X             Y             Z
Electronic contribution:     26.24360      19.87927     -24.01738
Nuclear contribution   :    -27.83772     -20.49510      24.91044
                        -----------------------------------------
Total Dipole Moment    :     -1.59412      -0.61583       0.89306
                        -----------------------------------------
Magnitude (a.u.)       :      1.92822
Magnitude (Debye)      :      4.90115

Rotational constants in cm-1:     0.013706     0.008306     0.006934
Rotational constants in MHz :   410.906013   249.002291   207.875606

                             ****ORCA TERMINATED NORMALLY****
TOTAL RUN TIME: 0 days 0 hours 15 minutes 33 seconds 777 msec
