                         Program Version 5.0.3 -  RELEASE  -
|  1> ! EnGrad PBEh-3c
|  2> %output
|  3> xyzfile=True
|  4> end
|  5> %scf
|  6> maxiter 250
|  7> end
|  8> %output
|  9> Print[P_Hirshfeld] = 1
| 10> end
| 11> % maxcore
| 12> 4000
| 13> *xyz 0 1
| 14> Pd   0.57342020   0.40918065  -0.48222815
| 15> O    2.11866698   1.43439502   0.36300408
| 16> C    1.62801478   2.59961893   0.28520699
| 17> O    0.42952974   2.71665241  -0.05975135
| 18> C    2.55481752   3.74138420   0.57460409
| 19> H    2.05726100   4.59101701   1.02004615
| 20> H    2.98610123   4.08938340  -0.36165096
| 21> H    3.39618230   3.44601218   1.20214713
| 22> N   -1.28009006  -0.49462984  -1.13194174
| 23> C   -1.24340570  -1.38949055  -2.31832958
| 24> H   -0.82528290  -0.85329685  -3.17261652
| 25> H   -2.25299345  -1.76159282  -2.57790757
| 26> H   -0.59925084  -2.25197080  -2.13226664
| 27> C   -2.17916603   0.62049968  -1.48261786
| 28> H   -2.28593460   1.30098253  -0.62925907
| 29> H   -3.18214228   0.25965316  -1.75615557
| 30> H   -1.77020981   1.14553538  -2.33999951
| 31> C   -1.54738917  -0.79774888   1.41310525
| 32> C   -0.80508396  -1.80712954   2.07140494
| 33> C   -0.61311638  -1.77293852   3.45212412
| 34> C   -1.27485768  -0.76437941   4.16967709
| 35> C   -2.00678797   0.25480641   3.51312015
| 36> C   -1.97745323   0.41572303   2.10632821
| 37> H   -1.17241428  -0.77750037   5.25455343
| 38> H   -2.54788575   1.03938015   4.06951646
| 39> H   -0.40248096  -2.67727310   1.52046503
| 40> H    0.03986014  -2.50456633   3.96161431
| 41> H   -2.23450564   1.41056035   1.72287648
| 42> C   -1.91450722  -1.22796406  -0.01118295
| 43> H   -3.00679702  -1.19387340  -0.13375463
| 44> H   -1.65546706  -2.28075124  -0.13730997
| 45> O    1.86664485  -0.91940071  -1.18330548
| 46> C    2.24284499  -0.62817735  -2.39173038
| 47> O    1.60936651   0.05932243  -3.15576844
| 48> C    3.57761404  -1.23815129  -2.74855586
| 49> H    3.51624049  -2.32504156  -2.71571619
| 50> H    4.35936381  -0.96122396  -2.03123673
| 51> H    3.85412558  -0.92212218  -3.74532529
| 52> *
| 53>
| 54>                          ****END OF INPUT****

CARTESIAN COORDINATES (ANGSTROEM)
---------------------------------
  Pd     0.573420    0.409181   -0.482228
  O      2.118667    1.434395    0.363004
  C      1.628015    2.599619    0.285207
  O      0.429530    2.716652   -0.059751
  C      2.554818    3.741384    0.574604
  H      2.057261    4.591017    1.020046
  H      2.986101    4.089383   -0.361651
  H      3.396182    3.446012    1.202147
  N     -1.280090   -0.494630   -1.131942
  C     -1.243406   -1.389491   -2.318330
  H     -0.825283   -0.853297   -3.172617
  H     -2.252993   -1.761593   -2.577908
  H     -0.599251   -2.251971   -2.132267
  C     -2.179166    0.620500   -1.482618
  H     -2.285935    1.300983   -0.629259
  H     -3.182142    0.259653   -1.756156
  H     -1.770210    1.145535   -2.340000
  C     -1.547389   -0.797749    1.413105
  C     -0.805084   -1.807130    2.071405
  C     -0.613116   -1.772939    3.452124
  C     -1.274858   -0.764379    4.169677
  C     -2.006788    0.254806    3.513120
  C     -1.977453    0.415723    2.106328
  H     -1.172414   -0.777500    5.254553
  H     -2.547886    1.039380    4.069516
  H     -0.402481   -2.677273    1.520465
  H      0.039860   -2.504566    3.961614
  H     -2.234506    1.410560    1.722876
  C     -1.914507   -1.227964   -0.011183
  H     -3.006797   -1.193873   -0.133755
  H     -1.655467   -2.280751   -0.137310
  O      1.866645   -0.919401   -1.183305
  C      2.242845   -0.628177   -2.391730
  O      1.609367    0.059322   -3.155768
  C      3.577614   -1.238151   -2.748556
  H      3.516240   -2.325042   -2.715716
  H      4.359364   -0.961224   -2.031237
  H      3.854126   -0.922122   -3.745325

 Total Charge           Charge          ....    0
 Multiplicity           Mult            ....    1
 Number of Electrons    NEL             ....  154
 Basis Dimension        Dim             ....  339

ORBITAL ENERGIES
----------------

  NO   OCC          E(Eh)            E(eV)
   0   2.0000     -19.491823      -530.3995
   1   2.0000     -19.476039      -529.9700
   2   2.0000     -19.474394      -529.9252
   3   2.0000     -19.435322      -528.8620
   4   2.0000     -14.721834      -400.6015
   5   2.0000     -10.558782      -287.3191
   6   2.0000     -10.531541      -286.5778
   7   2.0000     -10.502424      -285.7855
   8   2.0000     -10.490272      -285.4548
   9   2.0000     -10.486552      -285.3536
  10   2.0000     -10.481721      -285.2221
  11   2.0000     -10.481146      -285.2065
  12   2.0000     -10.470918      -284.9282
  13   2.0000     -10.467141      -284.8254
  14   2.0000     -10.465549      -284.7821
  15   2.0000     -10.464191      -284.7451
  16   2.0000     -10.432989      -283.8961
  17   2.0000     -10.414414      -283.3906
  18   2.0000      -3.658704       -99.5584
  19   2.0000      -2.307869       -62.8003
  20   2.0000      -2.302370       -62.6507
  21   2.0000      -2.267614       -61.7049
  22   2.0000      -1.187157       -32.3042
  23   2.0000      -1.155587       -31.4451
  24   2.0000      -1.077324       -29.3155
  25   2.0000      -1.070444       -29.1283
  26   2.0000      -1.056480       -28.7483
  27   2.0000      -0.961815       -26.1723
  28   2.0000      -0.873124       -23.7589
  29   2.0000      -0.849604       -23.1189
  30   2.0000      -0.823425       -22.4065
  31   2.0000      -0.818316       -22.2675
  32   2.0000      -0.798467       -21.7274
  33   2.0000      -0.794893       -21.6301
  34   2.0000      -0.719258       -19.5720
  35   2.0000      -0.687669       -18.7124
  36   2.0000      -0.674072       -18.3424
  37   2.0000      -0.607404       -16.5283
  38   2.0000      -0.597521       -16.2594
  39   2.0000      -0.586703       -15.9650
  40   2.0000      -0.571568       -15.5531
  41   2.0000      -0.568397       -15.4669
  42   2.0000      -0.559495       -15.2246
  43   2.0000      -0.534098       -14.5335
  44   2.0000      -0.529118       -14.3980
  45   2.0000      -0.528316       -14.3762
  46   2.0000      -0.521432       -14.1889
  47   2.0000      -0.515898       -14.0383
  48   2.0000      -0.511865       -13.9286
  49   2.0000      -0.498240       -13.5578
  50   2.0000      -0.497340       -13.5333
  51   2.0000      -0.492085       -13.3903
  52   2.0000      -0.484975       -13.1968
  53   2.0000      -0.477726       -12.9996
  54   2.0000      -0.457837       -12.4584
  55   2.0000      -0.450437       -12.2570
  56   2.0000      -0.447798       -12.1852
  57   2.0000      -0.439231       -11.9521
  58   2.0000      -0.436358       -11.8739
  59   2.0000      -0.434554       -11.8248
  60   2.0000      -0.426423       -11.6036
  61   2.0000      -0.417779       -11.3684
  62   2.0000      -0.411940       -11.2095
  63   2.0000      -0.406402       -11.0588
  64   2.0000      -0.396739       -10.7958
  65   2.0000      -0.379148       -10.3171
  66   2.0000      -0.371777       -10.1166
  67   2.0000      -0.352496        -9.5919
  68   2.0000      -0.348420        -9.4810
  69   2.0000      -0.343785        -9.3549
  70   2.0000      -0.318939        -8.6788
  71   2.0000      -0.313684        -8.5358
  72   2.0000      -0.305200        -8.3049
  73   2.0000      -0.301828        -8.2131
  74   2.0000      -0.294003        -8.0002
  75   2.0000      -0.288261        -7.8440
  76   2.0000      -0.273895        -7.4531
  77   0.0000      -0.064884        -1.7656
  78   0.0000      -0.019382        -0.5274
  79   0.0000       0.002249         0.0612
  80   0.0000       0.058657         1.5961
  81   0.0000       0.067375         1.8334

MULLIKEN ATOMIC CHARGES
-----------------------
   0 Pd:    0.548278
   1 O :   -0.483796
   2 C :    0.636869
   3 O :   -0.501007
   4 C :   -0.770148
   5 H :    0.248135
   6 H :    0.259458
   7 H :    0.256154
   8 N :   -0.475603
   9 C :   -0.536944
  10 H :    0.295470
  11 H :    0.218372
  12 H :    0.266996
  13 C :   -0.540249
  14 H :    0.266873
  15 H :    0.229173
  16 H :    0.286857
  17 C :    0.032415
  18 C :   -0.220711
  19 C :   -0.214279
  20 C :   -0.218065
  21 C :   -0.225545
  22 C :   -0.252726
  23 H :    0.227875
  24 H :    0.228931
  25 H :    0.232507
  26 H :    0.233590
  27 H :    0.252969
  28 C :   -0.337202
  29 H :    0.244762
  30 H :    0.257019
  31 O :   -0.539785
  32 C :    0.567101
  33 O :   -0.450006
  34 C :   -0.744095
  35 H :    0.233002
  36 H :    0.247972
  37 H :    0.239382
Sum of atomic charges:    0.0000000

LOEWDIN ATOMIC CHARGES
----------------------
   0 Pd:   -0.231192
   1 O :   -0.145039
   2 C :    0.170067
   3 O :   -0.224371
   4 C :   -0.380835
   5 H :    0.148384
   6 H :    0.162550
   7 H :    0.154215
   8 N :   -0.060241
   9 C :   -0.239133
  10 H :    0.164487
  11 H :    0.120316
  12 H :    0.148469
  13 C :   -0.232174
  14 H :    0.150524
  15 H :    0.124156
  16 H :    0.158748
  17 C :   -0.040278
  18 C :   -0.114569
  19 C :   -0.126584
  20 C :   -0.132064
  21 C :   -0.124798
  22 C :   -0.118684
  23 H :    0.140885
  24 H :    0.140266
  25 H :    0.149572
  26 H :    0.143740
  27 H :    0.159459
  28 C :   -0.110081
  29 H :    0.136804
  30 H :    0.146614
  31 O :   -0.179852
  32 C :    0.124573
  33 O :   -0.242796
  34 C :   -0.380894
  35 H :    0.145728
  36 H :    0.151973
  37 H :    0.142053

  Mayer bond orders larger than 0.100000
B(  0-Pd,  1-O ) :   0.6088 B(  0-Pd,  3-O ) :   0.3629 B(  0-Pd,  8-N ) :   0.4051
B(  0-Pd, 31-O ) :   0.6794 B(  0-Pd, 33-O ) :   0.1092 B(  1-O ,  2-C ) :   1.3693
B(  2-C ,  3-O ) :   1.6154 B(  2-C ,  4-C ) :   0.9500 B(  4-C ,  5-H ) :   0.9114
B(  4-C ,  6-H ) :   0.9027 B(  4-C ,  7-H ) :   0.9090 B(  8-N ,  9-C ) :   0.9185
B(  8-N , 13-C ) :   0.9232 B(  8-N , 28-C ) :   0.8879 B(  9-C , 10-H ) :   0.8843
B(  9-C , 11-H ) :   0.9029 B(  9-C , 12-H ) :   0.9044 B( 13-C , 14-H ) :   0.8974
B( 13-C , 15-H ) :   0.9009 B( 13-C , 16-H ) :   0.8965 B( 17-C , 18-C ) :   1.4141
B( 17-C , 22-C ) :   1.3491 B( 17-C , 28-C ) :   0.9506 B( 18-C , 19-C ) :   1.4062
B( 18-C , 25-H ) :   0.9109 B( 19-C , 20-C ) :   1.4407 B( 19-C , 22-C ) :   0.1011
B( 19-C , 26-H ) :   0.9125 B( 20-C , 21-C ) :   1.3946 B( 20-C , 23-H ) :   0.9170
B( 21-C , 22-C ) :   1.4516 B( 21-C , 24-H ) :   0.9152 B( 22-C , 27-H ) :   0.9073
B( 28-C , 29-H ) :   0.8943 B( 28-C , 30-H ) :   0.9123 B( 31-O , 32-C ) :   1.2404
B( 32-C , 33-O ) :   1.8827 B( 32-C , 34-C ) :   0.9314 B( 34-C , 35-H ) :   0.9147
B( 34-C , 36-H ) :   0.9114 B( 34-C , 37-H ) :   0.9191

Dispersion correction           -0.025915578
FINAL SINGLE POINT ENERGY      -988.508624647650
Dispersion correction            ... done

DIPOLE MOMENT
-------------
                                X             Y             Z
Electronic contribution:     25.14588      18.98893     -24.18664
Nuclear contribution   :    -26.81112     -19.63923      24.97981
                        -----------------------------------------
Total Dipole Moment    :     -1.66524      -0.65030       0.79317
                        -----------------------------------------
Magnitude (a.u.)       :      1.95577
Magnitude (Debye)      :      4.97117

Rotational constants in cm-1:     0.013775     0.008331     0.006933
Rotational constants in MHz :   412.955488   249.758794   207.845224

                             ****ORCA TERMINATED NORMALLY****
TOTAL RUN TIME: 0 days 0 hours 13 minutes 38 seconds 40 msec
