                         Program Version 5.0.3 -  RELEASE  -
|  1> ! EnGrad PBEh-3c
|  2> %output
|  3> xyzfile=True
|  4> end
|  5> %scf
|  6> maxiter 250
|  7> end
|  8> %output
|  9> Print[P_Hirshfeld] = 1
| 10> end
| 11> % maxcore
| 12> 4000
| 13> *xyz 0 1
| 14> Pd   0.54203200   0.38418978  -0.47801174
| 15> O    2.11166974   1.39759490   0.35264657
| 16> C    1.61690223   2.58088866   0.28243438
| 17> O    0.43362683   2.71032766  -0.04007168
| 18> C    2.56996742   3.71426247   0.57536938
| 19> H    2.08620170   4.57595888   1.02140215
| 20> H    3.01114636   4.03564640  -0.36030920
| 21> H    3.39150561   3.38679971   1.20453833
| 22> N   -1.28726785  -0.51932922  -1.12412908
| 23> C   -1.22837731  -1.45304767  -2.27233997
| 24> H   -0.79988768  -0.96076660  -3.14189150
| 25> H   -2.22641637  -1.84205579  -2.54407675
| 26> H   -0.60416992  -2.30326475  -2.05080701
| 27> C   -2.17050984   0.58315668  -1.52268670
| 28> H   -2.30219449   1.27539534  -0.70769460
| 29> H   -3.17554350   0.22598505  -1.80281089
| 30> H   -1.75733635   1.10611291  -2.37603336
| 31> C   -1.56699597  -0.75876598   1.42333708
| 32> C   -0.88848552  -1.81345725   2.10168446
| 33> C   -0.70774668  -1.78992004   3.47808241
| 34> C   -1.27363025  -0.71488694   4.17238382
| 35> C   -1.93440455   0.36486534   3.49074353
| 36> C   -1.87478811   0.43314442   2.11709687
| 37> H   -1.18275959  -0.77414147   5.26861887
| 38> H   -2.35449393   1.22000271   4.07847555
| 39> H   -0.55164545  -2.70468084   1.54152015
| 40> H   -0.07105415  -2.55524678   3.96466957
| 41> H   -2.09433085   1.26835955   1.65009575
| 42> C   -1.95313818  -1.20260697   0.02744025
| 43> H   -3.04475624  -1.13007025  -0.11284727
| 44> H   -1.73366323  -2.26751571  -0.09235792
| 45> O    1.86705453  -0.90988909  -1.18665524
| 46> C    2.23953999  -0.60251282  -2.39745688
| 47> O    1.56453375   0.06349216  -3.16827533
| 48> C    3.59834571  -1.15039442  -2.77634322
| 49> H    3.56476312  -2.23501494  -2.77640002
| 50> H    4.35159251  -0.86841936  -2.04825809
| 51> H    3.87644241  -0.79352710  -3.76988452
| 52> *
| 53>
| 54>                          ****END OF INPUT****

CARTESIAN COORDINATES (ANGSTROEM)
---------------------------------
  Pd     0.542032    0.384190   -0.478012
  O      2.111670    1.397595    0.352647
  C      1.616902    2.580889    0.282434
  O      0.433627    2.710328   -0.040072
  C      2.569967    3.714262    0.575369
  H      2.086202    4.575959    1.021402
  H      3.011146    4.035646   -0.360309
  H      3.391506    3.386800    1.204538
  N     -1.287268   -0.519329   -1.124129
  C     -1.228377   -1.453048   -2.272340
  H     -0.799888   -0.960767   -3.141891
  H     -2.226416   -1.842056   -2.544077
  H     -0.604170   -2.303265   -2.050807
  C     -2.170510    0.583157   -1.522687
  H     -2.302194    1.275395   -0.707695
  H     -3.175543    0.225985   -1.802811
  H     -1.757336    1.106113   -2.376033
  C     -1.566996   -0.758766    1.423337
  C     -0.888486   -1.813457    2.101684
  C     -0.707747   -1.789920    3.478082
  C     -1.273630   -0.714887    4.172384
  C     -1.934405    0.364865    3.490744
  C     -1.874788    0.433144    2.117097
  H     -1.182760   -0.774141    5.268619
  H     -2.354494    1.220003    4.078476
  H     -0.551645   -2.704681    1.541520
  H     -0.071054   -2.555247    3.964670
  H     -2.094331    1.268360    1.650096
  C     -1.953138   -1.202607    0.027440
  H     -3.044756   -1.130070   -0.112847
  H     -1.733663   -2.267516   -0.092358
  O      1.867055   -0.909889   -1.186655
  C      2.239540   -0.602513   -2.397457
  O      1.564534    0.063492   -3.168275
  C      3.598346   -1.150394   -2.776343
  H      3.564763   -2.235015   -2.776400
  H      4.351593   -0.868419   -2.048258
  H      3.876442   -0.793527   -3.769885

 Total Charge           Charge          ....    0
 Multiplicity           Mult            ....    1
 Number of Electrons    NEL             ....  154
 Basis Dimension        Dim             ....  339

ORBITAL ENERGIES
----------------

  NO   OCC          E(Eh)            E(eV)
   0   2.0000     -19.487922      -530.2933
   1   2.0000     -19.477064      -529.9979
   2   2.0000     -19.475846      -529.9647
   3   2.0000     -19.434083      -528.8283
   4   2.0000     -14.723758      -400.6538
   5   2.0000     -10.557483      -287.2837
   6   2.0000     -10.533476      -286.6305
   7   2.0000     -10.505902      -285.8801
   8   2.0000     -10.485516      -285.3254
   9   2.0000     -10.483532      -285.2714
  10   2.0000     -10.479017      -285.1485
  11   2.0000     -10.472524      -284.9719
  12   2.0000     -10.469211      -284.8817
  13   2.0000     -10.466192      -284.7996
  14   2.0000     -10.463085      -284.7150
  15   2.0000     -10.462256      -284.6925
  16   2.0000     -10.431461      -283.8545
  17   2.0000     -10.415310      -283.4150
  18   2.0000      -3.659097       -99.5691
  19   2.0000      -2.308632       -62.8211
  20   2.0000      -2.302351       -62.6502
  21   2.0000      -2.268262       -61.7226
  22   2.0000      -1.185435       -32.2573
  23   2.0000      -1.149080       -31.2680
  24   2.0000      -1.079295       -29.3691
  25   2.0000      -1.070659       -29.1341
  26   2.0000      -1.050837       -28.5947
  27   2.0000      -0.969379       -26.3781
  28   2.0000      -0.876376       -23.8474
  29   2.0000      -0.858953       -23.3733
  30   2.0000      -0.822499       -22.3813
  31   2.0000      -0.820275       -22.3208
  32   2.0000      -0.799110       -21.7449
  33   2.0000      -0.796086       -21.6626
  34   2.0000      -0.722733       -19.6666
  35   2.0000      -0.695276       -18.9194
  36   2.0000      -0.678434       -18.4611
  37   2.0000      -0.608709       -16.5638
  38   2.0000      -0.600244       -16.3335
  39   2.0000      -0.586199       -15.9513
  40   2.0000      -0.575543       -15.6613
  41   2.0000      -0.571320       -15.5464
  42   2.0000      -0.563382       -15.3304
  43   2.0000      -0.533217       -14.5096
  44   2.0000      -0.530846       -14.4451
  45   2.0000      -0.527194       -14.3457
  46   2.0000      -0.523469       -14.2443
  47   2.0000      -0.514331       -13.9956
  48   2.0000      -0.509632       -13.8678
  49   2.0000      -0.504725       -13.7343
  50   2.0000      -0.495959       -13.4957
  51   2.0000      -0.491992       -13.3878
  52   2.0000      -0.485529       -13.2119
  53   2.0000      -0.480065       -13.0632
  54   2.0000      -0.457912       -12.4604
  55   2.0000      -0.451491       -12.2857
  56   2.0000      -0.450056       -12.2467
  57   2.0000      -0.442528       -12.0418
  58   2.0000      -0.436104       -11.8670
  59   2.0000      -0.433598       -11.7988
  60   2.0000      -0.428350       -11.6560
  61   2.0000      -0.418404       -11.3854
  62   2.0000      -0.415303       -11.3010
  63   2.0000      -0.407907       -11.0997
  64   2.0000      -0.397610       -10.8195
  65   2.0000      -0.377371       -10.2688
  66   2.0000      -0.370900       -10.0927
  67   2.0000      -0.352003        -9.5785
  68   2.0000      -0.349003        -9.4969
  69   2.0000      -0.343186        -9.3386
  70   2.0000      -0.318671        -8.6715
  71   2.0000      -0.314418        -8.5557
  72   2.0000      -0.308619        -8.3979
  73   2.0000      -0.303608        -8.2616
  74   2.0000      -0.292722        -7.9654
  75   2.0000      -0.288745        -7.8572
  76   2.0000      -0.273200        -7.4341
  77   0.0000      -0.066315        -1.8045
  78   0.0000      -0.014863        -0.4044
  79   0.0000       0.001355         0.0369
  80   0.0000       0.060778         1.6538
  81   0.0000       0.066959         1.8221

MULLIKEN ATOMIC CHARGES
-----------------------
   0 Pd:    0.546288
   1 O :   -0.494431
   2 C :    0.629318
   3 O :   -0.483413
   4 C :   -0.766192
   5 H :    0.244939
   6 H :    0.258526
   7 H :    0.256491
   8 N :   -0.480784
   9 C :   -0.542788
  10 H :    0.299844
  11 H :    0.218396
  12 H :    0.270631
  13 C :   -0.550046
  14 H :    0.269967
  15 H :    0.230272
  16 H :    0.292271
  17 C :    0.046651
  18 C :   -0.233495
  19 C :   -0.204253
  20 C :   -0.231367
  21 C :   -0.235351
  22 C :   -0.216316
  23 H :    0.226223
  24 H :    0.227530
  25 H :    0.226256
  26 H :    0.233320
  27 H :    0.246610
  28 C :   -0.342925
  29 H :    0.246044
  30 H :    0.259020
  31 O :   -0.538616
  32 C :    0.570573
  33 O :   -0.462879
  34 C :   -0.741090
  35 H :    0.234333
  36 H :    0.251012
  37 H :    0.239431
Sum of atomic charges:   -0.0000000

LOEWDIN ATOMIC CHARGES
----------------------
   0 Pd:   -0.230221
   1 O :   -0.161849
   2 C :    0.167916
   3 O :   -0.208214
   4 C :   -0.381878
   5 H :    0.147087
   6 H :    0.161308
   7 H :    0.153994
   8 N :   -0.057839
   9 C :   -0.240933
  10 H :    0.166148
  11 H :    0.119943
  12 H :    0.148145
  13 C :   -0.234914
  14 H :    0.148369
  15 H :    0.124511
  16 H :    0.160151
  17 C :   -0.045951
  18 C :   -0.107766
  19 C :   -0.133749
  20 C :   -0.122794
  21 C :   -0.120725
  22 C :   -0.112439
  23 H :    0.140048
  24 H :    0.143949
  25 H :    0.144753
  26 H :    0.144573
  27 H :    0.145987
  28 C :   -0.103575
  29 H :    0.138236
  30 H :    0.147915
  31 O :   -0.180722
  32 C :    0.137469
  33 O :   -0.258889
  34 C :   -0.380077
  35 H :    0.146511
  36 H :    0.151995
  37 H :    0.143528

  Mayer bond orders larger than 0.100000
B(  0-Pd,  1-O ) :   0.6236 B(  0-Pd,  3-O ) :   0.3406 B(  0-Pd,  8-N ) :   0.4102
B(  0-Pd, 31-O ) :   0.6763 B(  0-Pd, 33-O ) :   0.1115 B(  1-O ,  2-C ) :   1.3368
B(  2-C ,  3-O ) :   1.6560 B(  2-C ,  4-C ) :   0.9475 B(  4-C ,  5-H ) :   0.9132
B(  4-C ,  6-H ) :   0.9037 B(  4-C ,  7-H ) :   0.9089 B(  8-N ,  9-C ) :   0.9193
B(  8-N , 13-C ) :   0.9243 B(  8-N , 28-C ) :   0.8799 B(  9-C , 10-H ) :   0.8810
B(  9-C , 11-H ) :   0.9037 B(  9-C , 12-H ) :   0.9025 B( 13-C , 14-H ) :   0.8960
B( 13-C , 15-H ) :   0.9013 B( 13-C , 16-H ) :   0.8942 B( 17-C , 18-C ) :   1.3982
B( 17-C , 22-C ) :   1.3765 B( 17-C , 28-C ) :   0.9458 B( 18-C , 19-C ) :   1.4125
B( 18-C , 25-H ) :   0.9131 B( 19-C , 20-C ) :   1.4406 B( 19-C , 26-H ) :   0.9128
B( 20-C , 21-C ) :   1.3800 B( 20-C , 23-H ) :   0.9179 B( 21-C , 22-C ) :   1.4638
B( 21-C , 24-H ) :   0.9180 B( 22-C , 27-H ) :   0.9076 B( 28-C , 29-H ) :   0.8934
B( 28-C , 30-H ) :   0.9132 B( 31-O , 32-C ) :   1.2430 B( 32-C , 33-O ) :   1.8617
B( 32-C , 34-C ) :   0.9339 B( 34-C , 35-H ) :   0.9137 B( 34-C , 36-H ) :   0.9092
B( 34-C , 37-H ) :   0.9202

Dispersion correction           -0.026060948
FINAL SINGLE POINT ENERGY      -988.504459903696
Dispersion correction            ... done

DIPOLE MOMENT
-------------
                                X             Y             Z
Electronic contribution:     23.48007      17.56504     -24.00334
Nuclear contribution   :    -25.19953     -18.27168      24.79138
                        -----------------------------------------
Total Dipole Moment    :     -1.71946      -0.70664       0.78804
                        -----------------------------------------
Magnitude (a.u.)       :      2.01914
Magnitude (Debye)      :      5.13224

Rotational constants in cm-1:     0.013920     0.008377     0.006924
Rotational constants in MHz :   417.306923   251.135930   207.583011

                             ****ORCA TERMINATED NORMALLY****
TOTAL RUN TIME: 0 days 0 hours 17 minutes 22 seconds 898 msec
