                         Program Version 5.0.3 -  RELEASE  -
|  1> ! EnGrad PBEh-3c
|  2> %output
|  3> xyzfile=True
|  4> end
|  5> %scf
|  6> maxiter 250
|  7> end
|  8> %output
|  9> Print[P_Hirshfeld] = 1
| 10> end
| 11> % maxcore
| 12> 4000
| 13> *xyz 0 1
| 14> Pd   0.53525642   0.38252319  -0.47086117
| 15> O    2.10619253   1.36788415   0.33573909
| 16> C    1.60947773   2.56498545   0.28413589
| 17> O    0.43090179   2.70678163  -0.02517729
| 18> C    2.57544619   3.69788796   0.57453676
| 19> H    2.09800868   4.56808242   1.02291314
| 20> H    3.02515021   4.00769739  -0.36427054
| 21> H    3.38681267   3.35268624   1.20684982
| 22> N   -1.30036123  -0.53116518  -1.12653043
| 23> C   -1.21926160  -1.48750170  -2.25024795
| 24> H   -0.78708685  -1.01619197  -3.12399301
| 25> H   -2.20907173  -1.88013404  -2.52212213
| 26> H   -0.60333183  -2.33114522  -2.00344610
| 27> C   -2.16741934   0.56733562  -1.54824886
| 28> H   -2.31112128   1.26686769  -0.74796497
| 29> H   -3.16812181   0.20661611  -1.82637090
| 30> H   -1.74931769   1.09015754  -2.39576241
| 31> C   -1.55709616  -0.76219555   1.42637493
| 32> C   -0.93984916  -1.81444297   2.12063554
| 33> C   -0.75872722  -1.78186370   3.48802908
| 34> C   -1.27887902  -0.68841178   4.17601996
| 35> C   -1.87435272   0.42440796   3.50370030
| 36> C   -1.80859979   0.35664543   2.15787672
| 37> H   -1.19660540  -0.76530621   5.26725032
| 38> H   -2.23960636   1.30421508   4.07500823
| 39> H   -0.63709006  -2.70286161   1.55667870
| 40> H   -0.14241960  -2.57183084   3.96149538
| 41> H   -2.04073331   1.24217811   1.56853305
| 42> C   -1.97204582  -1.18350174   0.04331475
| 43> H   -3.06163241  -1.09496736  -0.10068413
| 44> H   -1.77249774  -2.25535990  -0.06100350
| 45> O    1.86380075  -0.91369637  -1.18549131
| 46> C    2.22220450  -0.57534600  -2.41052306
| 47> O    1.55325783   0.05824291  -3.16413397
| 48> C    3.60766968  -1.10510791  -2.79228313
| 49> H    3.59170261  -2.18964519  -2.80966892
| 50> H    4.34722060  -0.81655771  -2.05728427
| 51> H    3.88988648  -0.72717888  -3.78143561
| 52> *
| 53>
| 54>                          ****END OF INPUT****

CARTESIAN COORDINATES (ANGSTROEM)
---------------------------------
  Pd     0.535256    0.382523   -0.470861
  O      2.106193    1.367884    0.335739
  C      1.609478    2.564985    0.284136
  O      0.430902    2.706782   -0.025177
  C      2.575446    3.697888    0.574537
  H      2.098009    4.568082    1.022913
  H      3.025150    4.007697   -0.364271
  H      3.386813    3.352686    1.206850
  N     -1.300361   -0.531165   -1.126530
  C     -1.219262   -1.487502   -2.250248
  H     -0.787087   -1.016192   -3.123993
  H     -2.209072   -1.880134   -2.522122
  H     -0.603332   -2.331145   -2.003446
  C     -2.167419    0.567336   -1.548249
  H     -2.311121    1.266868   -0.747965
  H     -3.168122    0.206616   -1.826371
  H     -1.749318    1.090158   -2.395762
  C     -1.557096   -0.762196    1.426375
  C     -0.939849   -1.814443    2.120636
  C     -0.758727   -1.781864    3.488029
  C     -1.278879   -0.688412    4.176020
  C     -1.874353    0.424408    3.503700
  C     -1.808600    0.356645    2.157877
  H     -1.196605   -0.765306    5.267250
  H     -2.239606    1.304215    4.075008
  H     -0.637090   -2.702862    1.556679
  H     -0.142420   -2.571831    3.961495
  H     -2.040733    1.242178    1.568533
  C     -1.972046   -1.183502    0.043315
  H     -3.061632   -1.094967   -0.100684
  H     -1.772498   -2.255360   -0.061004
  O      1.863801   -0.913696   -1.185491
  C      2.222204   -0.575346   -2.410523
  O      1.553258    0.058243   -3.164134
  C      3.607670   -1.105108   -2.792283
  H      3.591703   -2.189645   -2.809669
  H      4.347221   -0.816558   -2.057284
  H      3.889886   -0.727179   -3.781436

 Total Charge           Charge          ....    0
 Multiplicity           Mult            ....    1
 Number of Electrons    NEL             ....  154
 Basis Dimension        Dim             ....  339

ORBITAL ENERGIES
----------------

  NO   OCC          E(Eh)            E(eV)
   0   2.0000     -19.489251      -530.3295
   1   2.0000     -19.479101      -530.0533
   2   2.0000     -19.473777      -529.9084
   3   2.0000     -19.439996      -528.9892
   4   2.0000     -14.722112      -400.6090
   5   2.0000     -10.559830      -287.3476
   6   2.0000     -10.533261      -286.6246
   7   2.0000     -10.507151      -285.9141
   8   2.0000     -10.483588      -285.2729
   9   2.0000     -10.477466      -285.1063
  10   2.0000     -10.473301      -284.9930
  11   2.0000     -10.468414      -284.8600
  12   2.0000     -10.467221      -284.8276
  13   2.0000     -10.460829      -284.6536
  14   2.0000     -10.460624      -284.6480
  15   2.0000     -10.459239      -284.6104
  16   2.0000     -10.433518      -283.9105
  17   2.0000     -10.414386      -283.3899
  18   2.0000      -3.657882       -99.5360
  19   2.0000      -2.307583       -62.7925
  20   2.0000      -2.300845       -62.6092
  21   2.0000      -2.267460       -61.7007
  22   2.0000      -1.186540       -32.2874
  23   2.0000      -1.157202       -31.4891
  24   2.0000      -1.079520       -29.3752
  25   2.0000      -1.071985       -29.1702
  26   2.0000      -1.055544       -28.7228
  27   2.0000      -0.980060       -26.6688
  28   2.0000      -0.882385       -24.0109
  29   2.0000      -0.857474       -23.3331
  30   2.0000      -0.824366       -22.4321
  31   2.0000      -0.819392       -22.2968
  32   2.0000      -0.800693       -21.7880
  33   2.0000      -0.794024       -21.6065
  34   2.0000      -0.722403       -19.6576
  35   2.0000      -0.699327       -19.0297
  36   2.0000      -0.676321       -18.4036
  37   2.0000      -0.608573       -16.5601
  38   2.0000      -0.600247       -16.3336
  39   2.0000      -0.582392       -15.8477
  40   2.0000      -0.575995       -15.6736
  41   2.0000      -0.572359       -15.5747
  42   2.0000      -0.561056       -15.2671
  43   2.0000      -0.534829       -14.5534
  44   2.0000      -0.531614       -14.4660
  45   2.0000      -0.527607       -14.3569
  46   2.0000      -0.522627       -14.2214
  47   2.0000      -0.514804       -14.0085
  48   2.0000      -0.510673       -13.8961
  49   2.0000      -0.497834       -13.5467
  50   2.0000      -0.497086       -13.5264
  51   2.0000      -0.492915       -13.4129
  52   2.0000      -0.488252       -13.2860
  53   2.0000      -0.483231       -13.1494
  54   2.0000      -0.459618       -12.5068
  55   2.0000      -0.452791       -12.3211
  56   2.0000      -0.450857       -12.2685
  57   2.0000      -0.443917       -12.0796
  58   2.0000      -0.437153       -11.8955
  59   2.0000      -0.433757       -11.8031
  60   2.0000      -0.432273       -11.7627
  61   2.0000      -0.418315       -11.3829
  62   2.0000      -0.417489       -11.3605
  63   2.0000      -0.408008       -11.1025
  64   2.0000      -0.388980       -10.5847
  65   2.0000      -0.377782       -10.2800
  66   2.0000      -0.372900       -10.1471
  67   2.0000      -0.353963        -9.6318
  68   2.0000      -0.349925        -9.5219
  69   2.0000      -0.343806        -9.3554
  70   2.0000      -0.319280        -8.6880
  71   2.0000      -0.314533        -8.5589
  72   2.0000      -0.309883        -8.4323
  73   2.0000      -0.304534        -8.2868
  74   2.0000      -0.294925        -8.0253
  75   2.0000      -0.291440        -7.9305
  76   2.0000      -0.275920        -7.5082
  77   0.0000      -0.063960        -1.7404
  78   0.0000      -0.009446        -0.2570
  79   0.0000       0.006450         0.1755
  80   0.0000       0.059133         1.6091
  81   0.0000       0.065269         1.7761

MULLIKEN ATOMIC CHARGES
-----------------------
   0 Pd:    0.535266
   1 O :   -0.501495
   2 C :    0.629510
   3 O :   -0.473620
   4 C :   -0.763816
   5 H :    0.244163
   6 H :    0.257870
   7 H :    0.256502
   8 N :   -0.479130
   9 C :   -0.543020
  10 H :    0.298156
  11 H :    0.218578
  12 H :    0.272664
  13 C :   -0.552232
  14 H :    0.271194
  15 H :    0.229147
  16 H :    0.292090
  17 C :    0.140450
  18 C :   -0.263308
  19 C :   -0.188688
  20 C :   -0.262605
  21 C :   -0.199485
  22 C :   -0.281547
  23 H :    0.224898
  24 H :    0.233334
  25 H :    0.223429
  26 H :    0.231022
  27 H :    0.227457
  28 C :   -0.346413
  29 H :    0.247309
  30 H :    0.259010
  31 O :   -0.547355
  32 C :    0.562351
  33 O :   -0.429165
  34 C :   -0.741652
  35 H :    0.234041
  36 H :    0.250833
  37 H :    0.234257
Sum of atomic charges:    0.0000000

LOEWDIN ATOMIC CHARGES
----------------------
   0 Pd:   -0.239208
   1 O :   -0.165991
   2 C :    0.172973
   3 O :   -0.198619
   4 C :   -0.381877
   5 H :    0.147130
   6 H :    0.161090
   7 H :    0.154065
   8 N :   -0.060572
   9 C :   -0.240808
  10 H :    0.164912
  11 H :    0.119272
  12 H :    0.148733
  13 C :   -0.236724
  14 H :    0.148051
  15 H :    0.123415
  16 H :    0.159544
  17 C :   -0.063870
  18 C :   -0.099798
  19 C :   -0.139905
  20 C :   -0.113067
  21 C :   -0.129737
  22 C :   -0.104660
  23 H :    0.137580
  24 H :    0.149721
  25 H :    0.140617
  26 H :    0.145055
  27 H :    0.145136
  28 C :   -0.097840
  29 H :    0.139452
  30 H :    0.148710
  31 O :   -0.195172
  32 C :    0.130068
  33 O :   -0.221358
  34 C :   -0.383540
  35 H :    0.145609
  36 H :    0.150803
  37 H :    0.140809

  Mayer bond orders larger than 0.100000
B(  0-Pd,  1-O ) :   0.6365 B(  0-Pd,  3-O ) :   0.3324 B(  0-Pd,  8-N ) :   0.4042
B(  0-Pd, 31-O ) :   0.6904 B(  0-Pd, 33-O ) :   0.1065 B(  1-O ,  2-C ) :   1.3130
B(  1-O ,  3-O ) :   0.1000 B(  2-C ,  3-O ) :   1.6730 B(  2-C ,  4-C ) :   0.9460
B(  4-C ,  5-H ) :   0.9138 B(  4-C ,  6-H ) :   0.9041 B(  4-C ,  7-H ) :   0.9083
B(  8-N ,  9-C ) :   0.9213 B(  8-N , 13-C ) :   0.9262 B(  8-N , 28-C ) :   0.8809
B(  9-C , 10-H ) :   0.8825 B(  9-C , 11-H ) :   0.9042 B(  9-C , 12-H ) :   0.9018
B( 13-C , 14-H ) :   0.8949 B( 13-C , 15-H ) :   0.9018 B( 13-C , 16-H ) :   0.8943
B( 17-C , 18-C ) :   1.3886 B( 17-C , 22-C ) :   1.3670 B( 17-C , 28-C ) :   0.9335
B( 18-C , 19-C ) :   1.4241 B( 18-C , 25-H ) :   0.9116 B( 19-C , 20-C ) :   1.4373
B( 19-C , 26-H ) :   0.9152 B( 20-C , 21-C ) :   1.3760 B( 20-C , 23-H ) :   0.9176
B( 21-C , 22-C ) :   1.4450 B( 21-C , 24-H ) :   0.9179 B( 22-C , 27-H ) :   0.9137
B( 28-C , 29-H ) :   0.8936 B( 28-C , 30-H ) :   0.9142 B( 31-O , 32-C ) :   1.2146
B( 32-C , 33-O ) :   1.9054 B( 32-C , 34-C ) :   0.9273 B( 34-C , 35-H ) :   0.9149
B( 34-C , 36-H ) :   0.9099 B( 34-C , 37-H ) :   0.9215

Dispersion correction           -0.026080736
FINAL SINGLE POINT ENERGY      -988.509684769302
Dispersion correction            ... done

DIPOLE MOMENT
-------------
                                X             Y             Z
Electronic contribution:     23.14140      17.60168     -23.72684
Nuclear contribution   :    -24.86222     -18.23357      24.45365
                        -----------------------------------------
Total Dipole Moment    :     -1.72082      -0.63188       0.72681
                        -----------------------------------------
Magnitude (a.u.)       :      1.97200
Magnitude (Debye)      :      5.01242

Rotational constants in cm-1:     0.014023     0.008398     0.006913
Rotational constants in MHz :   420.402100   251.755452   207.238906

                             ****ORCA TERMINATED NORMALLY****
TOTAL RUN TIME: 0 days 0 hours 12 minutes 23 seconds 395 msec
