                         Program Version 5.0.3 -  RELEASE  -
|  1> ! EnGrad PBEh-3c
|  2> %output
|  3> xyzfile=True
|  4> end
|  5> %scf
|  6> maxiter 250
|  7> end
|  8> %output
|  9> Print[P_Hirshfeld] = 1
| 10> end
| 11> % maxcore
| 12> 4000
| 13> *xyz 0 1
| 14> Pd   0.52120526   0.37166970  -0.45811243
| 15> O    2.08874322   1.32267625   0.30351227
| 16> C    1.61112613   2.52675205   0.29021535
| 17> O    0.41610955   2.69901986   0.00250942
| 18> C    2.58364057   3.66010060   0.57329439
| 19> H    2.12562736   4.54863355   1.02387420
| 20> H    3.05437983   3.94922169  -0.37047894
| 21> H    3.37941594   3.28268873   1.21221533
| 22> N   -1.32090779  -0.55564546  -1.12432535
| 23> C   -1.20485061  -1.55843127  -2.20269314
| 24> H   -0.75834244  -1.13065321  -3.08928501
| 25> H   -2.17744567  -1.96225283  -2.47809444
| 26> H   -0.59791017  -2.39394758  -1.90316596
| 27> C   -2.16448453   0.53155979  -1.60416751
| 28> H   -2.33054941   1.25199967  -0.82537782
| 29> H   -3.15498328   0.16602098  -1.87802031
| 30> H   -1.73144134   1.05403909  -2.44007956
| 31> C   -1.53564101  -0.79800654   1.43784740
| 32> C   -1.04001068  -1.82867065   2.15158750
| 33> C   -0.85917629  -1.77554559   3.50825143
| 34> C   -1.28940279  -0.63141324   4.19678772
| 35> C   -1.74751820   0.52756795   3.55260678
| 36> C   -1.70776527   0.32491921   2.17827842
| 37> H   -1.22262976  -0.74651370   5.26732560
| 38> H   -2.00617080   1.48687886   4.06511870
| 39> H   -0.81019123  -2.71004988   1.58762654
| 40> H   -0.29010921  -2.60829707   3.95886674
| 41> H   -1.91029438   1.14297427   1.43534798
| 42> C   -2.01235280  -1.14738300   0.06766700
| 43> H   -3.09772572  -1.02126829  -0.07391740
| 44> H   -1.85524280  -2.22991192   0.00259250
| 45> O    1.85952553  -0.91552755  -1.19481163
| 46> C    2.21080190  -0.54421467  -2.41287788
| 47> O    1.50812094   0.06668810  -3.17559247
| 48> C    3.62108052  -1.00590336  -2.82763177
| 49> H    3.64830387  -2.09483421  -2.87882534
| 50> H    4.34166795  -0.70784840  -2.07329723
| 51> H    3.91536685  -0.58829358  -3.80227617
| 52> *
| 53>
| 54>                          ****END OF INPUT****

CARTESIAN COORDINATES (ANGSTROEM)
---------------------------------
  Pd     0.521205    0.371670   -0.458112
  O      2.088743    1.322676    0.303512
  C      1.611126    2.526752    0.290215
  O      0.416110    2.699020    0.002509
  C      2.583641    3.660101    0.573294
  H      2.125627    4.548634    1.023874
  H      3.054380    3.949222   -0.370479
  H      3.379416    3.282689    1.212215
  N     -1.320908   -0.555645   -1.124325
  C     -1.204851   -1.558431   -2.202693
  H     -0.758342   -1.130653   -3.089285
  H     -2.177446   -1.962253   -2.478094
  H     -0.597910   -2.393948   -1.903166
  C     -2.164485    0.531560   -1.604168
  H     -2.330549    1.252000   -0.825378
  H     -3.154983    0.166021   -1.878020
  H     -1.731441    1.054039   -2.440080
  C     -1.535641   -0.798007    1.437847
  C     -1.040011   -1.828671    2.151588
  C     -0.859176   -1.775546    3.508251
  C     -1.289403   -0.631413    4.196788
  C     -1.747518    0.527568    3.552607
  C     -1.707765    0.324919    2.178278
  H     -1.222630   -0.746514    5.267326
  H     -2.006171    1.486879    4.065119
  H     -0.810191   -2.710050    1.587627
  H     -0.290109   -2.608297    3.958867
  H     -1.910294    1.142974    1.435348
  C     -2.012353   -1.147383    0.067667
  H     -3.097726   -1.021268   -0.073917
  H     -1.855243   -2.229912    0.002593
  O      1.859526   -0.915528   -1.194812
  C      2.210802   -0.544215   -2.412878
  O      1.508121    0.066688   -3.175592
  C      3.621081   -1.005903   -2.827632
  H      3.648304   -2.094834   -2.878825
  H      4.341668   -0.707848   -2.073297
  H      3.915367   -0.588294   -3.802276

 Total Charge           Charge          ....    0
 Multiplicity           Mult            ....    1
 Number of Electrons    NEL             ....  154
 Basis Dimension        Dim             ....  339

ORBITAL ENERGIES
----------------

  NO   OCC          E(Eh)            E(eV)
   0   2.0000     -19.497014      -530.5407
   1   2.0000     -19.480694      -530.0966
   2   2.0000     -19.474681      -529.9330
   3   2.0000     -19.438468      -528.9476
   4   2.0000     -14.721499      -400.5924
   5   2.0000     -10.564701      -287.4801
   6   2.0000     -10.535162      -286.6763
   7   2.0000     -10.506939      -285.9084
   8   2.0000     -10.481616      -285.2193
   9   2.0000     -10.475538      -285.0539
  10   2.0000     -10.474309      -285.0204
  11   2.0000     -10.466524      -284.8086
  12   2.0000     -10.465189      -284.7723
  13   2.0000     -10.464383      -284.7503
  14   2.0000     -10.457596      -284.5657
  15   2.0000     -10.450940      -284.3845
  16   2.0000     -10.438194      -284.0377
  17   2.0000     -10.416446      -283.4459
  18   2.0000      -3.659720       -99.5860
  19   2.0000      -2.310340       -62.8676
  20   2.0000      -2.301917       -62.6384
  21   2.0000      -2.269424       -61.7542
  22   2.0000      -1.186157       -32.2770
  23   2.0000      -1.150499       -31.3067
  24   2.0000      -1.079316       -29.3697
  25   2.0000      -1.074794       -29.2466
  26   2.0000      -1.052469       -28.6391
  27   2.0000      -0.987139       -26.8614
  28   2.0000      -0.890688       -24.2369
  29   2.0000      -0.851143       -23.1608
  30   2.0000      -0.825362       -22.4593
  31   2.0000      -0.820539       -22.3280
  32   2.0000      -0.805794       -21.9268
  33   2.0000      -0.791084       -21.5265
  34   2.0000      -0.724081       -19.7032
  35   2.0000      -0.705190       -19.1892
  36   2.0000      -0.675747       -18.3880
  37   2.0000      -0.611919       -16.6512
  38   2.0000      -0.603852       -16.4317
  39   2.0000      -0.582032       -15.8379
  40   2.0000      -0.575728       -15.6664
  41   2.0000      -0.572395       -15.5757
  42   2.0000      -0.562571       -15.3083
  43   2.0000      -0.537319       -14.6212
  44   2.0000      -0.533990       -14.5306
  45   2.0000      -0.529777       -14.4160
  46   2.0000      -0.523608       -14.2481
  47   2.0000      -0.516244       -14.0477
  48   2.0000      -0.507125       -13.7996
  49   2.0000      -0.501305       -13.6412
  50   2.0000      -0.494566       -13.4578
  51   2.0000      -0.490623       -13.3505
  52   2.0000      -0.483086       -13.1454
  53   2.0000      -0.481790       -13.1102
  54   2.0000      -0.461615       -12.5612
  55   2.0000      -0.452999       -12.3267
  56   2.0000      -0.450452       -12.2574
  57   2.0000      -0.444519       -12.0960
  58   2.0000      -0.439130       -11.9493
  59   2.0000      -0.434339       -11.8190
  60   2.0000      -0.431597       -11.7444
  61   2.0000      -0.417530       -11.3616
  62   2.0000      -0.415758       -11.3133
  63   2.0000      -0.408962       -11.1284
  64   2.0000      -0.385030       -10.4772
  65   2.0000      -0.377560       -10.2739
  66   2.0000      -0.372408       -10.1337
  67   2.0000      -0.356110        -9.6903
  68   2.0000      -0.351399        -9.5620
  69   2.0000      -0.346084        -9.4174
  70   2.0000      -0.321916        -8.7598
  71   2.0000      -0.316110        -8.6018
  72   2.0000      -0.310544        -8.4503
  73   2.0000      -0.303778        -8.2662
  74   2.0000      -0.294956        -8.0262
  75   2.0000      -0.293013        -7.9733
  76   2.0000      -0.276586        -7.5263
  77   0.0000      -0.064340        -1.7508
  78   0.0000      -0.005635        -0.1533
  79   0.0000       0.005461         0.1486
  80   0.0000       0.054279         1.4770
  81   0.0000       0.063104         1.7171

MULLIKEN ATOMIC CHARGES
-----------------------
   0 Pd:    0.537914
   1 O :   -0.499660
   2 C :    0.635460
   3 O :   -0.479736
   4 C :   -0.761326
   5 H :    0.246583
   6 H :    0.258440
   7 H :    0.254278
   8 N :   -0.478007
   9 C :   -0.543638
  10 H :    0.299571
  11 H :    0.220288
  12 H :    0.272098
  13 C :   -0.556790
  14 H :    0.270363
  15 H :    0.230179
  16 H :    0.296079
  17 C :    0.180404
  18 C :   -0.272057
  19 C :   -0.189104
  20 C :   -0.273531
  21 C :   -0.190953
  22 C :   -0.298348
  23 H :    0.225820
  24 H :    0.236498
  25 H :    0.217962
  26 H :    0.229855
  27 H :    0.211773
  28 C :   -0.342935
  29 H :    0.251997
  30 H :    0.254165
  31 O :   -0.546338
  32 C :    0.565618
  33 O :   -0.441020
  34 C :   -0.738369
  35 H :    0.233112
  36 H :    0.247711
  37 H :    0.235646
Sum of atomic charges:    0.0000000

LOEWDIN ATOMIC CHARGES
----------------------
   0 Pd:   -0.240723
   1 O :   -0.153531
   2 C :    0.183352
   3 O :   -0.209286
   4 C :   -0.380695
   5 H :    0.148957
   6 H :    0.162120
   7 H :    0.154001
   8 N :   -0.062747
   9 C :   -0.240927
  10 H :    0.165434
  11 H :    0.118730
  12 H :    0.149066
  13 C :   -0.238860
  14 H :    0.147363
  15 H :    0.122874
  16 H :    0.160727
  17 C :   -0.082415
  18 C :   -0.102100
  19 C :   -0.142104
  20 C :   -0.108980
  21 C :   -0.132521
  22 C :   -0.087600
  23 H :    0.136356
  24 H :    0.155950
  25 H :    0.136175
  26 H :    0.146245
  27 H :    0.141969
  28 C :   -0.096111
  29 H :    0.142597
  30 H :    0.148851
  31 O :   -0.197500
  32 C :    0.139892
  33 O :   -0.236446
  34 C :   -0.383757
  35 H :    0.145403
  36 H :    0.149217
  37 H :    0.141026

  Mayer bond orders larger than 0.100000
B(  0-Pd,  1-O ) :   0.6411 B(  0-Pd,  3-O ) :   0.3375 B(  0-Pd,  8-N ) :   0.4020
B(  0-Pd, 31-O ) :   0.6786 B(  0-Pd, 33-O ) :   0.1095 B(  1-O ,  2-C ) :   1.3095
B(  1-O ,  3-O ) :   0.1007 B(  2-C ,  3-O ) :   1.6600 B(  2-C ,  4-C ) :   0.9459
B(  4-C ,  5-H ) :   0.9137 B(  4-C ,  6-H ) :   0.9037 B(  4-C ,  7-H ) :   0.9074
B(  8-N ,  9-C ) :   0.9209 B(  8-N , 13-C ) :   0.9268 B(  8-N , 28-C ) :   0.8795
B(  9-C , 10-H ) :   0.8808 B(  9-C , 11-H ) :   0.9039 B(  9-C , 12-H ) :   0.9024
B( 13-C , 14-H ) :   0.8950 B( 13-C , 15-H ) :   0.9017 B( 13-C , 16-H ) :   0.8925
B( 17-C , 18-C ) :   1.3980 B( 17-C , 22-C ) :   1.3527 B( 17-C , 28-C ) :   0.9282
B( 18-C , 19-C ) :   1.4438 B( 18-C , 25-H ) :   0.9089 B( 19-C , 20-C ) :   1.4209
B( 19-C , 26-H ) :   0.9171 B( 20-C , 21-C ) :   1.3842 B( 20-C , 23-H ) :   0.9170
B( 21-C , 22-C ) :   1.4035 B( 21-C , 24-H ) :   0.9196 B( 22-C , 27-H ) :   0.9169
B( 28-C , 29-H ) :   0.8924 B( 28-C , 30-H ) :   0.9154 B( 31-O , 32-C ) :   1.2234
B( 32-C , 33-O ) :   1.8846 B( 32-C , 34-C ) :   0.9267 B( 34-C , 35-H ) :   0.9152
B( 34-C , 36-H ) :   0.9100 B( 34-C , 37-H ) :   0.9210

Dispersion correction           -0.026080311
FINAL SINGLE POINT ENERGY      -988.494250810890
Dispersion correction            ... done

DIPOLE MOMENT
-------------
                                X             Y             Z
Electronic contribution:     22.56658      17.11940     -23.03630
Nuclear contribution   :    -24.19434     -17.70332      23.82534
                        -----------------------------------------
Total Dipole Moment    :     -1.62777      -0.58392       0.78904
                        -----------------------------------------
Magnitude (a.u.)       :      1.90083
Magnitude (Debye)      :      4.83154

Rotational constants in cm-1:     0.014166     0.008424     0.006881
Rotational constants in MHz :   424.693794   252.543930   206.275616

                             ****ORCA TERMINATED NORMALLY****
TOTAL RUN TIME: 0 days 0 hours 13 minutes 55 seconds 44 msec
