                         Program Version 5.0.3 -  RELEASE  -
|  1> ! EnGrad PBEh-3c
|  2> %output
|  3> xyzfile=True
|  4> end
|  5> %scf
|  6> maxiter 250
|  7> end
|  8> %output
|  9> Print[P_Hirshfeld] = 1
| 10> end
| 11> % maxcore
| 12> 4000
| 13> *xyz 0 1
| 14> Pd   0.54158174   0.38850405  -0.45281643
| 15> O    2.08150380   1.32239167   0.28443605
| 16> C    1.60907211   2.51572164   0.29407064
| 17> O    0.41220228   2.69518551   0.01217630
| 18> C    2.57863476   3.65478490   0.57060937
| 19> H    2.11769594   4.54466792   1.02239236
| 20> H    3.05133499   3.95353489  -0.37548369
| 21> H    3.37614365   3.28469076   1.21394560
| 22> N   -1.32806434  -0.54880625  -1.13114353
| 23> C   -1.20384117  -1.55401718  -2.20742726
| 24> H   -0.75984776  -1.11688708  -3.08965122
| 25> H   -2.17991427  -1.94961335  -2.47468049
| 26> H   -0.58923882  -2.39153414  -1.90027456
| 27> C   -2.17023768   0.54457910  -1.60501911
| 28> H   -2.32921324   1.26458759  -0.81485616
| 29> H   -3.15290695   0.16448416  -1.87636901
| 30> H   -1.72760523   1.06563337  -2.44303487
| 31> C   -1.51398518  -0.83460525   1.43442878
| 32> C   -1.02941938  -1.85985942   2.16049710
| 33> C   -0.84773935  -1.74767747   3.50745334
| 34> C   -1.29007476  -0.64589021   4.21478470
| 35> C   -1.71051823   0.50340942   3.56989240
| 36> C   -1.73529706   0.31461641   2.16964180
| 37> H   -1.23459815  -0.73032765   5.26159772
| 38> H   -1.99935269   1.44436279   4.04644567
| 39> H   -0.80159865  -2.69745889   1.59326464
| 40> H   -0.31106154  -2.58101026   3.95438713
| 41> H   -1.94418297   1.18093725   1.42769957
| 42> C   -2.00203016  -1.15052145   0.04752967
| 43> H   -3.08835797  -1.02178534  -0.06891180
| 44> H   -1.84622279  -2.22228142   0.00672237
| 45> O    1.85317706  -0.92711537  -1.20107185
| 46> C    2.21036846  -0.55182591  -2.40422240
| 47> O    1.51212646   0.07606861  -3.17694424
| 48> C    3.61115834  -1.01285376  -2.82376946
| 49> H    3.64627029  -2.10436557  -2.87581956
| 50> H    4.34219577  -0.71089900  -2.07197991
| 51> H    3.91377516  -0.60275534  -3.79481364
| 52> *
| 53>
| 54>                          ****END OF INPUT****

CARTESIAN COORDINATES (ANGSTROEM)
---------------------------------
  Pd     0.541582    0.388504   -0.452816
  O      2.081504    1.322392    0.284436
  C      1.609072    2.515722    0.294071
  O      0.412202    2.695186    0.012176
  C      2.578635    3.654785    0.570609
  H      2.117696    4.544668    1.022392
  H      3.051335    3.953535   -0.375484
  H      3.376144    3.284691    1.213946
  N     -1.328064   -0.548806   -1.131144
  C     -1.203841   -1.554017   -2.207427
  H     -0.759848   -1.116887   -3.089651
  H     -2.179914   -1.949613   -2.474680
  H     -0.589239   -2.391534   -1.900275
  C     -2.170238    0.544579   -1.605019
  H     -2.329213    1.264588   -0.814856
  H     -3.152907    0.164484   -1.876369
  H     -1.727605    1.065633   -2.443035
  C     -1.513985   -0.834605    1.434429
  C     -1.029419   -1.859859    2.160497
  C     -0.847739   -1.747677    3.507453
  C     -1.290075   -0.645890    4.214785
  C     -1.710518    0.503409    3.569892
  C     -1.735297    0.314616    2.169642
  H     -1.234598   -0.730328    5.261598
  H     -1.999353    1.444363    4.046446
  H     -0.801599   -2.697459    1.593265
  H     -0.311062   -2.581010    3.954387
  H     -1.944183    1.180937    1.427700
  C     -2.002030   -1.150521    0.047530
  H     -3.088358   -1.021785   -0.068912
  H     -1.846223   -2.222281    0.006722
  O      1.853177   -0.927115   -1.201072
  C      2.210368   -0.551826   -2.404222
  O      1.512126    0.076069   -3.176944
  C      3.611158   -1.012854   -2.823769
  H      3.646270   -2.104366   -2.875820
  H      4.342196   -0.710899   -2.071980
  H      3.913775   -0.602755   -3.794814

 Total Charge           Charge          ....    0
 Multiplicity           Mult            ....    1
 Number of Electrons    NEL             ....  154
 Basis Dimension        Dim             ....  339

ORBITAL ENERGIES
----------------

  NO   OCC          E(Eh)            E(eV)
   0   2.0000     -19.503744      -530.7239
   1   2.0000     -19.483991      -530.1863
   2   2.0000     -19.475394      -529.9524
   3   2.0000     -19.435369      -528.8633
   4   2.0000     -14.718284      -400.5049
   5   2.0000     -10.568072      -287.5719
   6   2.0000     -10.534536      -286.6593
   7   2.0000     -10.503012      -285.8015
   8   2.0000     -10.481871      -285.2262
   9   2.0000     -10.474742      -285.0322
  10   2.0000     -10.470478      -284.9162
  11   2.0000     -10.469709      -284.8953
  12   2.0000     -10.466170      -284.7990
  13   2.0000     -10.459758      -284.6245
  14   2.0000     -10.453541      -284.4553
  15   2.0000     -10.447158      -284.2816
  16   2.0000     -10.441125      -284.1175
  17   2.0000     -10.415867      -283.4302
  18   2.0000      -3.661206       -99.6265
  19   2.0000      -2.312647       -62.9303
  20   2.0000      -2.303040       -62.6689
  21   2.0000      -2.270768       -61.7907
  22   2.0000      -1.195579       -32.5334
  23   2.0000      -1.147334       -31.2206
  24   2.0000      -1.083223       -29.4760
  25   2.0000      -1.077988       -29.3335
  26   2.0000      -1.051622       -28.6161
  27   2.0000      -0.984481       -26.7891
  28   2.0000      -0.892018       -24.2730
  29   2.0000      -0.848370       -23.0853
  30   2.0000      -0.823880       -22.4189
  31   2.0000      -0.822173       -22.3725
  32   2.0000      -0.805664       -21.9232
  33   2.0000      -0.791038       -21.5253
  34   2.0000      -0.722411       -19.6578
  35   2.0000      -0.705560       -19.1993
  36   2.0000      -0.675409       -18.3788
  37   2.0000      -0.615630       -16.7521
  38   2.0000      -0.606234       -16.4965
  39   2.0000      -0.583352       -15.8738
  40   2.0000      -0.574252       -15.6262
  41   2.0000      -0.572859       -15.5883
  42   2.0000      -0.563244       -15.3266
  43   2.0000      -0.543534       -14.7903
  44   2.0000      -0.536582       -14.6011
  45   2.0000      -0.535011       -14.5584
  46   2.0000      -0.524489       -14.2721
  47   2.0000      -0.521532       -14.1916
  48   2.0000      -0.506077       -13.7711
  49   2.0000      -0.501597       -13.6492
  50   2.0000      -0.494128       -13.4459
  51   2.0000      -0.489571       -13.3219
  52   2.0000      -0.481116       -13.0918
  53   2.0000      -0.476738       -12.9727
  54   2.0000      -0.460542       -12.5320
  55   2.0000      -0.454681       -12.3725
  56   2.0000      -0.449808       -12.2399
  57   2.0000      -0.444797       -12.1035
  58   2.0000      -0.442179       -12.0323
  59   2.0000      -0.437740       -11.9115
  60   2.0000      -0.430033       -11.7018
  61   2.0000      -0.418099       -11.3771
  62   2.0000      -0.417223       -11.3532
  63   2.0000      -0.409754       -11.1500
  64   2.0000      -0.387342       -10.5401
  65   2.0000      -0.378385       -10.2964
  66   2.0000      -0.372492       -10.1360
  67   2.0000      -0.358921        -9.7667
  68   2.0000      -0.352170        -9.5830
  69   2.0000      -0.348065        -9.4713
  70   2.0000      -0.323413        -8.8005
  71   2.0000      -0.317765        -8.6468
  72   2.0000      -0.310652        -8.4533
  73   2.0000      -0.303016        -8.2455
  74   2.0000      -0.294649        -8.0178
  75   2.0000      -0.293083        -7.9752
  76   2.0000      -0.275914        -7.5080
  77   0.0000      -0.063135        -1.7180
  78   0.0000      -0.004364        -0.1188
  79   0.0000       0.005548         0.1510
  80   0.0000       0.051742         1.4080
  81   0.0000       0.063293         1.7223

MULLIKEN ATOMIC CHARGES
-----------------------
   0 Pd:    0.546559
   1 O :   -0.496765
   2 C :    0.639369
   3 O :   -0.479830
   4 C :   -0.762754
   5 H :    0.247695
   6 H :    0.259180
   7 H :    0.253394
   8 N :   -0.472510
   9 C :   -0.540111
  10 H :    0.298127
  11 H :    0.219268
  12 H :    0.269328
  13 C :   -0.550773
  14 H :    0.267115
  15 H :    0.228653
  16 H :    0.293690
  17 C :    0.146030
  18 C :   -0.259170
  19 C :   -0.193967
  20 C :   -0.256459
  21 C :   -0.190152
  22 C :   -0.307278
  23 H :    0.228796
  24 H :    0.235100
  25 H :    0.222987
  26 H :    0.225499
  27 H :    0.210933
  28 C :   -0.330148
  29 H :    0.251005
  30 H :    0.250322
  31 O :   -0.543291
  32 C :    0.569264
  33 O :   -0.454874
  34 C :   -0.738563
  35 H :    0.232110
  36 H :    0.244363
  37 H :    0.237856
Sum of atomic charges:    0.0000000

LOEWDIN ATOMIC CHARGES
----------------------
   0 Pd:   -0.237435
   1 O :   -0.135801
   2 C :    0.182026
   3 O :   -0.205990
   4 C :   -0.380051
   5 H :    0.149672
   6 H :    0.162877
   7 H :    0.153657
   8 N :   -0.067273
   9 C :   -0.239443
  10 H :    0.164436
  11 H :    0.118003
  12 H :    0.149295
  13 C :   -0.236922
  14 H :    0.147369
  15 H :    0.122329
  16 H :    0.160810
  17 C :   -0.074635
  18 C :   -0.111285
  19 C :   -0.132590
  20 C :   -0.115968
  21 C :   -0.129065
  22 C :   -0.090263
  23 H :    0.137943
  24 H :    0.151751
  25 H :    0.138574
  26 H :    0.143134
  27 H :    0.141301
  28 C :   -0.103050
  29 H :    0.142272
  30 H :    0.147367
  31 O :   -0.193033
  32 C :    0.140066
  33 O :   -0.251698
  34 C :   -0.382889
  35 H :    0.145015
  36 H :    0.148476
  37 H :    0.141016

  Mayer bond orders larger than 0.100000
B(  0-Pd,  1-O ) :   0.6444 B(  0-Pd,  3-O ) :   0.3503 B(  0-Pd,  8-N ) :   0.3929
B(  0-Pd, 31-O ) :   0.6647 B(  0-Pd, 33-O ) :   0.1131 B(  1-O ,  2-C ) :   1.3143
B(  1-O ,  3-O ) :   0.1006 B(  2-C ,  3-O ) :   1.6491 B(  2-C ,  4-C ) :   0.9462
B(  4-C ,  5-H ) :   0.9134 B(  4-C ,  6-H ) :   0.9035 B(  4-C ,  7-H ) :   0.9070
B(  8-N ,  9-C ) :   0.9210 B(  8-N , 13-C ) :   0.9273 B(  8-N , 28-C ) :   0.8864
B(  9-C , 10-H ) :   0.8815 B(  9-C , 11-H ) :   0.9039 B(  9-C , 12-H ) :   0.9039
B( 13-C , 14-H ) :   0.8965 B( 13-C , 15-H ) :   0.9022 B( 13-C , 16-H ) :   0.8937
B( 17-C , 18-C ) :   1.4230 B( 17-C , 22-C ) :   1.3575 B( 17-C , 28-C ) :   0.9385
B( 18-C , 19-C ) :   1.4453 B( 18-C , 25-H ) :   0.9058 B( 19-C , 20-C ) :   1.4268
B( 19-C , 26-H ) :   0.9195 B( 20-C , 21-C ) :   1.3975 B( 20-C , 23-H ) :   0.9170
B( 21-C , 22-C ) :   1.4111 B( 21-C , 24-H ) :   0.9187 B( 22-C , 27-H ) :   0.9175
B( 28-C , 29-H ) :   0.8931 B( 28-C , 30-H ) :   0.9149 B( 31-O , 32-C ) :   1.2415
B( 32-C , 33-O ) :   1.8651 B( 32-C , 34-C ) :   0.9288 B( 34-C , 35-H ) :   0.9153
B( 34-C , 36-H ) :   0.9110 B( 34-C , 37-H ) :   0.9201

Dispersion correction           -0.026020841
FINAL SINGLE POINT ENERGY      -988.501426760718
Dispersion correction            ... done

DIPOLE MOMENT
-------------
                                X             Y             Z
Electronic contribution:     23.72250      18.13507     -22.66160
Nuclear contribution   :    -25.27360     -18.65986      23.53140
                        -----------------------------------------
Total Dipole Moment    :     -1.55110      -0.52479       0.86980
                        -----------------------------------------
Magnitude (a.u.)       :      1.85415
Magnitude (Debye)      :      4.71287

Rotational constants in cm-1:     0.014160     0.008417     0.006884
Rotational constants in MHz :   424.520438   252.340676   206.374776

                             ****ORCA TERMINATED NORMALLY****
TOTAL RUN TIME: 0 days 0 hours 14 minutes 20 seconds 898 msec
