                         Program Version 5.0.3 -  RELEASE  -
|  1> ! EnGrad PBEh-3c
|  2> %output
|  3> xyzfile=True
|  4> end
|  5> %scf
|  6> maxiter 250
|  7> end
|  8> %output
|  9> Print[P_Hirshfeld] = 1
| 10> end
| 11> % maxcore
| 12> 4000
| 13> *xyz 0 1
| 14> Pd   0.61906479   0.54508950  -0.50451763
| 15> O    2.19764854   1.48195197   0.37409050
| 16> C    1.61668251   2.71012467   0.27169134
| 17> O    0.49985310   2.77249983  -0.07900788
| 18> C    2.50330748   3.90926921   0.56291514
| 19> H    1.88358999   4.67036629   1.04006412
| 20> H    2.85560591   4.30963499  -0.38424166
| 21> H    3.35649222   3.68573027   1.18443747
| 22> N   -1.24949546  -0.37930916  -1.19042892
| 23> C   -1.26178502  -1.08579773  -2.47477383
| 24> H   -0.94475558  -0.41612895  -3.26276220
| 25> H   -2.29256704  -1.39799817  -2.70017229
| 26> H   -0.63985565  -1.95150989  -2.47245966
| 27> C   -2.15425193   0.76781971  -1.31831990
| 28> H   -2.17375882   1.37300921  -0.44253751
| 29> H   -3.17615822   0.41790514  -1.52658240
| 30> H   -1.81927708   1.38069807  -2.14640257
| 31> C   -1.43653518  -0.92804852   1.29025726
| 32> C   -0.47631538  -1.72244337   2.03025508
| 33> C   -0.33405554  -1.60687528   3.38149653
| 34> C   -1.21749103  -0.86243823   4.09772757
| 35> C   -2.27916262  -0.22327983   3.43202476
| 36> C   -2.23193202  -0.06584356   2.10985409
| 37> H   -1.12815136  -0.75567016   5.18067225
| 38> H   -3.14543059   0.01022959   4.02313443
| 39> H    0.14102298  -2.43123749   1.50311099
| 40> H    0.40029293  -2.21436148   3.90843487
| 41> H   -3.05659069   1.96234688   2.06623296
| 42> C   -1.72453798  -1.32245087  -0.11558013
| 43> H   -2.81301473  -1.44205753  -0.19555556
| 44> H   -1.32035627  -2.31401914  -0.33418584
| 45> O    1.78216100  -0.94950735  -1.08719698
| 46> C    2.26548243  -0.75853681  -2.31674680
| 47> O    1.83548103  -0.00076410  -3.11822894
| 48> C    3.49546001  -1.63813846  -2.62913186
| 49> H    3.29582005  -2.68832097  -2.48298647
| 50> H    4.32152090  -1.35491455  -2.00316081
| 51> H    3.80827412  -1.48575098  -3.67129022
| 52> *
| 53>
| 54>                          ****END OF INPUT****

CARTESIAN COORDINATES (ANGSTROEM)
---------------------------------
  Pd     0.619065    0.545089   -0.504518
  O      2.197649    1.481952    0.374090
  C      1.616683    2.710125    0.271691
  O      0.499853    2.772500   -0.079008
  C      2.503307    3.909269    0.562915
  H      1.883590    4.670366    1.040064
  H      2.855606    4.309635   -0.384242
  H      3.356492    3.685730    1.184437
  N     -1.249495   -0.379309   -1.190429
  C     -1.261785   -1.085798   -2.474774
  H     -0.944756   -0.416129   -3.262762
  H     -2.292567   -1.397998   -2.700172
  H     -0.639856   -1.951510   -2.472460
  C     -2.154252    0.767820   -1.318320
  H     -2.173759    1.373009   -0.442538
  H     -3.176158    0.417905   -1.526582
  H     -1.819277    1.380698   -2.146403
  C     -1.436535   -0.928049    1.290257
  C     -0.476315   -1.722443    2.030255
  C     -0.334056   -1.606875    3.381497
  C     -1.217491   -0.862438    4.097728
  C     -2.279163   -0.223280    3.432025
  C     -2.231932   -0.065844    2.109854
  H     -1.128151   -0.755670    5.180672
  H     -3.145431    0.010230    4.023134
  H      0.141023   -2.431237    1.503111
  H      0.400293   -2.214361    3.908435
  H     -3.056591    1.962347    2.066233
  C     -1.724538   -1.322451   -0.115580
  H     -2.813015   -1.442058   -0.195556
  H     -1.320356   -2.314019   -0.334186
  O      1.782161   -0.949507   -1.087197
  C      2.265482   -0.758537   -2.316747
  O      1.835481   -0.000764   -3.118229
  C      3.495460   -1.638138   -2.629132
  H      3.295820   -2.688321   -2.482986
  H      4.321521   -1.354915   -2.003161
  H      3.808274   -1.485751   -3.671290

 Total Charge           Charge          ....    0
 Multiplicity           Mult            ....    1
 Number of Electrons    NEL             ....  154
 Basis Dimension        Dim             ....  339

ORBITAL ENERGIES
----------------

  NO   OCC          E(Eh)            E(eV)
   0   2.0000     -19.498294      -530.5755
   1   2.0000     -19.481215      -530.1108
   2   2.0000     -19.473120      -529.8905
   3   2.0000     -19.440365      -528.9992
   4   2.0000     -14.716948      -400.4685
   5   2.0000     -10.564175      -287.4658
   6   2.0000     -10.533684      -286.6361
   7   2.0000     -10.523450      -286.3576
   8   2.0000     -10.506992      -285.9098
   9   2.0000     -10.498940      -285.6907
  10   2.0000     -10.477983      -285.1204
  11   2.0000     -10.475284      -285.0470
  12   2.0000     -10.471641      -284.9478
  13   2.0000     -10.467549      -284.8365
  14   2.0000     -10.466658      -284.8122
  15   2.0000     -10.458069      -284.5785
  16   2.0000     -10.436360      -283.9878
  17   2.0000     -10.413236      -283.3586
  18   2.0000      -3.653666       -99.4213
  19   2.0000      -2.301529       -62.6278
  20   2.0000      -2.298324       -62.5406
  21   2.0000      -2.263186       -61.5844
  22   2.0000      -1.213170       -33.0120
  23   2.0000      -1.155504       -31.4429
  24   2.0000      -1.073582       -29.2137
  25   2.0000      -1.059019       -28.8174
  26   2.0000      -1.052805       -28.6483
  27   2.0000      -0.983782       -26.7701
  28   2.0000      -0.888565       -24.1791
  29   2.0000      -0.860915       -23.4267
  30   2.0000      -0.823048       -22.3963
  31   2.0000      -0.820575       -22.3290
  32   2.0000      -0.802774       -21.8446
  33   2.0000      -0.791465       -21.5369
  34   2.0000      -0.721921       -19.6445
  35   2.0000      -0.693089       -18.8599
  36   2.0000      -0.672512       -18.3000
  37   2.0000      -0.605398       -16.4737
  38   2.0000      -0.596575       -16.2336
  39   2.0000      -0.583442       -15.8763
  40   2.0000      -0.577673       -15.7193
  41   2.0000      -0.573528       -15.6065
  42   2.0000      -0.556711       -15.1489
  43   2.0000      -0.544273       -14.8104
  44   2.0000      -0.535209       -14.5638
  45   2.0000      -0.532239       -14.4830
  46   2.0000      -0.523565       -14.2469
  47   2.0000      -0.522766       -14.2252
  48   2.0000      -0.509550       -13.8656
  49   2.0000      -0.494831       -13.4650
  50   2.0000      -0.491999       -13.3880
  51   2.0000      -0.489966       -13.3327
  52   2.0000      -0.477897       -13.0042
  53   2.0000      -0.467551       -12.7227
  54   2.0000      -0.457494       -12.4491
  55   2.0000      -0.456432       -12.4202
  56   2.0000      -0.450018       -12.2456
  57   2.0000      -0.444406       -12.0929
  58   2.0000      -0.441650       -12.0179
  59   2.0000      -0.434959       -11.8358
  60   2.0000      -0.429271       -11.6810
  61   2.0000      -0.426927       -11.6173
  62   2.0000      -0.419245       -11.4082
  63   2.0000      -0.402235       -10.9454
  64   2.0000      -0.374323       -10.1859
  65   2.0000      -0.373760       -10.1705
  66   2.0000      -0.357840        -9.7373
  67   2.0000      -0.348649        -9.4872
  68   2.0000      -0.341963        -9.3053
  69   2.0000      -0.335408        -9.1269
  70   2.0000      -0.315809        -8.5936
  71   2.0000      -0.308278        -8.3887
  72   2.0000      -0.304432        -8.2840
  73   2.0000      -0.296135        -8.0582
  74   2.0000      -0.290929        -7.9166
  75   2.0000      -0.284621        -7.7449
  76   2.0000      -0.273815        -7.4509
  77   0.0000      -0.101755        -2.7689
  78   0.0000      -0.054538        -1.4841
  79   0.0000      -0.019862        -0.5405
  80   0.0000       0.004794         0.1305
  81   0.0000       0.057380         1.5614

MULLIKEN ATOMIC CHARGES
-----------------------
   0 Pd:    0.501657
   1 O :   -0.534729
   2 C :    0.629418
   3 O :   -0.415390
   4 C :   -0.760831
   5 H :    0.240554
   6 H :    0.258639
   7 H :    0.261897
   8 N :   -0.476079
   9 C :   -0.522648
  10 H :    0.285340
  11 H :    0.212872
  12 H :    0.269499
  13 C :   -0.545010
  14 H :    0.293368
  15 H :    0.222944
  16 H :    0.274491
  17 C :   -0.038676
  18 C :   -0.230966
  19 C :   -0.185560
  20 C :   -0.236394
  21 C :   -0.222151
  22 C :   -0.042238
  23 H :    0.239160
  24 H :    0.252312
  25 H :    0.257209
  26 H :    0.233273
  27 H :    0.030022
  28 C :   -0.323079
  29 H :    0.246985
  30 H :    0.268547
  31 O :   -0.559685
  32 C :    0.558461
  33 O :   -0.413776
  34 C :   -0.742881
  35 H :    0.230533
  36 H :    0.250520
  37 H :    0.232393
Sum of atomic charges:   -0.0000000

LOEWDIN ATOMIC CHARGES
----------------------
   0 Pd:   -0.273028
   1 O :   -0.216360
   2 C :    0.178049
   3 O :   -0.115991
   4 C :   -0.379952
   5 H :    0.148948
   6 H :    0.161994
   7 H :    0.154556
   8 N :   -0.063722
   9 C :   -0.235441
  10 H :    0.158856
  11 H :    0.117195
  12 H :    0.147017
  13 C :   -0.238074
  14 H :    0.159014
  15 H :    0.122535
  16 H :    0.154680
  17 C :   -0.061259
  18 C :   -0.093486
  19 C :   -0.133487
  20 C :   -0.121349
  21 C :   -0.147662
  22 C :   -0.013421
  23 H :    0.145007
  24 H :    0.151459
  25 H :    0.159542
  26 H :    0.146331
  27 H :    0.033452
  28 C :   -0.103035
  29 H :    0.139894
  30 H :    0.155082
  31 O :   -0.207906
  32 C :    0.135493
  33 O :   -0.208399
  34 C :   -0.387025
  35 H :    0.140609
  36 H :    0.150757
  37 H :    0.139128

  Mayer bond orders larger than 0.100000
B(  0-Pd,  1-O ) :   0.6732 B(  0-Pd,  3-O ) :   0.3423 B(  0-Pd,  8-N ) :   0.3860
B(  0-Pd, 31-O ) :   0.6981 B(  0-Pd, 33-O ) :   0.1011 B(  1-O ,  2-C ) :   1.2409
B(  2-C ,  3-O ) :   1.7245 B(  2-C ,  4-C ) :   0.9474 B(  4-C ,  5-H ) :   0.9124
B(  4-C ,  6-H ) :   0.9048 B(  4-C ,  7-H ) :   0.9079 B(  8-N ,  9-C ) :   0.9279
B(  8-N , 13-C ) :   0.9232 B(  8-N , 28-C ) :   0.8961 B(  9-C , 10-H ) :   0.8957
B(  9-C , 11-H ) :   0.9046 B(  9-C , 12-H ) :   0.9047 B( 13-C , 14-H ) :   0.8806
B( 13-C , 15-H ) :   0.9057 B( 13-C , 16-H ) :   0.8988 B( 17-C , 18-C ) :   1.3976
B( 17-C , 20-C ) :   0.1030 B( 17-C , 22-C ) :   1.3920 B( 17-C , 28-C ) :   0.9597
B( 18-C , 19-C ) :   1.4274 B( 18-C , 25-H ) :   0.8968 B( 19-C , 20-C ) :   1.4453
B( 19-C , 26-H ) :   0.9125 B( 20-C , 21-C ) :   1.3687 B( 20-C , 23-H ) :   0.9087
B( 21-C , 22-C ) :   1.4945 B( 21-C , 24-H ) :   0.9026 B( 22-C , 27-H ) :   0.8321
B( 28-C , 29-H ) :   0.8953 B( 28-C , 30-H ) :   0.9075 B( 31-O , 32-C ) :   1.1964
B( 32-C , 33-O ) :   1.9305 B( 32-C , 34-C ) :   0.9270 B( 34-C , 35-H ) :   0.9172
B( 34-C , 36-H ) :   0.9101 B( 34-C , 37-H ) :   0.9225

Dispersion correction           -0.025844235
FINAL SINGLE POINT ENERGY      -988.311431264607
Dispersion correction            ... done

DIPOLE MOMENT
-------------
                                X             Y             Z
Electronic contribution:     26.98753      26.51998     -25.16921
Nuclear contribution   :    -28.74793     -27.19010      26.08290
                        -----------------------------------------
Total Dipole Moment    :     -1.76040      -0.67013       0.91369
                        -----------------------------------------
Magnitude (a.u.)       :      2.09353
Magnitude (Debye)      :      5.32134

Rotational constants in cm-1:     0.013266     0.008271     0.007003
Rotational constants in MHz :   397.703372   247.958043   209.940515

                             ****ORCA TERMINATED NORMALLY****
TOTAL RUN TIME: 0 days 0 hours 9 minutes 31 seconds 769 msec
