                         Program Version 5.0.3 -  RELEASE  -
|  1> ! EnGrad PBEh-3c
|  2> %output
|  3> xyzfile=True
|  4> end
|  5> %scf
|  6> maxiter 250
|  7> end
|  8> %output
|  9> Print[P_Hirshfeld] = 1
| 10> end
| 11> % maxcore
| 12> 4000
| 13> *xyz 0 1
| 14> Pd   0.54071113   0.38696514  -0.45776988
| 15> O    2.08412553   1.33147380   0.28235517
| 16> C    1.61150262   2.51963333   0.29342301
| 17> O    0.41187576   2.69037547   0.01654785
| 18> C    2.57574385   3.65232397   0.56974709
| 19> H    2.11473740   4.54011465   1.01985586
| 20> H    3.04724429   3.95584126  -0.37423780
| 21> H    3.37533653   3.28909410   1.21394341
| 22> N   -1.32099171  -0.54379500  -1.12858245
| 23> C   -1.20438565  -1.54779807  -2.20815720
| 24> H   -0.76038178  -1.10657817  -3.09275989
| 25> H   -2.18527863  -1.94381919  -2.47685523
| 26> H   -0.58647983  -2.38676179  -1.90320292
| 27> C   -2.17217984   0.55026126  -1.60292163
| 28> H   -2.32809204   1.26980079  -0.80767582
| 29> H   -3.15581458   0.16636084  -1.87575892
| 30> H   -1.72716157   1.07090107  -2.44291303
| 31> C   -1.52100205  -0.82726492   1.43855986
| 32> C   -1.01802632  -1.86592793   2.16455031
| 33> C   -0.83751045  -1.75261163   3.50951742
| 34> C   -1.28572720  -0.64903526   4.21903400
| 35> C   -1.70958201   0.48262636   3.54929566
| 36> C   -1.75354642   0.35202796   2.14536013
| 37> H   -1.23622508  -0.72662892   5.27351623
| 38> H   -2.00656090   1.42392188   4.04213310
| 39> H   -0.78413929  -2.71297061   1.58952235
| 40> H   -0.31170951  -2.57157588   3.95821313
| 41> H   -1.95733748   1.18121625   1.44988449
| 42> C   -1.99535326  -1.15715832   0.04042552
| 43> H   -3.08328502  -1.02442644  -0.06613135
| 44> H   -1.84011353  -2.22358806   0.00092118
| 45> O    1.85146470  -0.92829885  -1.20703506
| 46> C    2.21158227  -0.55880349  -2.40418773
| 47> O    1.51660009   0.07939656  -3.17255339
| 48> C    3.60682614  -1.01913744  -2.81954413
| 49> H    3.64317400  -2.10997409  -2.87125114
| 50> H    4.34224906  -0.71706171  -2.07115666
| 51> H    3.91022378  -0.61398135  -3.78965609
| 52> *
| 53>
| 54>                          ****END OF INPUT****

CARTESIAN COORDINATES (ANGSTROEM)
---------------------------------
  Pd     0.540711    0.386965   -0.457770
  O      2.084126    1.331474    0.282355
  C      1.611503    2.519633    0.293423
  O      0.411876    2.690375    0.016548
  C      2.575744    3.652324    0.569747
  H      2.114737    4.540115    1.019856
  H      3.047244    3.955841   -0.374238
  H      3.375337    3.289094    1.213943
  N     -1.320992   -0.543795   -1.128582
  C     -1.204386   -1.547798   -2.208157
  H     -0.760382   -1.106578   -3.092760
  H     -2.185279   -1.943819   -2.476855
  H     -0.586480   -2.386762   -1.903203
  C     -2.172180    0.550261   -1.602922
  H     -2.328092    1.269801   -0.807676
  H     -3.155815    0.166361   -1.875759
  H     -1.727162    1.070901   -2.442913
  C     -1.521002   -0.827265    1.438560
  C     -1.018026   -1.865928    2.164550
  C     -0.837510   -1.752612    3.509517
  C     -1.285727   -0.649035    4.219034
  C     -1.709582    0.482626    3.549296
  C     -1.753546    0.352028    2.145360
  H     -1.236225   -0.726629    5.273516
  H     -2.006561    1.423922    4.042133
  H     -0.784139   -2.712971    1.589522
  H     -0.311710   -2.571576    3.958213
  H     -1.957337    1.181216    1.449884
  C     -1.995353   -1.157158    0.040426
  H     -3.083285   -1.024426   -0.066131
  H     -1.840114   -2.223588    0.000921
  O      1.851465   -0.928299   -1.207035
  C      2.211582   -0.558803   -2.404188
  O      1.516600    0.079397   -3.172553
  C      3.606826   -1.019137   -2.819544
  H      3.643174   -2.109974   -2.871251
  H      4.342249   -0.717062   -2.071157
  H      3.910224   -0.613981   -3.789656

 Total Charge           Charge          ....    0
 Multiplicity           Mult            ....    1
 Number of Electrons    NEL             ....  154
 Basis Dimension        Dim             ....  339

ORBITAL ENERGIES
----------------

  NO   OCC          E(Eh)            E(eV)
   0   2.0000     -19.502179      -530.6813
   1   2.0000     -19.482641      -530.1496
   2   2.0000     -19.475036      -529.9427
   3   2.0000     -19.433663      -528.8169
   4   2.0000     -14.719566      -400.5397
   5   2.0000     -10.566399      -287.5263
   6   2.0000     -10.533131      -286.6211
   7   2.0000     -10.502084      -285.7762
   8   2.0000     -10.483885      -285.2810
   9   2.0000     -10.476029      -285.0672
  10   2.0000     -10.469169      -284.8806
  11   2.0000     -10.468905      -284.8734
  12   2.0000     -10.465374      -284.7773
  13   2.0000     -10.459846      -284.6269
  14   2.0000     -10.453159      -284.4449
  15   2.0000     -10.449655      -284.3496
  16   2.0000     -10.439955      -284.0856
  17   2.0000     -10.415092      -283.4091
  18   2.0000      -3.661122       -99.6242
  19   2.0000      -2.312429       -62.9244
  20   2.0000      -2.303022       -62.6684
  21   2.0000      -2.270591       -61.7859
  22   2.0000      -1.196023       -32.5455
  23   2.0000      -1.148471       -31.2515
  24   2.0000      -1.082217       -29.4486
  25   2.0000      -1.077988       -29.3336
  26   2.0000      -1.051655       -28.6170
  27   2.0000      -0.979912       -26.6648
  28   2.0000      -0.888077       -24.1658
  29   2.0000      -0.850105       -23.1325
  30   2.0000      -0.823761       -22.4157
  31   2.0000      -0.823101       -22.3977
  32   2.0000      -0.804162       -21.8824
  33   2.0000      -0.792180       -21.5563
  34   2.0000      -0.722739       -19.6667
  35   2.0000      -0.703127       -19.1330
  36   2.0000      -0.675700       -18.3867
  37   2.0000      -0.615169       -16.7396
  38   2.0000      -0.606129       -16.4936
  39   2.0000      -0.583889       -15.8884
  40   2.0000      -0.573927       -15.6173
  41   2.0000      -0.572273       -15.5723
  42   2.0000      -0.564078       -15.3493
  43   2.0000      -0.543227       -14.7820
  44   2.0000      -0.536110       -14.5883
  45   2.0000      -0.532075       -14.4785
  46   2.0000      -0.523908       -14.2563
  47   2.0000      -0.521594       -14.1933
  48   2.0000      -0.506692       -13.7878
  49   2.0000      -0.499496       -13.5920
  50   2.0000      -0.494614       -13.4591
  51   2.0000      -0.489839       -13.3292
  52   2.0000      -0.483388       -13.1537
  53   2.0000      -0.481106       -13.0916
  54   2.0000      -0.460766       -12.5381
  55   2.0000      -0.454174       -12.3587
  56   2.0000      -0.449736       -12.2379
  57   2.0000      -0.444247       -12.0886
  58   2.0000      -0.441908       -12.0249
  59   2.0000      -0.436912       -11.8890
  60   2.0000      -0.429757       -11.6943
  61   2.0000      -0.417562       -11.3624
  62   2.0000      -0.415547       -11.3076
  63   2.0000      -0.409111       -11.1325
  64   2.0000      -0.394632       -10.7385
  65   2.0000      -0.378346       -10.2953
  66   2.0000      -0.371973       -10.1219
  67   2.0000      -0.358330        -9.7507
  68   2.0000      -0.352325        -9.5873
  69   2.0000      -0.347803        -9.4642
  70   2.0000      -0.322075        -8.7641
  71   2.0000      -0.317604        -8.6425
  72   2.0000      -0.309878        -8.4322
  73   2.0000      -0.303105        -8.2479
  74   2.0000      -0.294285        -8.0079
  75   2.0000      -0.292981        -7.9724
  76   2.0000      -0.274990        -7.4829
  77   0.0000      -0.063415        -1.7256
  78   0.0000      -0.006042        -0.1644
  79   0.0000       0.006764         0.1841
  80   0.0000       0.052743         1.4352
  81   0.0000       0.064688         1.7602

MULLIKEN ATOMIC CHARGES
-----------------------
   0 Pd:    0.547991
   1 O :   -0.494423
   2 C :    0.640190
   3 O :   -0.483116
   4 C :   -0.765029
   5 H :    0.247968
   6 H :    0.259619
   7 H :    0.254099
   8 N :   -0.474088
   9 C :   -0.540041
  10 H :    0.297804
  11 H :    0.219005
  12 H :    0.269369
  13 C :   -0.549039
  14 H :    0.266246
  15 H :    0.229569
  16 H :    0.293891
  17 C :    0.107874
  18 C :   -0.252363
  19 C :   -0.202775
  20 C :   -0.238394
  21 C :   -0.207530
  22 C :   -0.281679
  23 H :    0.229135
  24 H :    0.230112
  25 H :    0.223534
  26 H :    0.226791
  27 H :    0.226632
  28 C :   -0.328168
  29 H :    0.249282
  30 H :    0.251817
  31 O :   -0.540884
  32 C :    0.569348
  33 O :   -0.458012
  34 C :   -0.740027
  35 H :    0.231895
  36 H :    0.244641
  37 H :    0.238755
Sum of atomic charges:   -0.0000000

LOEWDIN ATOMIC CHARGES
----------------------
   0 Pd:   -0.236188
   1 O :   -0.134904
   2 C :    0.177871
   3 O :   -0.208081
   4 C :   -0.379720
   5 H :    0.149575
   6 H :    0.163259
   7 H :    0.154192
   8 N :   -0.065400
   9 C :   -0.239242
  10 H :    0.164523
  11 H :    0.118275
  12 H :    0.149473
  13 C :   -0.235122
  14 H :    0.147294
  15 H :    0.123267
  16 H :    0.161361
  17 C :   -0.064311
  18 C :   -0.114840
  19 C :   -0.128803
  20 C :   -0.119802
  21 C :   -0.125137
  22 C :   -0.102282
  23 H :    0.139739
  24 H :    0.148364
  25 H :    0.139768
  26 H :    0.142038
  27 H :    0.146631
  28 C :   -0.105985
  29 H :    0.141581
  30 H :    0.146865
  31 O :   -0.188843
  32 C :    0.135894
  33 O :   -0.254025
  34 C :   -0.382255
  35 H :    0.144951
  36 H :    0.148859
  37 H :    0.141159

  Mayer bond orders larger than 0.100000
B(  0-Pd,  1-O ) :   0.6401 B(  0-Pd,  3-O ) :   0.3534 B(  0-Pd,  8-N ) :   0.3958
B(  0-Pd, 31-O ) :   0.6618 B(  0-Pd, 33-O ) :   0.1147 B(  1-O ,  2-C ) :   1.3226
B(  1-O ,  3-O ) :   0.1002 B(  2-C ,  3-O ) :   1.6445 B(  2-C ,  4-C ) :   0.9477
B(  4-C ,  5-H ) :   0.9131 B(  4-C ,  6-H ) :   0.9031 B(  4-C ,  7-H ) :   0.9070
B(  8-N ,  9-C ) :   0.9201 B(  8-N , 13-C ) :   0.9253 B(  8-N , 28-C ) :   0.8865
B(  9-C , 10-H ) :   0.8814 B(  9-C , 11-H ) :   0.9037 B(  9-C , 12-H ) :   0.9036
B( 13-C , 14-H ) :   0.8972 B( 13-C , 15-H ) :   0.9019 B( 13-C , 16-H ) :   0.8935
B( 17-C , 18-C ) :   1.4173 B( 17-C , 22-C ) :   1.3843 B( 17-C , 28-C ) :   0.9421
B( 18-C , 19-C ) :   1.4507 B( 18-C , 25-H ) :   0.9079 B( 19-C , 20-C ) :   1.4199
B( 19-C , 26-H ) :   0.9180 B( 20-C , 21-C ) :   1.4101 B( 20-C , 23-H ) :   0.9175
B( 21-C , 22-C ) :   1.4146 B( 21-C , 24-H ) :   0.9202 B( 22-C , 27-H ) :   0.9129
B( 28-C , 29-H ) :   0.8939 B( 28-C , 30-H ) :   0.9139 B( 31-O , 32-C ) :   1.2486
B( 32-C , 33-O ) :   1.8611 B( 32-C , 34-C ) :   0.9301 B( 34-C , 35-H ) :   0.9152
B( 34-C , 36-H ) :   0.9110 B( 34-C , 37-H ) :   0.9198

Dispersion correction           -0.026048296
FINAL SINGLE POINT ENERGY      -988.515905700904
Dispersion correction            ... done

DIPOLE MOMENT
-------------
                                X             Y             Z
Electronic contribution:     23.65071      18.02757     -22.92188
Nuclear contribution   :    -25.21411     -18.56612      23.78013
                        -----------------------------------------
Total Dipole Moment    :     -1.56340      -0.53855       0.85825
                        -----------------------------------------
Magnitude (a.u.)       :      1.86303
Magnitude (Debye)      :      4.73544

Rotational constants in cm-1:     0.014154     0.008421     0.006895
Rotational constants in MHz :   424.338619   252.444218   206.711635

                             ****ORCA TERMINATED NORMALLY****
TOTAL RUN TIME: 0 days 0 hours 13 minutes 27 seconds 536 msec
