                         Program Version 5.0.3 -  RELEASE  -
|  1> ! EnGrad PBEh-3c
|  2> %output
|  3> xyzfile=True
|  4> end
|  5> %scf
|  6> maxiter 250
|  7> end
|  8> %output
|  9> Print[P_Hirshfeld] = 1
| 10> end
| 11> % maxcore
| 12> 4000
| 13> *xyz 0 1
| 14> Pd   0.54257670   0.38695467  -0.46624710
| 15> O    2.08960198   1.33973990   0.26536486
| 16> C    1.61234737   2.52175922   0.29321513
| 17> O    0.40534751   2.67668998   0.03533714
| 18> C    2.57088019   3.64085622   0.56683619
| 19> H    2.10892825   4.52357507   1.01310158
| 20> H    3.04062911   3.95223427  -0.37314133
| 21> H    3.37127202   3.28851113   1.21553530
| 22> N   -1.31026803  -0.53318187  -1.12757036
| 23> C   -1.20081365  -1.54447914  -2.20524896
| 24> H   -0.75743606  -1.09743750  -3.09251104
| 25> H   -2.19218467  -1.93883907  -2.47212486
| 26> H   -0.57692433  -2.38323638  -1.89215827
| 27> C   -2.17575850   0.56346691  -1.60518051
| 28> H   -2.32814679   1.28322109  -0.80209899
| 29> H   -3.15917422   0.16390585  -1.88328852
| 30> H   -1.72214922   1.07972835  -2.45061460
| 31> C   -1.53141371  -0.81614558   1.45016393
| 32> C   -1.01148201  -1.87730151   2.17109987
| 33> C   -0.82888696  -1.75303567   3.52099329
| 34> C   -1.27371230  -0.65652459   4.22766410
| 35> C   -1.68144718   0.46222059   3.50653470
| 36> C   -1.77788929   0.39363257   2.10174872
| 37> H   -1.24760073  -0.70704254   5.30406697
| 38> H   -1.97961742   1.38658140   4.02246972
| 39> H   -0.76693977  -2.75202147   1.58981194
| 40> H   -0.33986648  -2.55674462   3.97443753
| 41> H   -1.98363125   1.19280164   1.47197337
| 42> C   -1.98355611  -1.16251095   0.03227531
| 43> H   -3.07268463  -1.01824139  -0.05410642
| 44> H   -1.83597916  -2.22687141  -0.00489549
| 45> O    1.84347751  -0.93802279  -1.21961630
| 46> C    2.21062279  -0.56923320  -2.40711398
| 47> O    1.52107255   0.09217640  -3.16520490
| 48> C    3.59923636  -1.02186952  -2.81229220
| 49> H    3.64474517  -2.11021691  -2.87098805
| 50> H    4.33995275  -0.71467831  -2.07198428
| 51> H    3.90394563  -0.62065434  -3.77915636
| 52> *
| 53>
| 54>                          ****END OF INPUT****

CARTESIAN COORDINATES (ANGSTROEM)
---------------------------------
  Pd     0.542577    0.386955   -0.466247
  O      2.089602    1.339740    0.265365
  C      1.612347    2.521759    0.293215
  O      0.405348    2.676690    0.035337
  C      2.570880    3.640856    0.566836
  H      2.108928    4.523575    1.013102
  H      3.040629    3.952234   -0.373141
  H      3.371272    3.288511    1.215535
  N     -1.310268   -0.533182   -1.127570
  C     -1.200814   -1.544479   -2.205249
  H     -0.757436   -1.097438   -3.092511
  H     -2.192185   -1.938839   -2.472125
  H     -0.576924   -2.383236   -1.892158
  C     -2.175759    0.563467   -1.605181
  H     -2.328147    1.283221   -0.802099
  H     -3.159174    0.163906   -1.883289
  H     -1.722149    1.079728   -2.450615
  C     -1.531414   -0.816146    1.450164
  C     -1.011482   -1.877302    2.171100
  C     -0.828887   -1.753036    3.520993
  C     -1.273712   -0.656525    4.227664
  C     -1.681447    0.462221    3.506535
  C     -1.777889    0.393633    2.101749
  H     -1.247601   -0.707043    5.304067
  H     -1.979617    1.386581    4.022470
  H     -0.766940   -2.752021    1.589812
  H     -0.339866   -2.556745    3.974438
  H     -1.983631    1.192802    1.471973
  C     -1.983556   -1.162511    0.032275
  H     -3.072685   -1.018241   -0.054106
  H     -1.835979   -2.226871   -0.004895
  O      1.843478   -0.938023   -1.219616
  C      2.210623   -0.569233   -2.407114
  O      1.521073    0.092176   -3.165205
  C      3.599236   -1.021870   -2.812292
  H      3.644745   -2.110217   -2.870988
  H      4.339953   -0.714678   -2.071984
  H      3.903946   -0.620654   -3.779156

 Total Charge           Charge          ....    0
 Multiplicity           Mult            ....    1
 Number of Electrons    NEL             ....  154
 Basis Dimension        Dim             ....  339

ORBITAL ENERGIES
----------------

  NO   OCC          E(Eh)            E(eV)
   0   2.0000     -19.500431      -530.6337
   1   2.0000     -19.482254      -530.1391
   2   2.0000     -19.473849      -529.9104
   3   2.0000     -19.431286      -528.7522
   4   2.0000     -14.720468      -400.5643
   5   2.0000     -10.565023      -287.4889
   6   2.0000     -10.531185      -286.5681
   7   2.0000     -10.500132      -285.7231
   8   2.0000     -10.487066      -285.3676
   9   2.0000     -10.477750      -285.1141
  10   2.0000     -10.471977      -284.9570
  11   2.0000     -10.467197      -284.8269
  12   2.0000     -10.460656      -284.6489
  13   2.0000     -10.460337      -284.6402
  14   2.0000     -10.455078      -284.4971
  15   2.0000     -10.451473      -284.3990
  16   2.0000     -10.438652      -284.0502
  17   2.0000     -10.413589      -283.3682
  18   2.0000      -3.660443       -99.6057
  19   2.0000      -2.311721       -62.9051
  20   2.0000      -2.302355       -62.6503
  21   2.0000      -2.269802       -61.7644
  22   2.0000      -1.196935       -32.5702
  23   2.0000      -1.148939       -31.2642
  24   2.0000      -1.081162       -29.4199
  25   2.0000      -1.075710       -29.2716
  26   2.0000      -1.050324       -28.5808
  27   2.0000      -0.975612       -26.5478
  28   2.0000      -0.882958       -24.0265
  29   2.0000      -0.852101       -23.1868
  30   2.0000      -0.827333       -22.5129
  31   2.0000      -0.821003       -22.3406
  32   2.0000      -0.801317       -21.8049
  33   2.0000      -0.794241       -21.6124
  34   2.0000      -0.721795       -19.6410
  35   2.0000      -0.702211       -19.1081
  36   2.0000      -0.674394       -18.3512
  37   2.0000      -0.615391       -16.7456
  38   2.0000      -0.606036       -16.4911
  39   2.0000      -0.584450       -15.9037
  40   2.0000      -0.571949       -15.5635
  41   2.0000      -0.570148       -15.5145
  42   2.0000      -0.563522       -15.3342
  43   2.0000      -0.543747       -14.7961
  44   2.0000      -0.536756       -14.6059
  45   2.0000      -0.530035       -14.4230
  46   2.0000      -0.524844       -14.2817
  47   2.0000      -0.522737       -14.2244
  48   2.0000      -0.507188       -13.8013
  49   2.0000      -0.495773       -13.4907
  50   2.0000      -0.495334       -13.4787
  51   2.0000      -0.492342       -13.3973
  52   2.0000      -0.487608       -13.2685
  53   2.0000      -0.480589       -13.0775
  54   2.0000      -0.461562       -12.5597
  55   2.0000      -0.454119       -12.3572
  56   2.0000      -0.448424       -12.2022
  57   2.0000      -0.443699       -12.0737
  58   2.0000      -0.441476       -12.0132
  59   2.0000      -0.435016       -11.8374
  60   2.0000      -0.428461       -11.6590
  61   2.0000      -0.417740       -11.3673
  62   2.0000      -0.413969       -11.2647
  63   2.0000      -0.407692       -11.0939
  64   2.0000      -0.399679       -10.8758
  65   2.0000      -0.378238       -10.2924
  66   2.0000      -0.370720       -10.0878
  67   2.0000      -0.357973        -9.7409
  68   2.0000      -0.352181        -9.5833
  69   2.0000      -0.346600        -9.4315
  70   2.0000      -0.320434        -8.7194
  71   2.0000      -0.317268        -8.6333
  72   2.0000      -0.307453        -8.3662
  73   2.0000      -0.302663        -8.2359
  74   2.0000      -0.294148        -8.0042
  75   2.0000      -0.293707        -7.9922
  76   2.0000      -0.273248        -7.4354
  77   0.0000      -0.062160        -1.6915
  78   0.0000      -0.005183        -0.1410
  79   0.0000       0.006135         0.1669
  80   0.0000       0.052796         1.4366
  81   0.0000       0.066204         1.8015

MULLIKEN ATOMIC CHARGES
-----------------------
   0 Pd:    0.550583
   1 O :   -0.493874
   2 C :    0.643190
   3 O :   -0.486963
   4 C :   -0.768700
   5 H :    0.248770
   6 H :    0.261136
   7 H :    0.255793
   8 N :   -0.476901
   9 C :   -0.537452
  10 H :    0.296433
  11 H :    0.217697
  12 H :    0.269134
  13 C :   -0.543462
  14 H :    0.264859
  15 H :    0.229284
  16 H :    0.293017
  17 C :    0.067787
  18 C :   -0.247070
  19 C :   -0.212766
  20 C :   -0.212653
  21 C :   -0.239550
  22 C :   -0.239440
  23 H :    0.228936
  24 H :    0.224111
  25 H :    0.224896
  26 H :    0.228584
  27 H :    0.239335
  28 C :   -0.326803
  29 H :    0.246159
  30 H :    0.252563
  31 O :   -0.538525
  32 C :    0.570126
  33 O :   -0.463412
  34 C :   -0.742542
  35 H :    0.231880
  36 H :    0.245857
  37 H :    0.239983
Sum of atomic charges:    0.0000000

LOEWDIN ATOMIC CHARGES
----------------------
   0 Pd:   -0.238136
   1 O :   -0.134074
   2 C :    0.174652
   3 O :   -0.209203
   4 C :   -0.378778
   5 H :    0.149496
   6 H :    0.164327
   7 H :    0.155644
   8 N :   -0.064338
   9 C :   -0.237929
  10 H :    0.164127
  11 H :    0.118356
  12 H :    0.150192
  13 C :   -0.231828
  14 H :    0.147526
  15 H :    0.124351
  16 H :    0.162078
  17 C :   -0.050753
  18 C :   -0.119127
  19 C :   -0.124238
  20 C :   -0.126463
  21 C :   -0.116491
  22 C :   -0.115032
  23 H :    0.142448
  24 H :    0.142354
  25 H :    0.142290
  26 H :    0.139708
  27 H :    0.149372
  28 C :   -0.109700
  29 H :    0.140386
  30 H :    0.145690
  31 O :   -0.185145
  32 C :    0.131898
  33 O :   -0.258269
  34 C :   -0.381257
  35 H :    0.144904
  36 H :    0.149781
  37 H :    0.141183

  Mayer bond orders larger than 0.100000
B(  0-Pd,  1-O ) :   0.6360 B(  0-Pd,  3-O ) :   0.3594 B(  0-Pd,  8-N ) :   0.3990
B(  0-Pd, 31-O ) :   0.6564 B(  0-Pd, 33-O ) :   0.1177 B(  1-O ,  2-C ) :   1.3293
B(  2-C ,  3-O ) :   1.6379 B(  2-C ,  4-C ) :   0.9514 B(  4-C ,  5-H ) :   0.9123
B(  4-C ,  6-H ) :   0.9022 B(  4-C ,  7-H ) :   0.9068 B(  8-N ,  9-C ) :   0.9177
B(  8-N , 13-C ) :   0.9216 B(  8-N , 28-C ) :   0.8861 B(  9-C , 10-H ) :   0.8816
B(  9-C , 11-H ) :   0.9038 B(  9-C , 12-H ) :   0.9031 B( 13-C , 14-H ) :   0.8980
B( 13-C , 15-H ) :   0.9021 B( 13-C , 16-H ) :   0.8934 B( 17-C , 18-C ) :   1.4096
B( 17-C , 22-C ) :   1.4023 B( 17-C , 28-C ) :   0.9460 B( 18-C , 19-C ) :   1.4497
B( 18-C , 25-H ) :   0.9108 B( 19-C , 20-C ) :   1.4195 B( 19-C , 26-H ) :   0.9155
B( 20-C , 21-C ) :   1.4144 B( 20-C , 23-H ) :   0.9182 B( 21-C , 22-C ) :   1.4252
B( 21-C , 24-H ) :   0.9211 B( 22-C , 27-H ) :   0.9086 B( 28-C , 29-H ) :   0.8955
B( 28-C , 30-H ) :   0.9130 B( 31-O , 32-C ) :   1.2580 B( 32-C , 33-O ) :   1.8537
B( 32-C , 34-C ) :   0.9330 B( 34-C , 35-H ) :   0.9150 B( 34-C , 36-H ) :   0.9107
B( 34-C , 37-H ) :   0.9194

Dispersion correction           -0.026061816
FINAL SINGLE POINT ENERGY      -988.523739465349
Dispersion correction            ... done

DIPOLE MOMENT
-------------
                                X             Y             Z
Electronic contribution:     23.73600      18.03035     -23.33894
Nuclear contribution   :    -25.29376     -18.56429      24.20079
                        -----------------------------------------
Total Dipole Moment    :     -1.55775      -0.53394       0.86185
                        -----------------------------------------
Magnitude (a.u.)       :      1.85862
Magnitude (Debye)      :      4.72423

Rotational constants in cm-1:     0.014172     0.008433     0.006919
Rotational constants in MHz :   424.869222   252.815916   207.435157

                             ****ORCA TERMINATED NORMALLY****
TOTAL RUN TIME: 0 days 0 hours 13 minutes 48 seconds 56 msec
