                         Program Version 5.0.3 -  RELEASE  -
|  1> ! EnGrad PBEh-3c
|  2> %output
|  3> xyzfile=True
|  4> end
|  5> %scf
|  6> maxiter 250
|  7> end
|  8> %output
|  9> Print[P_Hirshfeld] = 1
| 10> end
| 11> % maxcore
| 12> 4000
| 13> *xyz 0 1
| 14> Pd   0.55123732   0.39368375  -0.48098217
| 15> O    2.10622731   1.36075445   0.25290821
| 16> C    1.61369229   2.53213099   0.29099650
| 17> O    0.39560707   2.66600036   0.04914768
| 18> C    2.56351606   3.64688306   0.56450271
| 19> H    2.08775693   4.51134474   1.00545265
| 20> H    3.02064242   3.96960132  -0.37085478
| 21> H    3.36795383   3.31343566   1.21589618
| 22> N   -1.29299594  -0.51052310  -1.13011985
| 23> C   -1.20100551  -1.51236656  -2.22118305
| 24> H   -0.76462202  -1.04414890  -3.10190479
| 25> H   -2.20590858  -1.89832259  -2.47928333
| 26> H   -0.56857043  -2.35113337  -1.91553042
| 27> C   -2.17723494   0.59119555  -1.58796183
| 28> H   -2.31953083   1.30570481  -0.77091536
| 29> H   -3.16244192   0.17894355  -1.87209440
| 30> H   -1.72325745   1.10402768  -2.44079839
| 31> C   -1.54318030  -0.81563234   1.44208951
| 32> C   -0.97291310  -1.87045220   2.15432666
| 33> C   -0.78800007  -1.75308887   3.51579411
| 34> C   -1.25666274  -0.67029488   4.22443062
| 35> C   -1.69563876   0.40185878   3.45650046
| 36> C   -1.83072632   0.40704381   2.06930255
| 37> H   -1.25075015  -0.68288629   5.32962380
| 38> H   -2.02599872   1.26240834   3.99726107
| 39> H   -0.68519411  -2.78406693   1.59143482
| 40> H   -0.31277817  -2.54306607   4.01039769
| 41> H   -2.08480846   1.27820451   1.52909811
| 42> C   -1.95571095  -1.17339065   0.02633287
| 43> H   -3.04215390  -1.03754471  -0.05072589
| 44> H   -1.79833467  -2.24478210  -0.03991042
| 45> O    1.83051421  -0.95303587  -1.22465259
| 46> C    2.21516531  -0.59344091  -2.40530663
| 47> O    1.54032483   0.10774126  -3.16013622
| 48> C    3.58766340  -1.06551020  -2.79246693
| 49> H    3.62517026  -2.14797424  -2.84485223
| 50> H    4.33658394  -0.75240627  -2.06596286
| 51> H    3.88549941  -0.68025754  -3.75944983
| 52> *
| 53>
| 54>                          ****END OF INPUT****

CARTESIAN COORDINATES (ANGSTROEM)
---------------------------------
  Pd     0.551237    0.393684   -0.480982
  O      2.106227    1.360754    0.252908
  C      1.613692    2.532131    0.290996
  O      0.395607    2.666000    0.049148
  C      2.563516    3.646883    0.564503
  H      2.087757    4.511345    1.005453
  H      3.020642    3.969601   -0.370855
  H      3.367954    3.313436    1.215896
  N     -1.292996   -0.510523   -1.130120
  C     -1.201006   -1.512367   -2.221183
  H     -0.764622   -1.044149   -3.101905
  H     -2.205909   -1.898323   -2.479283
  H     -0.568570   -2.351133   -1.915530
  C     -2.177235    0.591196   -1.587962
  H     -2.319531    1.305705   -0.770915
  H     -3.162442    0.178944   -1.872094
  H     -1.723257    1.104028   -2.440798
  C     -1.543180   -0.815632    1.442090
  C     -0.972913   -1.870452    2.154327
  C     -0.788000   -1.753089    3.515794
  C     -1.256663   -0.670295    4.224431
  C     -1.695639    0.401859    3.456500
  C     -1.830726    0.407044    2.069303
  H     -1.250750   -0.682886    5.329624
  H     -2.025999    1.262408    3.997261
  H     -0.685194   -2.784067    1.591435
  H     -0.312778   -2.543066    4.010398
  H     -2.084808    1.278205    1.529098
  C     -1.955711   -1.173391    0.026333
  H     -3.042154   -1.037545   -0.050726
  H     -1.798335   -2.244782   -0.039910
  O      1.830514   -0.953036   -1.224653
  C      2.215165   -0.593441   -2.405307
  O      1.540325    0.107741   -3.160136
  C      3.587663   -1.065510   -2.792467
  H      3.625170   -2.147974   -2.844852
  H      4.336584   -0.752406   -2.065963
  H      3.885499   -0.680258   -3.759450

 Total Charge           Charge          ....    0
 Multiplicity           Mult            ....    1
 Number of Electrons    NEL             ....  154
 Basis Dimension        Dim             ....  339

ORBITAL ENERGIES
----------------

  NO   OCC          E(Eh)            E(eV)
   0   2.0000     -19.498175      -530.5723
   1   2.0000     -19.481767      -530.1258
   2   2.0000     -19.474408      -529.9256
   3   2.0000     -19.429699      -528.7090
   4   2.0000     -14.721071      -400.5807
   5   2.0000     -10.563731      -287.4537
   6   2.0000     -10.530985      -286.5627
   7   2.0000     -10.498293      -285.6731
   8   2.0000     -10.489325      -285.4291
   9   2.0000     -10.478684      -285.1395
  10   2.0000     -10.475971      -285.0657
  11   2.0000     -10.463396      -284.7235
  12   2.0000     -10.461090      -284.6607
  13   2.0000     -10.461023      -284.6589
  14   2.0000     -10.458768      -284.5975
  15   2.0000     -10.452935      -284.4388
  16   2.0000     -10.435984      -283.9775
  17   2.0000     -10.412087      -283.3273
  18   2.0000      -3.659495       -99.5799
  19   2.0000      -2.310348       -62.8678
  20   2.0000      -2.301818       -62.6356
  21   2.0000      -2.268616       -61.7322
  22   2.0000      -1.195481       -32.5307
  23   2.0000      -1.147076       -31.2135
  24   2.0000      -1.078827       -29.3564
  25   2.0000      -1.072816       -29.1928
  26   2.0000      -1.046757       -28.4837
  27   2.0000      -0.974585       -26.5198
  28   2.0000      -0.882002       -24.0005
  29   2.0000      -0.852416       -23.1954
  30   2.0000      -0.829924       -22.5834
  31   2.0000      -0.818636       -22.2762
  32   2.0000      -0.799312       -21.7504
  33   2.0000      -0.797727       -21.7072
  34   2.0000      -0.720448       -19.6044
  35   2.0000      -0.698506       -19.0073
  36   2.0000      -0.673155       -18.3175
  37   2.0000      -0.614442       -16.7198
  38   2.0000      -0.603945       -16.4342
  39   2.0000      -0.586284       -15.9536
  40   2.0000      -0.570220       -15.5165
  41   2.0000      -0.568075       -15.4581
  42   2.0000      -0.561008       -15.2658
  43   2.0000      -0.542387       -14.7591
  44   2.0000      -0.536572       -14.6009
  45   2.0000      -0.529439       -14.4068
  46   2.0000      -0.524748       -14.2791
  47   2.0000      -0.522854       -14.2276
  48   2.0000      -0.507685       -13.8148
  49   2.0000      -0.497123       -13.5274
  50   2.0000      -0.495308       -13.4780
  51   2.0000      -0.491482       -13.3739
  52   2.0000      -0.486352       -13.2343
  53   2.0000      -0.479445       -13.0464
  54   2.0000      -0.461810       -12.5665
  55   2.0000      -0.454366       -12.3639
  56   2.0000      -0.447541       -12.1782
  57   2.0000      -0.443257       -12.0616
  58   2.0000      -0.440032       -11.9739
  59   2.0000      -0.432226       -11.7615
  60   2.0000      -0.428492       -11.6599
  61   2.0000      -0.418151       -11.3785
  62   2.0000      -0.413251       -11.2451
  63   2.0000      -0.403826       -10.9887
  64   2.0000      -0.401893       -10.9361
  65   2.0000      -0.378182       -10.2909
  66   2.0000      -0.369027       -10.0417
  67   2.0000      -0.357080        -9.7166
  68   2.0000      -0.351175        -9.5560
  69   2.0000      -0.345082        -9.3902
  70   2.0000      -0.318883        -8.6773
  71   2.0000      -0.316925        -8.6240
  72   2.0000      -0.306630        -8.3438
  73   2.0000      -0.302659        -8.2358
  74   2.0000      -0.294560        -8.0154
  75   2.0000      -0.293220        -7.9789
  76   2.0000      -0.271291        -7.3822
  77   0.0000      -0.060385        -1.6431
  78   0.0000      -0.006224        -0.1694
  79   0.0000       0.008050         0.2191
  80   0.0000       0.053341         1.4515
  81   0.0000       0.067535         1.8377

MULLIKEN ATOMIC CHARGES
-----------------------
   0 Pd:    0.552256
   1 O :   -0.491806
   2 C :    0.644520
   3 O :   -0.493526
   4 C :   -0.770259
   5 H :    0.249592
   6 H :    0.262576
   7 H :    0.257232
   8 N :   -0.480607
   9 C :   -0.534159
  10 H :    0.295541
  11 H :    0.216372
  12 H :    0.269035
  13 C :   -0.536923
  14 H :    0.264207
  15 H :    0.227693
  16 H :    0.291117
  17 C :    0.056805
  18 C :   -0.238149
  19 C :   -0.223732
  20 C :   -0.201000
  21 C :   -0.243009
  22 C :   -0.229026
  23 H :    0.229313
  24 H :    0.221404
  25 H :    0.225025
  26 H :    0.228120
  27 H :    0.244685
  28 C :   -0.332443
  29 H :    0.244792
  30 H :    0.252789
  31 O :   -0.536741
  32 C :    0.572977
  33 O :   -0.474570
  34 C :   -0.744352
  35 H :    0.233442
  36 H :    0.248201
  37 H :    0.242610
Sum of atomic charges:   -0.0000000

LOEWDIN ATOMIC CHARGES
----------------------
   0 Pd:   -0.242616
   1 O :   -0.135389
   2 C :    0.174721
   3 O :   -0.213419
   4 C :   -0.378274
   5 H :    0.148981
   6 H :    0.164877
   7 H :    0.156732
   8 N :   -0.062531
   9 C :   -0.236618
  10 H :    0.163819
  11 H :    0.118626
  12 H :    0.150785
  13 C :   -0.229411
  14 H :    0.148491
  15 H :    0.124865
  16 H :    0.162082
  17 C :   -0.043906
  18 C :   -0.120880
  19 C :   -0.119992
  20 C :   -0.132669
  21 C :   -0.114876
  22 C :   -0.119618
  23 H :    0.144623
  24 H :    0.136460
  25 H :    0.145392
  26 H :    0.137522
  27 H :    0.153884
  28 C :   -0.110415
  29 H :    0.139781
  30 H :    0.145566
  31 O :   -0.181633
  32 C :    0.135474
  33 O :   -0.269914
  34 C :   -0.379733
  35 H :    0.145377
  36 H :    0.151667
  37 H :    0.142170

  Mayer bond orders larger than 0.100000
B(  0-Pd,  1-O ) :   0.6267 B(  0-Pd,  3-O ) :   0.3690 B(  0-Pd,  8-N ) :   0.4057
B(  0-Pd, 31-O ) :   0.6531 B(  0-Pd, 33-O ) :   0.1211 B(  1-O ,  2-C ) :   1.3425
B(  2-C ,  3-O ) :   1.6235 B(  2-C ,  4-C ) :   0.9553 B(  4-C ,  5-H ) :   0.9112
B(  4-C ,  6-H ) :   0.9015 B(  4-C ,  7-H ) :   0.9072 B(  8-N ,  9-C ) :   0.9156
B(  8-N , 13-C ) :   0.9185 B(  8-N , 28-C ) :   0.8842 B(  9-C , 10-H ) :   0.8815
B(  9-C , 11-H ) :   0.9039 B(  9-C , 12-H ) :   0.9026 B( 13-C , 14-H ) :   0.8983
B( 13-C , 15-H ) :   0.9025 B( 13-C , 16-H ) :   0.8937 B( 17-C , 18-C ) :   1.4102
B( 17-C , 22-C ) :   1.3806 B( 17-C , 28-C ) :   0.9466 B( 18-C , 19-C ) :   1.4380
B( 18-C , 25-H ) :   0.9138 B( 19-C , 20-C ) :   1.4247 B( 19-C , 26-H ) :   0.9140
B( 20-C , 21-C ) :   1.4103 B( 20-C , 23-H ) :   0.9173 B( 21-C , 22-C ) :   1.4424
B( 21-C , 24-H ) :   0.9187 B( 22-C , 27-H ) :   0.9092 B( 28-C , 29-H ) :   0.8960
B( 28-C , 30-H ) :   0.9140 B( 31-O , 32-C ) :   1.2653 B( 32-C , 33-O ) :   1.8388
B( 32-C , 34-C ) :   0.9385 B( 34-C , 35-H ) :   0.9139 B( 34-C , 36-H ) :   0.9100
B( 34-C , 37-H ) :   0.9186

Dispersion correction           -0.026040053
FINAL SINGLE POINT ENERGY      -988.527216755007
Dispersion correction            ... done

DIPOLE MOMENT
-------------
                                X             Y             Z
Electronic contribution:     24.14256      18.37748     -24.04890
Nuclear contribution   :    -25.70627     -18.92523      24.93037
                        -----------------------------------------
Total Dipole Moment    :     -1.56371      -0.54775       0.88147
                        -----------------------------------------
Magnitude (a.u.)       :      1.87676
Magnitude (Debye)      :      4.77033

Rotational constants in cm-1:     0.014152     0.008440     0.006958
Rotational constants in MHz :   424.262966   253.031953   208.588872

                             ****ORCA TERMINATED NORMALLY****
TOTAL RUN TIME: 0 days 0 hours 12 minutes 23 seconds 997 msec
