                         Program Version 5.0.3 -  RELEASE  -
|  1> ! EnGrad PBEh-3c
|  2> %output
|  3> xyzfile=True
|  4> end
|  5> %scf
|  6> maxiter 250
|  7> end
|  8> %output
|  9> Print[P_Hirshfeld] = 1
| 10> end
| 11> % maxcore
| 12> 4000
| 13> *xyz 0 1
| 14> Pd   0.54919436   0.39207573  -0.48829359
| 15> O    2.11500260   1.35951684   0.24024197
| 16> C    1.60735012   2.52642969   0.28830161
| 17> O    0.39052316   2.65757295   0.06404888
| 18> C    2.56397435   3.64380810   0.56428977
| 19> H    2.08146176   4.50278364   1.00289718
| 20> H    3.01742188   3.96385386  -0.37099664
| 21> H    3.36541516   3.30957264   1.21721759
| 22> N   -1.28918711  -0.50513217  -1.12736957
| 23> C   -1.19765264  -1.51149463  -2.21696539
| 24> H   -0.76038506  -1.04613588  -3.09779334
| 25> H   -2.20170286  -1.89708673  -2.47128074
| 26> H   -0.56516896  -2.34642327  -1.90466657
| 27> C   -2.17380603   0.59344001  -1.59086850
| 28> H   -2.31952336   1.31150318  -0.77797964
| 29> H   -3.15751183   0.18058234  -1.87901155
| 30> H   -1.72108847   1.10461437  -2.44426055
| 31> C   -1.54965840  -0.81832913   1.42580373
| 32> C   -0.97329025  -1.87267146   2.14853792
| 33> C   -0.79389932  -1.76205877   3.51440787
| 34> C   -1.24677650  -0.65974187   4.22408093
| 35> C   -1.68564714   0.40052454   3.44318121
| 36> C   -1.82533126   0.40996604   2.05993878
| 37> H   -1.25402320  -0.66346612   5.33097838
| 38> H   -1.99844698   1.25813816   3.98758892
| 39> H   -0.68698371  -2.79571664   1.60882165
| 40> H   -0.32482292  -2.56268234   4.03985002
| 41> H   -2.10574398   1.29097947   1.53680410
| 42> C   -1.95329695  -1.17286267   0.03449020
| 43> H   -3.03596678  -1.02934394  -0.04498000
| 44> H   -1.79955409  -2.24880623  -0.04870712
| 45> O    1.82153054  -0.96172665  -1.22693284
| 46> C    2.20736288  -0.58936464  -2.41030291
| 47> O    1.54326621   0.11232089  -3.15749793
| 48> C    3.58926302  -1.06509326  -2.79194000
| 49> H    3.62879426  -2.14685464  -2.84700547
| 50> H    4.33242529  -0.74624564  -2.06467162
| 51> H    3.88014330  -0.67457056  -3.75725595
| 52> *
| 53>
| 54>                          ****END OF INPUT****

CARTESIAN COORDINATES (ANGSTROEM)
---------------------------------
  Pd     0.549194    0.392076   -0.488294
  O      2.115003    1.359517    0.240242
  C      1.607350    2.526430    0.288302
  O      0.390523    2.657573    0.064049
  C      2.563974    3.643808    0.564290
  H      2.081462    4.502784    1.002897
  H      3.017422    3.963854   -0.370997
  H      3.365415    3.309573    1.217218
  N     -1.289187   -0.505132   -1.127370
  C     -1.197653   -1.511495   -2.216965
  H     -0.760385   -1.046136   -3.097793
  H     -2.201703   -1.897087   -2.471281
  H     -0.565169   -2.346423   -1.904667
  C     -2.173806    0.593440   -1.590869
  H     -2.319523    1.311503   -0.777980
  H     -3.157512    0.180582   -1.879012
  H     -1.721088    1.104614   -2.444261
  C     -1.549658   -0.818329    1.425804
  C     -0.973290   -1.872671    2.148538
  C     -0.793899   -1.762059    3.514408
  C     -1.246776   -0.659742    4.224081
  C     -1.685647    0.400525    3.443181
  C     -1.825331    0.409966    2.059939
  H     -1.254023   -0.663466    5.330978
  H     -1.998447    1.258138    3.987589
  H     -0.686984   -2.795717    1.608822
  H     -0.324823   -2.562682    4.039850
  H     -2.105744    1.290979    1.536804
  C     -1.953297   -1.172863    0.034490
  H     -3.035967   -1.029344   -0.044980
  H     -1.799554   -2.248806   -0.048707
  O      1.821531   -0.961727   -1.226933
  C      2.207363   -0.589365   -2.410303
  O      1.543266    0.112321   -3.157498
  C      3.589263   -1.065093   -2.791940
  H      3.628794   -2.146855   -2.847005
  H      4.332425   -0.746246   -2.064672
  H      3.880143   -0.674571   -3.757256

 Total Charge           Charge          ....    0
 Multiplicity           Mult            ....    1
 Number of Electrons    NEL             ....  154
 Basis Dimension        Dim             ....  339

ORBITAL ENERGIES
----------------

  NO   OCC          E(Eh)            E(eV)
   0   2.0000     -19.496311      -530.5216
   1   2.0000     -19.482447      -530.1443
   2   2.0000     -19.474028      -529.9152
   3   2.0000     -19.432525      -528.7859
   4   2.0000     -14.721609      -400.5953
   5   2.0000     -10.562942      -287.4323
   6   2.0000     -10.531605      -286.5795
   7   2.0000     -10.497979      -285.6645
   8   2.0000     -10.489440      -285.4322
   9   2.0000     -10.478827      -285.1434
  10   2.0000     -10.476661      -285.0845
  11   2.0000     -10.464690      -284.7587
  12   2.0000     -10.462212      -284.6913
  13   2.0000     -10.461810      -284.6803
  14   2.0000     -10.457205      -284.5550
  15   2.0000     -10.456247      -284.5289
  16   2.0000     -10.434401      -283.9345
  17   2.0000     -10.411758      -283.3183
  18   2.0000      -3.658783       -99.5605
  19   2.0000      -2.309417       -62.8424
  20   2.0000      -2.301300       -62.6215
  21   2.0000      -2.267954       -61.7142
  22   2.0000      -1.194755       -32.5109
  23   2.0000      -1.148736       -31.2587
  24   2.0000      -1.079667       -29.3792
  25   2.0000      -1.072263       -29.1778
  26   2.0000      -1.050046       -28.5732
  27   2.0000      -0.973329       -26.4856
  28   2.0000      -0.884093       -24.0574
  29   2.0000      -0.851374       -23.1671
  30   2.0000      -0.827623       -22.5208
  31   2.0000      -0.818890       -22.2831
  32   2.0000      -0.798465       -21.7273
  33   2.0000      -0.796812       -21.6824
  34   2.0000      -0.721587       -19.6354
  35   2.0000      -0.697045       -18.9676
  36   2.0000      -0.672769       -18.3070
  37   2.0000      -0.612714       -16.6728
  38   2.0000      -0.602969       -16.4076
  39   2.0000      -0.585211       -15.9244
  40   2.0000      -0.570738       -15.5306
  41   2.0000      -0.568389       -15.4666
  42   2.0000      -0.561712       -15.2850
  43   2.0000      -0.541173       -14.7261
  44   2.0000      -0.536115       -14.5884
  45   2.0000      -0.528227       -14.3738
  46   2.0000      -0.524520       -14.2729
  47   2.0000      -0.522079       -14.2065
  48   2.0000      -0.507996       -13.8233
  49   2.0000      -0.497565       -13.5394
  50   2.0000      -0.495439       -13.4816
  51   2.0000      -0.491942       -13.3864
  52   2.0000      -0.486983       -13.2515
  53   2.0000      -0.479801       -13.0561
  54   2.0000      -0.462280       -12.5793
  55   2.0000      -0.454286       -12.3617
  56   2.0000      -0.447716       -12.1830
  57   2.0000      -0.442847       -12.0505
  58   2.0000      -0.439786       -11.9672
  59   2.0000      -0.431516       -11.7421
  60   2.0000      -0.429178       -11.6785
  61   2.0000      -0.418383       -11.3848
  62   2.0000      -0.413332       -11.2473
  63   2.0000      -0.404340       -11.0026
  64   2.0000      -0.401408       -10.9229
  65   2.0000      -0.377948       -10.2845
  66   2.0000      -0.369829       -10.0635
  67   2.0000      -0.357913        -9.7393
  68   2.0000      -0.350968        -9.5503
  69   2.0000      -0.344749        -9.3811
  70   2.0000      -0.318059        -8.6548
  71   2.0000      -0.316768        -8.6197
  72   2.0000      -0.306853        -8.3499
  73   2.0000      -0.302942        -8.2435
  74   2.0000      -0.294517        -8.0142
  75   2.0000      -0.294072        -8.0021
  76   2.0000      -0.272267        -7.4088
  77   0.0000      -0.059037        -1.6065
  78   0.0000      -0.008406        -0.2287
  79   0.0000       0.008652         0.2354
  80   0.0000       0.055061         1.4983
  81   0.0000       0.068188         1.8555

MULLIKEN ATOMIC CHARGES
-----------------------
   0 Pd:    0.547294
   1 O :   -0.492908
   2 C :    0.641434
   3 O :   -0.490028
   4 C :   -0.768015
   5 H :    0.247848
   6 H :    0.261447
   7 H :    0.257137
   8 N :   -0.483991
   9 C :   -0.534819
  10 H :    0.294945
  11 H :    0.217389
  12 H :    0.270255
  13 C :   -0.537246
  14 H :    0.264670
  15 H :    0.227833
  16 H :    0.291219
  17 C :    0.060451
  18 C :   -0.233844
  19 C :   -0.230102
  20 C :   -0.200103
  21 C :   -0.239042
  22 C :   -0.227834
  23 H :    0.230397
  24 H :    0.221753
  25 H :    0.224075
  26 H :    0.226752
  27 H :    0.243334
  28 C :   -0.336811
  29 H :    0.245860
  30 H :    0.253499
  31 O :   -0.539653
  32 C :    0.570687
  33 O :   -0.463286
  34 C :   -0.744077
  35 H :    0.233251
  36 H :    0.248977
  37 H :    0.241252
Sum of atomic charges:   -0.0000000

LOEWDIN ATOMIC CHARGES
----------------------
   0 Pd:   -0.248957
   1 O :   -0.139667
   2 C :    0.173660
   3 O :   -0.208928
   4 C :   -0.378901
   5 H :    0.147721
   6 H :    0.163816
   7 H :    0.156525
   8 N :   -0.061523
   9 C :   -0.236221
  10 H :    0.163476
  11 H :    0.118954
  12 H :    0.151274
  13 C :   -0.229959
  14 H :    0.148641
  15 H :    0.124872
  16 H :    0.161953
  17 C :   -0.045397
  18 C :   -0.120280
  19 C :   -0.119352
  20 C :   -0.133404
  21 C :   -0.116530
  22 C :   -0.117779
  23 H :    0.144893
  24 H :    0.136087
  25 H :    0.145315
  26 H :    0.137573
  27 H :    0.154289
  28 C :   -0.108936
  29 H :    0.140849
  30 H :    0.146629
  31 O :   -0.186078
  32 C :    0.135016
  33 O :   -0.256946
  34 C :   -0.380879
  35 H :    0.144933
  36 H :    0.151828
  37 H :    0.141436

  Mayer bond orders larger than 0.100000
B(  0-Pd,  1-O ) :   0.6256 B(  0-Pd,  3-O ) :   0.3663 B(  0-Pd,  8-N ) :   0.4088
B(  0-Pd, 31-O ) :   0.6603 B(  0-Pd, 33-O ) :   0.1198 B(  1-O ,  2-C ) :   1.3403
B(  1-O ,  3-O ) :   0.1002 B(  2-C ,  3-O ) :   1.6292 B(  2-C ,  4-C ) :   0.9541
B(  4-C ,  5-H ) :   0.9117 B(  4-C ,  6-H ) :   0.9024 B(  4-C ,  7-H ) :   0.9078
B(  8-N ,  9-C ) :   0.9148 B(  8-N , 13-C ) :   0.9183 B(  8-N , 28-C ) :   0.8813
B(  9-C , 10-H ) :   0.8820 B(  9-C , 11-H ) :   0.9037 B(  9-C , 12-H ) :   0.9019
B( 13-C , 14-H ) :   0.8983 B( 13-C , 15-H ) :   0.9025 B( 13-C , 16-H ) :   0.8935
B( 17-C , 18-C ) :   1.4060 B( 17-C , 22-C ) :   1.3792 B( 17-C , 28-C ) :   0.9462
B( 18-C , 19-C ) :   1.4398 B( 18-C , 25-H ) :   0.9148 B( 19-C , 20-C ) :   1.4185
B( 19-C , 26-H ) :   0.9146 B( 20-C , 21-C ) :   1.4151 B( 20-C , 23-H ) :   0.9163
B( 21-C , 22-C ) :   1.4420 B( 21-C , 24-H ) :   0.9180 B( 22-C , 27-H ) :   0.9105
B( 28-C , 29-H ) :   0.8956 B( 28-C , 30-H ) :   0.9150 B( 31-O , 32-C ) :   1.2535
B( 32-C , 33-O ) :   1.8531 B( 32-C , 34-C ) :   0.9361 B( 34-C , 35-H ) :   0.9146
B( 34-C , 36-H ) :   0.9102 B( 34-C , 37-H ) :   0.9188

Dispersion correction           -0.026057755
FINAL SINGLE POINT ENERGY      -988.529663080351
Dispersion correction            ... done

DIPOLE MOMENT
-------------
                                X             Y             Z
Electronic contribution:     23.96968      18.30373     -24.45701
Nuclear contribution   :    -25.58703     -18.85692      25.30223
                        -----------------------------------------
Total Dipole Moment    :     -1.61735      -0.55319       0.84523
                        -----------------------------------------
Magnitude (a.u.)       :      1.90690
Magnitude (Debye)      :      4.84695

Rotational constants in cm-1:     0.014177     0.008454     0.006970
Rotational constants in MHz :   425.021569   253.432623   208.967363

                             ****ORCA TERMINATED NORMALLY****
TOTAL RUN TIME: 0 days 0 hours 14 minutes 17 seconds 535 msec
