                         Program Version 5.0.3 -  RELEASE  -
|  1> ! EnGrad PBEh-3c
|  2> %output
|  3> xyzfile=True
|  4> end
|  5> %scf
|  6> maxiter 250
|  7> end
|  8> %output
|  9> Print[P_Hirshfeld] = 1
| 10> end
| 11> % maxcore
| 12> 4000
| 13> *xyz 0 1
| 14> Pd   0.54757340   0.39092867  -0.48964749
| 15> O    2.11949993   1.35534535   0.24302864
| 16> C    1.60457389   2.52360795   0.28673670
| 17> O    0.38979270   2.65911027   0.06101730
| 18> C    2.56510006   3.65038728   0.56611175
| 19> H    2.07742956   4.51028344   1.00610298
| 20> H    3.01783222   3.96590795  -0.37198885
| 21> H    3.36757759   3.31165809   1.21707011
| 22> N   -1.29250040  -0.50716730  -1.12471245
| 23> C   -1.19803375  -1.50695991  -2.21775811
| 24> H   -0.76043639  -1.04621544  -3.09742368
| 25> H   -2.19509968  -1.89367385  -2.47083236
| 26> H   -0.56942280  -2.33989785  -1.91096528
| 27> C   -2.16795474   0.58818951  -1.58667357
| 28> H   -2.31831138   1.30768983  -0.78290238
| 29> H   -3.15099549   0.18780385  -1.87607821
| 30> H   -1.72436472   1.10023023  -2.43827360
| 31> C   -1.54836839  -0.81484490   1.41135340
| 32> C   -0.97191823  -1.86247340   2.13701415
| 33> C   -0.79427279  -1.77633210   3.51231107
| 34> C   -1.24355467  -0.65849490   4.20958377
| 35> C   -1.71021783   0.41195140   3.45787289
| 36> C   -1.80942780   0.38389109   2.07425996
| 37> H   -1.24498426  -0.66159837   5.30786340
| 38> H   -2.01521734   1.27876441   3.99755945
| 39> H   -0.68741900  -2.77936065   1.62059727
| 40> H   -0.30526362  -2.58652932   4.05192705
| 41> H   -2.11175653   1.29189078   1.54421326
| 42> C   -1.95829631  -1.17496045   0.03883987
| 43> H   -3.03721783  -1.03217412  -0.05194342
| 44> H   -1.79789503  -2.25077390  -0.05846210
| 45> O    1.81956839  -0.96180879  -1.22103612
| 46> C    2.20186180  -0.58044051  -2.41204193
| 47> O    1.54594968   0.10657316  -3.15934831
| 48> C    3.59418959  -1.06936924  -2.79366899
| 49> H    3.62680423  -2.15413474  -2.84326942
| 50> H    4.33117490  -0.75075787  -2.06058691
| 51> H    3.87768992  -0.67387830  -3.76288497
| 52> *
| 53>
| 54>                          ****END OF INPUT****

CARTESIAN COORDINATES (ANGSTROEM)
---------------------------------
  Pd     0.547573    0.390929   -0.489647
  O      2.119500    1.355345    0.243029
  C      1.604574    2.523608    0.286737
  O      0.389793    2.659110    0.061017
  C      2.565100    3.650387    0.566112
  H      2.077430    4.510283    1.006103
  H      3.017832    3.965908   -0.371989
  H      3.367578    3.311658    1.217070
  N     -1.292500   -0.507167   -1.124712
  C     -1.198034   -1.506960   -2.217758
  H     -0.760436   -1.046215   -3.097424
  H     -2.195100   -1.893674   -2.470832
  H     -0.569423   -2.339898   -1.910965
  C     -2.167955    0.588190   -1.586674
  H     -2.318311    1.307690   -0.782902
  H     -3.150995    0.187804   -1.876078
  H     -1.724365    1.100230   -2.438274
  C     -1.548368   -0.814845    1.411353
  C     -0.971918   -1.862473    2.137014
  C     -0.794273   -1.776332    3.512311
  C     -1.243555   -0.658495    4.209584
  C     -1.710218    0.411951    3.457873
  C     -1.809428    0.383891    2.074260
  H     -1.244984   -0.661598    5.307863
  H     -2.015217    1.278764    3.997559
  H     -0.687419   -2.779361    1.620597
  H     -0.305264   -2.586529    4.051927
  H     -2.111757    1.291891    1.544213
  C     -1.958296   -1.174960    0.038840
  H     -3.037218   -1.032174   -0.051943
  H     -1.797895   -2.250774   -0.058462
  O      1.819568   -0.961809   -1.221036
  C      2.201862   -0.580441   -2.412042
  O      1.545950    0.106573   -3.159348
  C      3.594190   -1.069369   -2.793669
  H      3.626804   -2.154135   -2.843269
  H      4.331175   -0.750758   -2.060587
  H      3.877690   -0.673878   -3.762885

 Total Charge           Charge          ....    0
 Multiplicity           Mult            ....    1
 Number of Electrons    NEL             ....  154
 Basis Dimension        Dim             ....  339

ORBITAL ENERGIES
----------------

  NO   OCC          E(Eh)            E(eV)
   0   2.0000     -19.495944      -530.5116
   1   2.0000     -19.482858      -530.1555
   2   2.0000     -19.474218      -529.9204
   3   2.0000     -19.436294      -528.8884
   4   2.0000     -14.721243      -400.5854
   5   2.0000     -10.563359      -287.4436
   6   2.0000     -10.532838      -286.6131
   7   2.0000     -10.499026      -285.6930
   8   2.0000     -10.487077      -285.3679
   9   2.0000     -10.477711      -285.1130
  10   2.0000     -10.474458      -285.0245
  11   2.0000     -10.465587      -284.7831
  12   2.0000     -10.461289      -284.6662
  13   2.0000     -10.461173      -284.6630
  14   2.0000     -10.459201      -284.6093
  15   2.0000     -10.457763      -284.5702
  16   2.0000     -10.434792      -283.9451
  17   2.0000     -10.412641      -283.3424
  18   2.0000      -3.658477       -99.5522
  19   2.0000      -2.308855       -62.8271
  20   2.0000      -2.301220       -62.6194
  21   2.0000      -2.267742       -61.7084
  22   2.0000      -1.192867       -32.4596
  23   2.0000      -1.151696       -31.3392
  24   2.0000      -1.079642       -29.3785
  25   2.0000      -1.074212       -29.2308
  26   2.0000      -1.053848       -28.6767
  27   2.0000      -0.974274       -26.5113
  28   2.0000      -0.886387       -24.1198
  29   2.0000      -0.849818       -23.1247
  30   2.0000      -0.824426       -22.4338
  31   2.0000      -0.820689       -22.3321
  32   2.0000      -0.799462       -21.7545
  33   2.0000      -0.794277       -21.6134
  34   2.0000      -0.722324       -19.6554
  35   2.0000      -0.697091       -18.9688
  36   2.0000      -0.673847       -18.3363
  37   2.0000      -0.611395       -16.6369
  38   2.0000      -0.602121       -16.3846
  39   2.0000      -0.583851       -15.8874
  40   2.0000      -0.572658       -15.5828
  41   2.0000      -0.569964       -15.5095
  42   2.0000      -0.561594       -15.2817
  43   2.0000      -0.539806       -14.6889
  44   2.0000      -0.535061       -14.5597
  45   2.0000      -0.528049       -14.3689
  46   2.0000      -0.524640       -14.2762
  47   2.0000      -0.520461       -14.1625
  48   2.0000      -0.508510       -13.8373
  49   2.0000      -0.496537       -13.5114
  50   2.0000      -0.493882       -13.4392
  51   2.0000      -0.493004       -13.4153
  52   2.0000      -0.488688       -13.2979
  53   2.0000      -0.480698       -13.0805
  54   2.0000      -0.461162       -12.5489
  55   2.0000      -0.453916       -12.3517
  56   2.0000      -0.448873       -12.2145
  57   2.0000      -0.442826       -12.0499
  58   2.0000      -0.440215       -11.9789
  59   2.0000      -0.431659       -11.7460
  60   2.0000      -0.430472       -11.7137
  61   2.0000      -0.418596       -11.3906
  62   2.0000      -0.413493       -11.2517
  63   2.0000      -0.407658       -11.0929
  64   2.0000      -0.400806       -10.9065
  65   2.0000      -0.377689       -10.2774
  66   2.0000      -0.371699       -10.1144
  67   2.0000      -0.358420        -9.7531
  68   2.0000      -0.350800        -9.5457
  69   2.0000      -0.344956        -9.3867
  70   2.0000      -0.318388        -8.6638
  71   2.0000      -0.316688        -8.6175
  72   2.0000      -0.307043        -8.3551
  73   2.0000      -0.303054        -8.2465
  74   2.0000      -0.295826        -8.0498
  75   2.0000      -0.294417        -8.0115
  76   2.0000      -0.274078        -7.4580
  77   0.0000      -0.058633        -1.5955
  78   0.0000      -0.007506        -0.2043
  79   0.0000       0.007531         0.2049
  80   0.0000       0.055627         1.5137
  81   0.0000       0.068350         1.8599

MULLIKEN ATOMIC CHARGES
-----------------------
   0 Pd:    0.541672
   1 O :   -0.493889
   2 C :    0.639613
   3 O :   -0.487576
   4 C :   -0.765110
   5 H :    0.246330
   6 H :    0.259965
   7 H :    0.256296
   8 N :   -0.483894
   9 C :   -0.538216
  10 H :    0.295305
  11 H :    0.218962
  12 H :    0.271598
  13 C :   -0.541675
  14 H :    0.266693
  15 H :    0.228227
  16 H :    0.291632
  17 C :    0.100765
  18 C :   -0.247887
  19 C :   -0.222973
  20 C :   -0.214397
  21 C :   -0.220540
  22 C :   -0.256956
  23 H :    0.228318
  24 H :    0.227602
  25 H :    0.222747
  26 H :    0.226997
  27 H :    0.236218
  28 C :   -0.342223
  29 H :    0.247600
  30 H :    0.255407
  31 O :   -0.543368
  32 C :    0.567903
  33 O :   -0.448527
  34 C :   -0.742486
  35 H :    0.232644
  36 H :    0.248622
  37 H :    0.238602
Sum of atomic charges:    0.0000000

LOEWDIN ATOMIC CHARGES
----------------------
   0 Pd:   -0.252047
   1 O :   -0.143647
   2 C :    0.176007
   3 O :   -0.207494
   4 C :   -0.379601
   5 H :    0.147214
   6 H :    0.162782
   7 H :    0.155816
   8 N :   -0.060854
   9 C :   -0.236994
  10 H :    0.163374
  11 H :    0.119133
  12 H :    0.151017
  13 C :   -0.232439
  14 H :    0.148757
  15 H :    0.124139
  16 H :    0.161230
  17 C :   -0.053776
  18 C :   -0.114167
  19 C :   -0.123331
  20 C :   -0.128831
  21 C :   -0.122772
  22 C :   -0.111239
  23 H :    0.141941
  24 H :    0.139324
  25 H :    0.143407
  26 H :    0.139693
  27 H :    0.152418
  28 C :   -0.104917
  29 H :    0.141587
  30 H :    0.148066
  31 O :   -0.191157
  32 C :    0.134487
  33 O :   -0.241137
  34 C :   -0.382417
  35 H :    0.144505
  36 H :    0.151258
  37 H :    0.140666

  Mayer bond orders larger than 0.100000
B(  0-Pd,  1-O ) :   0.6256 B(  0-Pd,  3-O ) :   0.3626 B(  0-Pd,  8-N ) :   0.4089
B(  0-Pd, 31-O ) :   0.6700 B(  0-Pd, 33-O ) :   0.1165 B(  1-O ,  2-C ) :   1.3368
B(  1-O ,  3-O ) :   0.1007 B(  2-C ,  3-O ) :   1.6331 B(  2-C ,  4-C ) :   0.9511
B(  4-C ,  5-H ) :   0.9125 B(  4-C ,  6-H ) :   0.9032 B(  4-C ,  7-H ) :   0.9081
B(  8-N ,  9-C ) :   0.9163 B(  8-N , 13-C ) :   0.9208 B(  8-N , 28-C ) :   0.8816
B(  9-C , 10-H ) :   0.8826 B(  9-C , 11-H ) :   0.9035 B(  9-C , 12-H ) :   0.9016
B( 13-C , 14-H ) :   0.8977 B( 13-C , 15-H ) :   0.9024 B( 13-C , 16-H ) :   0.8935
B( 17-C , 18-C ) :   1.4023 B( 17-C , 22-C ) :   1.3784 B( 17-C , 28-C ) :   0.9409
B( 18-C , 19-C ) :   1.4385 B( 18-C , 25-H ) :   0.9154 B( 19-C , 20-C ) :   1.4202
B( 19-C , 26-H ) :   0.9157 B( 20-C , 21-C ) :   1.4197 B( 20-C , 23-H ) :   0.9163
B( 21-C , 22-C ) :   1.4412 B( 21-C , 24-H ) :   0.9162 B( 22-C , 27-H ) :   0.9141
B( 28-C , 29-H ) :   0.8954 B( 28-C , 30-H ) :   0.9157 B( 31-O , 32-C ) :   1.2380
B( 32-C , 33-O ) :   1.8729 B( 32-C , 34-C ) :   0.9313 B( 34-C , 35-H ) :   0.9155
B( 34-C , 36-H ) :   0.9106 B( 34-C , 37-H ) :   0.9195

Dispersion correction           -0.026064297
FINAL SINGLE POINT ENERGY      -988.534752093297
Dispersion correction            ... done

DIPOLE MOMENT
-------------
                                X             Y             Z
Electronic contribution:     23.84965      18.25375     -24.56802
Nuclear contribution   :    -25.50133     -18.81100      25.37590
                        -----------------------------------------
Total Dipole Moment    :     -1.65168      -0.55725       0.80788
                        -----------------------------------------
Magnitude (a.u.)       :      1.92126
Magnitude (Debye)      :      4.88346

Rotational constants in cm-1:     0.014179     0.008455     0.006969
Rotational constants in MHz :   425.069644   253.466775   208.917954

                             ****ORCA TERMINATED NORMALLY****
TOTAL RUN TIME: 0 days 0 hours 12 minutes 42 seconds 780 msec
