                         Program Version 5.0.3 -  RELEASE  -
|  1> ! EnGrad PBEh-3c
|  2> %output
|  3> xyzfile=True
|  4> end
|  5> %scf
|  6> maxiter 250
|  7> end
|  8> %output
|  9> Print[P_Hirshfeld] = 1
| 10> end
| 11> % maxcore
| 12> 4000
| 13> *xyz 0 1
| 14> Pd   0.55268808   0.39534503  -0.49288901
| 15> O    2.12401274   1.35452471   0.23200253
| 16> C    1.60540979   2.52057588   0.28719928
| 17> O    0.38392617   2.65281046   0.06882483
| 18> C    2.56035738   3.65071905   0.56565568
| 19> H    2.06731699   4.50991318   1.00608927
| 20> H    3.01361078   3.96896044  -0.37410604
| 21> H    3.36653931   3.31558595   1.21794222
| 22> N   -1.29252131  -0.50270089  -1.12465060
| 23> C   -1.19576968  -1.49687235  -2.21873780
| 24> H   -0.76010225  -1.03554765  -3.09759715
| 25> H   -2.19262232  -1.88227501  -2.46801199
| 26> H   -0.56701522  -2.32909329  -1.91352072
| 27> C   -2.16490423   0.59356596  -1.58250265
| 28> H   -2.31586846   1.31407332  -0.78143771
| 29> H   -3.14530281   0.19460968  -1.87467184
| 30> H   -1.72407192   1.10433114  -2.43543823
| 31> C   -1.54077308  -0.81836862   1.40822357
| 32> C   -0.96447017  -1.85973140   2.13581113
| 33> C   -0.78532776  -1.78269446   3.51477907
| 34> C   -1.23526757  -0.66613430   4.20008053
| 35> C   -1.71205908   0.40347947   3.45549719
| 36> C   -1.81434330   0.36631038   2.07221940
| 37> H   -1.24291348  -0.64598447   5.29631608
| 38> H   -2.02215303   1.26629147   3.99364127
| 39> H   -0.67403748  -2.77788920   1.63186673
| 40> H   -0.30373394  -2.59257159   4.06731052
| 41> H   -2.14467415   1.31258166   1.55865746
| 42> C   -1.95459740  -1.18021068   0.02882242
| 43> H   -3.03107514  -1.03410252  -0.05332953
| 44> H   -1.78992682  -2.25268516  -0.07146177
| 45> O    1.81090354  -0.96886348  -1.22293244
| 46> C    2.20025569  -0.58359781  -2.40968981
| 47> O    1.55069767   0.11146605  -3.16035565
| 48> C    3.59032173  -1.07897336  -2.79010147
| 49> H    3.62352905  -2.16605400  -2.83695878
| 50> H    4.32858153  -0.75761651  -2.05615195
| 51> H    3.87172203  -0.68355013  -3.76147831
| 52> *
| 53>
| 54>                          ****END OF INPUT****

CARTESIAN COORDINATES (ANGSTROEM)
---------------------------------
  Pd     0.552688    0.395345   -0.492889
  O      2.124013    1.354525    0.232003
  C      1.605410    2.520576    0.287199
  O      0.383926    2.652810    0.068825
  C      2.560357    3.650719    0.565656
  H      2.067317    4.509913    1.006089
  H      3.013611    3.968960   -0.374106
  H      3.366539    3.315586    1.217942
  N     -1.292521   -0.502701   -1.124651
  C     -1.195770   -1.496872   -2.218738
  H     -0.760102   -1.035548   -3.097597
  H     -2.192622   -1.882275   -2.468012
  H     -0.567015   -2.329093   -1.913521
  C     -2.164904    0.593566   -1.582503
  H     -2.315868    1.314073   -0.781438
  H     -3.145303    0.194610   -1.874672
  H     -1.724072    1.104331   -2.435438
  C     -1.540773   -0.818369    1.408224
  C     -0.964470   -1.859731    2.135811
  C     -0.785328   -1.782694    3.514779
  C     -1.235268   -0.666134    4.200081
  C     -1.712059    0.403479    3.455497
  C     -1.814343    0.366310    2.072219
  H     -1.242913   -0.645984    5.296316
  H     -2.022153    1.266291    3.993641
  H     -0.674037   -2.777889    1.631867
  H     -0.303734   -2.592572    4.067311
  H     -2.144674    1.312582    1.558657
  C     -1.954597   -1.180211    0.028822
  H     -3.031075   -1.034103   -0.053330
  H     -1.789927   -2.252685   -0.071462
  O      1.810904   -0.968863   -1.222932
  C      2.200256   -0.583598   -2.409690
  O      1.550698    0.111466   -3.160356
  C      3.590322   -1.078973   -2.790101
  H      3.623529   -2.166054   -2.836959
  H      4.328582   -0.757617   -2.056152
  H      3.871722   -0.683550   -3.761478

 Total Charge           Charge          ....    0
 Multiplicity           Mult            ....    1
 Number of Electrons    NEL             ....  154
 Basis Dimension        Dim             ....  339

ORBITAL ENERGIES
----------------

  NO   OCC          E(Eh)            E(eV)
   0   2.0000     -19.497517      -530.5544
   1   2.0000     -19.483937      -530.1849
   2   2.0000     -19.474688      -529.9332
   3   2.0000     -19.436220      -528.8864
   4   2.0000     -14.720270      -400.5589
   5   2.0000     -10.564878      -287.4850
   6   2.0000     -10.533228      -286.6237
   7   2.0000     -10.498592      -285.6812
   8   2.0000     -10.485975      -285.3379
   9   2.0000     -10.476712      -285.0858
  10   2.0000     -10.473933      -285.0102
  11   2.0000     -10.467172      -284.8262
  12   2.0000     -10.460805      -284.6530
  13   2.0000     -10.459528      -284.6182
  14   2.0000     -10.458862      -284.6001
  15   2.0000     -10.456240      -284.5287
  16   2.0000     -10.436340      -283.9873
  17   2.0000     -10.413221      -283.3581
  18   2.0000      -3.658486       -99.5525
  19   2.0000      -2.308873       -62.8276
  20   2.0000      -2.301334       -62.6225
  21   2.0000      -2.267682       -61.7068
  22   2.0000      -1.192854       -32.4592
  23   2.0000      -1.150829       -31.3156
  24   2.0000      -1.079878       -29.3850
  25   2.0000      -1.075515       -29.2662
  26   2.0000      -1.053634       -28.6708
  27   2.0000      -0.975080       -26.5333
  28   2.0000      -0.886074       -24.1113
  29   2.0000      -0.848968       -23.1016
  30   2.0000      -0.825122       -22.4527
  31   2.0000      -0.821162       -22.3449
  32   2.0000      -0.800032       -21.7700
  33   2.0000      -0.793912       -21.6034
  34   2.0000      -0.721558       -19.6346
  35   2.0000      -0.696872       -18.9628
  36   2.0000      -0.673764       -18.3341
  37   2.0000      -0.612145       -16.6573
  38   2.0000      -0.601726       -16.3738
  39   2.0000      -0.584101       -15.8942
  40   2.0000      -0.573523       -15.6063
  41   2.0000      -0.570081       -15.5127
  42   2.0000      -0.560194       -15.2437
  43   2.0000      -0.540495       -14.7076
  44   2.0000      -0.535895       -14.5824
  45   2.0000      -0.527816       -14.3626
  46   2.0000      -0.524391       -14.2694
  47   2.0000      -0.520822       -14.1723
  48   2.0000      -0.508310       -13.8318
  49   2.0000      -0.496260       -13.5039
  50   2.0000      -0.493302       -13.4234
  51   2.0000      -0.491593       -13.3769
  52   2.0000      -0.488278       -13.2867
  53   2.0000      -0.480217       -13.0674
  54   2.0000      -0.460079       -12.5194
  55   2.0000      -0.454154       -12.3582
  56   2.0000      -0.448675       -12.2091
  57   2.0000      -0.442917       -12.0524
  58   2.0000      -0.440302       -11.9812
  59   2.0000      -0.432206       -11.7609
  60   2.0000      -0.430224       -11.7070
  61   2.0000      -0.418395       -11.3851
  62   2.0000      -0.413624       -11.2553
  63   2.0000      -0.407989       -11.1019
  64   2.0000      -0.399859       -10.8807
  65   2.0000      -0.377965       -10.2849
  66   2.0000      -0.371637       -10.1128
  67   2.0000      -0.359073        -9.7709
  68   2.0000      -0.350779        -9.5452
  69   2.0000      -0.345075        -9.3900
  70   2.0000      -0.318836        -8.6760
  71   2.0000      -0.316823        -8.6212
  72   2.0000      -0.306790        -8.3482
  73   2.0000      -0.302781        -8.2391
  74   2.0000      -0.295982        -8.0541
  75   2.0000      -0.295236        -8.0338
  76   2.0000      -0.273894        -7.4530
  77   0.0000      -0.057512        -1.5650
  78   0.0000      -0.004981        -0.1355
  79   0.0000       0.007322         0.1992
  80   0.0000       0.053944         1.4679
  81   0.0000       0.068915         1.8753

MULLIKEN ATOMIC CHARGES
-----------------------
   0 Pd:    0.542539
   1 O :   -0.493897
   2 C :    0.643399
   3 O :   -0.490226
   4 C :   -0.765100
   5 H :    0.246694
   6 H :    0.260304
   7 H :    0.256216
   8 N :   -0.482277
   9 C :   -0.539482
  10 H :    0.295264
  11 H :    0.218991
  12 H :    0.271914
  13 C :   -0.542414
  14 H :    0.267785
  15 H :    0.227888
  16 H :    0.291273
  17 C :    0.114575
  18 C :   -0.254850
  19 C :   -0.218855
  20 C :   -0.219743
  21 C :   -0.210502
  22 C :   -0.271296
  23 H :    0.227140
  24 H :    0.229136
  25 H :    0.222318
  26 H :    0.227023
  27 H :    0.231947
  28 C :   -0.341746
  29 H :    0.247763
  30 H :    0.256098
  31 O :   -0.543541
  32 C :    0.569777
  33 O :   -0.451032
  34 C :   -0.741876
  35 H :    0.232284
  36 H :    0.247907
  37 H :    0.238600
Sum of atomic charges:   -0.0000000

LOEWDIN ATOMIC CHARGES
----------------------
   0 Pd:   -0.254239
   1 O :   -0.141824
   2 C :    0.179769
   3 O :   -0.209558
   4 C :   -0.379070
   5 H :    0.147643
   6 H :    0.163249
   7 H :    0.156135
   8 N :   -0.060461
   9 C :   -0.237058
  10 H :    0.163069
  11 H :    0.118934
  12 H :    0.151035
  13 C :   -0.232909
  14 H :    0.149267
  15 H :    0.123770
  16 H :    0.161014
  17 C :   -0.055345
  18 C :   -0.112618
  19 C :   -0.124403
  20 C :   -0.128448
  21 C :   -0.125133
  22 C :   -0.109726
  23 H :    0.140573
  24 H :    0.139327
  25 H :    0.142997
  26 H :    0.140360
  27 H :    0.152531
  28 C :   -0.104502
  29 H :    0.141703
  30 H :    0.148297
  31 O :   -0.190873
  32 C :    0.136179
  33 O :   -0.244104
  34 C :   -0.382089
  35 H :    0.144375
  36 H :    0.151281
  37 H :    0.140852

  Mayer bond orders larger than 0.100000
B(  0-Pd,  1-O ) :   0.6244 B(  0-Pd,  3-O ) :   0.3686 B(  0-Pd,  8-N ) :   0.4075
B(  0-Pd, 31-O ) :   0.6680 B(  0-Pd, 33-O ) :   0.1174 B(  1-O ,  2-C ) :   1.3386
B(  1-O ,  3-O ) :   0.1011 B(  2-C ,  3-O ) :   1.6242 B(  2-C ,  4-C ) :   0.9513
B(  4-C ,  5-H ) :   0.9124 B(  4-C ,  6-H ) :   0.9028 B(  4-C ,  7-H ) :   0.9079
B(  8-N ,  9-C ) :   0.9171 B(  8-N , 13-C ) :   0.9217 B(  8-N , 28-C ) :   0.8847
B(  9-C , 10-H ) :   0.8828 B(  9-C , 11-H ) :   0.9033 B(  9-C , 12-H ) :   0.9014
B( 13-C , 14-H ) :   0.8974 B( 13-C , 15-H ) :   0.9025 B( 13-C , 16-H ) :   0.8938
B( 17-C , 18-C ) :   1.4041 B( 17-C , 22-C ) :   1.3716 B( 17-C , 28-C ) :   0.9392
B( 18-C , 19-C ) :   1.4350 B( 18-C , 25-H ) :   0.9159 B( 19-C , 20-C ) :   1.4239
B( 19-C , 26-H ) :   0.9161 B( 20-C , 21-C ) :   1.4219 B( 20-C , 23-H ) :   0.9162
B( 21-C , 22-C ) :   1.4414 B( 21-C , 24-H ) :   0.9150 B( 22-C , 27-H ) :   0.9161
B( 28-C , 29-H ) :   0.8962 B( 28-C , 30-H ) :   0.9156 B( 31-O , 32-C ) :   1.2396
B( 32-C , 33-O ) :   1.8689 B( 32-C , 34-C ) :   0.9310 B( 34-C , 35-H ) :   0.9156
B( 34-C , 36-H ) :   0.9107 B( 34-C , 37-H ) :   0.9196

Dispersion correction           -0.026058919
FINAL SINGLE POINT ENERGY      -988.535354199438
Dispersion correction            ... done

DIPOLE MOMENT
-------------
                                X             Y             Z
Electronic contribution:     24.13243      18.54808     -24.71223
Nuclear contribution   :    -25.76236     -19.08036      25.53447
                        -----------------------------------------
Total Dipole Moment    :     -1.62993      -0.53228       0.82223
                        -----------------------------------------
Magnitude (a.u.)       :      1.90159
Magnitude (Debye)      :      4.83346

Rotational constants in cm-1:     0.014188     0.008459     0.006980
Rotational constants in MHz :   425.359601   253.583294   209.261009

                             ****ORCA TERMINATED NORMALLY****
TOTAL RUN TIME: 0 days 0 hours 12 minutes 14 seconds 451 msec
