                         Program Version 5.0.3 -  RELEASE  -
|  1> ! EnGrad PBEh-3c
|  2> %output
|  3> xyzfile=True
|  4> end
|  5> %scf
|  6> maxiter 250
|  7> end
|  8> %output
|  9> Print[P_Hirshfeld] = 1
| 10> end
| 11> % maxcore
| 12> 4000
| 13> *xyz 0 1
| 14> Pd   0.56471736   0.40658447  -0.50415110
| 15> O    2.13853257   1.35975160   0.20374633
| 16> C    1.60552577   2.51589234   0.28710996
| 17> O    0.37448165   2.63164899   0.08971180
| 18> C    2.54568254   3.65585773   0.56505004
| 19> H    2.03649340   4.50955004   1.00535549
| 20> H    2.99797440   3.98206642  -0.37772688
| 21> H    3.36295897   3.33381608   1.21875076
| 22> N   -1.28677367  -0.48793745  -1.12425706
| 23> C   -1.19023242  -1.46055567  -2.22545753
| 24> H   -0.76077208  -0.99455254  -3.10222583
| 25> H   -2.18910089  -1.84345738  -2.46475966
| 26> H   -0.56003074  -2.29279261  -1.92987698
| 27> C   -2.15619420   0.61177404  -1.56630224
| 28> H   -2.30698033   1.33392247  -0.76976028
| 29> H   -3.13164382   0.21807777  -1.86657789
| 30> H   -1.72376291   1.11854389  -2.42359231
| 31> C   -1.52163520  -0.82983135   1.39628874
| 32> C   -0.93090302  -1.85342182   2.13645785
| 33> C   -0.74960212  -1.80679296   3.51818932
| 34> C   -1.21274553  -0.68775948   4.17511128
| 35> C   -1.72917363   0.36589060   3.43821266
| 36> C   -1.84894188   0.35898174   2.05984275
| 37> H   -1.23099716  -0.60488597   5.26306626
| 38> H   -2.06585531   1.22204572   3.98592466
| 39> H   -0.61968610  -2.77705927   1.65778827
| 40> H   -0.28663143  -2.60690159   4.10821336
| 41> H   -2.24040931   1.35169079   1.62235230
| 42> C   -1.93834278  -1.19496186   0.00263406
| 43> H   -3.01405510  -1.04680498  -0.06153508
| 44> H   -1.76016129  -2.26282114  -0.11632498
| 45> O    1.78584356  -0.98653254  -1.22987539
| 46> C    2.19890180  -0.59869489  -2.40317452
| 47> O    1.56780767   0.12511624  -3.16114872
| 48> C    3.57756024  -1.11460304  -2.77687337
| 49> H    3.60875653  -2.20685571  -2.81201149
| 50> H    4.32056888  -0.78776660  -2.04243503
| 51> H    3.85195678  -0.72355318  -3.75500316
| 52> *
| 53>
| 54>                          ****END OF INPUT****

CARTESIAN COORDINATES (ANGSTROEM)
---------------------------------
  Pd     0.564717    0.406584   -0.504151
  O      2.138533    1.359752    0.203746
  C      1.605526    2.515892    0.287110
  O      0.374482    2.631649    0.089712
  C      2.545683    3.655858    0.565050
  H      2.036493    4.509550    1.005355
  H      2.997974    3.982066   -0.377727
  H      3.362959    3.333816    1.218751
  N     -1.286774   -0.487937   -1.124257
  C     -1.190232   -1.460556   -2.225458
  H     -0.760772   -0.994553   -3.102226
  H     -2.189101   -1.843457   -2.464760
  H     -0.560031   -2.292793   -1.929877
  C     -2.156194    0.611774   -1.566302
  H     -2.306980    1.333922   -0.769760
  H     -3.131644    0.218078   -1.866578
  H     -1.723763    1.118544   -2.423592
  C     -1.521635   -0.829831    1.396289
  C     -0.930903   -1.853422    2.136458
  C     -0.749602   -1.806793    3.518189
  C     -1.212746   -0.687759    4.175111
  C     -1.729174    0.365891    3.438213
  C     -1.848942    0.358982    2.059843
  H     -1.230997   -0.604886    5.263066
  H     -2.065855    1.222046    3.985925
  H     -0.619686   -2.777059    1.657788
  H     -0.286631   -2.606902    4.108213
  H     -2.240409    1.351691    1.622352
  C     -1.938343   -1.194962    0.002634
  H     -3.014055   -1.046805   -0.061535
  H     -1.760161   -2.262821   -0.116325
  O      1.785844   -0.986533   -1.229875
  C      2.198902   -0.598695   -2.403175
  O      1.567808    0.125116   -3.161149
  C      3.577560   -1.114603   -2.776873
  H      3.608757   -2.206856   -2.812011
  H      4.320569   -0.787767   -2.042435
  H      3.851957   -0.723553   -3.755003

 Total Charge           Charge          ....    0
 Multiplicity           Mult            ....    1
 Number of Electrons    NEL             ....  154
 Basis Dimension        Dim             ....  339

ORBITAL ENERGIES
----------------

  NO   OCC          E(Eh)            E(eV)
   0   2.0000     -19.499237      -530.6012
   1   2.0000     -19.486381      -530.2514
   2   2.0000     -19.475769      -529.9626
   3   2.0000     -19.434919      -528.8510
   4   2.0000     -14.718445      -400.5092
   5   2.0000     -10.566911      -287.5403
   6   2.0000     -10.533728      -286.6373
   7   2.0000     -10.498029      -285.6659
   8   2.0000     -10.484012      -285.2845
   9   2.0000     -10.477275      -285.1011
  10   2.0000     -10.474519      -285.0262
  11   2.0000     -10.470526      -284.9175
  12   2.0000     -10.461244      -284.6649
  13   2.0000     -10.459693      -284.6227
  14   2.0000     -10.455894      -284.5193
  15   2.0000     -10.453448      -284.4528
  16   2.0000     -10.438820      -284.0547
  17   2.0000     -10.414535      -283.3939
  18   2.0000      -3.658341       -99.5485
  19   2.0000      -2.308660       -62.8218
  20   2.0000      -2.301542       -62.6281
  21   2.0000      -2.267320       -61.6969
  22   2.0000      -1.194704       -32.5096
  23   2.0000      -1.148388       -31.2492
  24   2.0000      -1.081548       -29.4304
  25   2.0000      -1.078980       -29.3605
  26   2.0000      -1.051712       -28.6185
  27   2.0000      -0.973582       -26.4925
  28   2.0000      -0.883443       -24.0397
  29   2.0000      -0.849294       -23.1105
  30   2.0000      -0.826099       -22.4793
  31   2.0000      -0.822271       -22.3751
  32   2.0000      -0.799534       -21.7564
  33   2.0000      -0.794204       -21.6114
  34   2.0000      -0.720529       -19.6066
  35   2.0000      -0.693337       -18.8667
  36   2.0000      -0.674748       -18.3608
  37   2.0000      -0.613331       -16.6896
  38   2.0000      -0.600986       -16.3537
  39   2.0000      -0.585122       -15.9220
  40   2.0000      -0.575296       -15.6546
  41   2.0000      -0.569987       -15.5101
  42   2.0000      -0.558807       -15.2059
  43   2.0000      -0.542270       -14.7559
  44   2.0000      -0.537875       -14.6363
  45   2.0000      -0.526786       -14.3346
  46   2.0000      -0.523772       -14.2526
  47   2.0000      -0.521849       -14.2002
  48   2.0000      -0.507994       -13.8232
  49   2.0000      -0.495730       -13.4895
  50   2.0000      -0.492470       -13.4008
  51   2.0000      -0.491944       -13.3865
  52   2.0000      -0.485943       -13.2232
  53   2.0000      -0.478645       -13.0246
  54   2.0000      -0.457999       -12.4628
  55   2.0000      -0.454719       -12.3735
  56   2.0000      -0.447517       -12.1776
  57   2.0000      -0.442783       -12.0487
  58   2.0000      -0.440020       -11.9735
  59   2.0000      -0.431682       -11.7467
  60   2.0000      -0.429706       -11.6929
  61   2.0000      -0.417924       -11.3723
  62   2.0000      -0.413032       -11.2392
  63   2.0000      -0.405399       -11.0315
  64   2.0000      -0.400910       -10.9093
  65   2.0000      -0.378832       -10.3085
  66   2.0000      -0.370765       -10.0890
  67   2.0000      -0.360194        -9.8014
  68   2.0000      -0.350530        -9.5384
  69   2.0000      -0.344940        -9.3863
  70   2.0000      -0.318733        -8.6732
  71   2.0000      -0.316894        -8.6231
  72   2.0000      -0.306643        -8.3442
  73   2.0000      -0.303089        -8.2475
  74   2.0000      -0.296317        -8.0632
  75   2.0000      -0.294691        -8.0190
  76   2.0000      -0.272409        -7.4126
  77   0.0000      -0.054680        -1.4879
  78   0.0000      -0.004494        -0.1223
  79   0.0000       0.008939         0.2432
  80   0.0000       0.051776         1.4089
  81   0.0000       0.070953         1.9307

MULLIKEN ATOMIC CHARGES
-----------------------
   0 Pd:    0.545055
   1 O :   -0.493963
   2 C :    0.650488
   3 O :   -0.492708
   4 C :   -0.765849
   5 H :    0.246784
   6 H :    0.260798
   7 H :    0.256196
   8 N :   -0.478648
   9 C :   -0.542719
  10 H :    0.295438
  11 H :    0.218685
  12 H :    0.272743
  13 C :   -0.544529
  14 H :    0.270429
  15 H :    0.227625
  16 H :    0.290690
  17 C :    0.100183
  18 C :   -0.256416
  19 C :   -0.216300
  20 C :   -0.219508
  21 C :   -0.201729
  22 C :   -0.266716
  23 H :    0.225616
  24 H :    0.227780
  25 H :    0.220904
  26 H :    0.228788
  27 H :    0.229880
  28 C :   -0.341740
  29 H :    0.247407
  30 H :    0.257100
  31 O :   -0.542823
  32 C :    0.575198
  33 O :   -0.461251
  34 C :   -0.740715
  35 H :    0.231579
  36 H :    0.246929
  37 H :    0.239318
Sum of atomic charges:   -0.0000000

LOEWDIN ATOMIC CHARGES
----------------------
   0 Pd:   -0.260006
   1 O :   -0.139289
   2 C :    0.183366
   3 O :   -0.208054
   4 C :   -0.378305
   5 H :    0.148056
   6 H :    0.163998
   7 H :    0.156811
   8 N :   -0.058322
   9 C :   -0.237490
  10 H :    0.162494
  11 H :    0.118459
  12 H :    0.151049
  13 C :   -0.233671
  14 H :    0.150509
  15 H :    0.123264
  16 H :    0.160593
  17 C :   -0.051735
  18 C :   -0.111473
  19 C :   -0.125722
  20 C :   -0.129505
  21 C :   -0.129277
  22 C :   -0.110580
  23 H :    0.138524
  24 H :    0.137349
  25 H :    0.142814
  26 H :    0.142627
  27 H :    0.154752
  28 C :   -0.105713
  29 H :    0.141758
  30 H :    0.148789
  31 O :   -0.188007
  32 C :    0.140264
  33 O :   -0.255730
  34 C :   -0.380628
  35 H :    0.144202
  36 H :    0.151910
  37 H :    0.141921

  Mayer bond orders larger than 0.100000
B(  0-Pd,  1-O ) :   0.6211 B(  0-Pd,  3-O ) :   0.3827 B(  0-Pd,  8-N ) :   0.4055
B(  0-Pd, 31-O ) :   0.6617 B(  0-Pd, 33-O ) :   0.1205 B(  1-O ,  2-C ) :   1.3434
B(  1-O ,  3-O ) :   0.1014 B(  2-C ,  3-O ) :   1.6085 B(  2-C ,  4-C ) :   0.9514
B(  4-C ,  5-H ) :   0.9122 B(  4-C ,  6-H ) :   0.9022 B(  4-C ,  7-H ) :   0.9078
B(  8-N ,  9-C ) :   0.9191 B(  8-N , 13-C ) :   0.9234 B(  8-N , 28-C ) :   0.8895
B(  9-C , 10-H ) :   0.8829 B(  9-C , 11-H ) :   0.9028 B(  9-C , 12-H ) :   0.9007
B( 13-C , 14-H ) :   0.8971 B( 13-C , 15-H ) :   0.9025 B( 13-C , 16-H ) :   0.8941
B( 17-C , 18-C ) :   1.4177 B( 17-C , 22-C ) :   1.3542 B( 17-C , 28-C ) :   0.9394
B( 18-C , 19-C ) :   1.4200 B( 18-C , 25-H ) :   0.9175 B( 19-C , 20-C ) :   1.4326
B( 19-C , 26-H ) :   0.9160 B( 20-C , 21-C ) :   1.4201 B( 20-C , 23-H ) :   0.9156
B( 21-C , 22-C ) :   1.4524 B( 21-C , 24-H ) :   0.9139 B( 22-C , 27-H ) :   0.9166
B( 28-C , 29-H ) :   0.8976 B( 28-C , 30-H ) :   0.9150 B( 31-O , 32-C ) :   1.2471
B( 32-C , 33-O ) :   1.8537 B( 32-C , 34-C ) :   0.9318 B( 34-C , 35-H ) :   0.9155
B( 34-C , 36-H ) :   0.9105 B( 34-C , 37-H ) :   0.9195

Dispersion correction           -0.026047414
FINAL SINGLE POINT ENERGY      -988.533359013317
Dispersion correction            ... done

DIPOLE MOMENT
-------------
                                X             Y             Z
Electronic contribution:     24.75888      19.26773     -25.23035
Nuclear contribution   :    -26.35941     -19.75304      26.09006
                        -----------------------------------------
Total Dipole Moment    :     -1.60052      -0.48531       0.85971
                        -----------------------------------------
Magnitude (a.u.)       :      1.88050
Magnitude (Debye)      :      4.77986

Rotational constants in cm-1:     0.014197     0.008466     0.007016
Rotational constants in MHz :   425.626496   253.806125   210.335435

                             ****ORCA TERMINATED NORMALLY****
TOTAL RUN TIME: 0 days 0 hours 12 minutes 39 seconds 434 msec
