                         Program Version 5.0.3 -  RELEASE  -
|  1> ! EnGrad PBEh-3c
|  2> %output
|  3> xyzfile=True
|  4> end
|  5> %scf
|  6> maxiter 250
|  7> end
|  8> %output
|  9> Print[P_Hirshfeld] = 1
| 10> end
| 11> % maxcore
| 12> 4000
| 13> *xyz 0 1
| 14> Pd   0.56657689   0.41010645  -0.50509737
| 15> O    2.14102795   1.35766364   0.19060051
| 16> C    1.60590491   2.51085763   0.28812202
| 17> O    0.37454986   2.62022648   0.09837129
| 18> C    2.53991171   3.65689612   0.56543924
| 19> H    2.02749939   4.51019728   1.00599549
| 20> H    2.99416222   3.98248356  -0.37829776
| 21> H    3.35917973   3.33622191   1.21770097
| 22> N   -1.28564167  -0.48485164  -1.12526482
| 23> C   -1.18637508  -1.45238500  -2.22567645
| 24> H   -0.75813863  -0.98778705  -3.10273903
| 25> H   -2.18451407  -1.83596071  -2.46149492
| 26> H   -0.55684227  -2.28469058  -1.93005346
| 27> C   -2.15225808   0.61507991  -1.56481459
| 28> H   -2.30470957   1.33942212  -0.77090846
| 29> H   -3.12632723   0.22424374  -1.86649421
| 30> H   -1.72071375   1.12004522  -2.42203981
| 31> C   -1.50997108  -0.83335616   1.39759048
| 32> C   -0.92270243  -1.85951443   2.14579509
| 33> C   -0.74458440  -1.81125497   3.52231709
| 34> C   -1.20918961  -0.69098654   4.16891006
| 35> C   -1.72944535   0.36851216   3.44127715
| 36> C   -1.85784867   0.35857058   2.06472944
| 37> H   -1.22251725  -0.59212836   5.24291099
| 38> H   -2.07097493   1.23043245   3.98610795
| 39> H   -0.61579725  -2.77116057   1.66516918
| 40> H   -0.29030258  -2.61483469   4.11262699
| 41> H   -2.25492783   1.33324776   1.63439538
| 42> C   -1.93505357  -1.19611768  -0.00300365
| 43> H   -3.01595789  -1.04804711  -0.06734838
| 44> H   -1.75619172  -2.26357740  -0.12848016
| 45> O    1.77550183  -0.99104256  -1.23370519
| 46> C    2.19664639  -0.60073414  -2.40365704
| 47> O    1.57276508   0.12710259  -3.15952877
| 48> C    3.57379007  -1.11985155  -2.77578482
| 49> H    3.60666896  -2.21342926  -2.80674728
| 50> H    4.31574373  -0.79237101  -2.03885644
| 51> H    3.84751518  -0.72784696  -3.75496210
| 52> *
| 53>
| 54>                          ****END OF INPUT****

CARTESIAN COORDINATES (ANGSTROEM)
---------------------------------
  Pd     0.566577    0.410106   -0.505097
  O      2.141028    1.357664    0.190601
  C      1.605905    2.510858    0.288122
  O      0.374550    2.620226    0.098371
  C      2.539912    3.656896    0.565439
  H      2.027499    4.510197    1.005995
  H      2.994162    3.982484   -0.378298
  H      3.359180    3.336222    1.217701
  N     -1.285642   -0.484852   -1.125265
  C     -1.186375   -1.452385   -2.225676
  H     -0.758139   -0.987787   -3.102739
  H     -2.184514   -1.835961   -2.461495
  H     -0.556842   -2.284691   -1.930053
  C     -2.152258    0.615080   -1.564815
  H     -2.304710    1.339422   -0.770908
  H     -3.126327    0.224244   -1.866494
  H     -1.720714    1.120045   -2.422040
  C     -1.509971   -0.833356    1.397590
  C     -0.922702   -1.859514    2.145795
  C     -0.744584   -1.811255    3.522317
  C     -1.209190   -0.690987    4.168910
  C     -1.729445    0.368512    3.441277
  C     -1.857849    0.358571    2.064729
  H     -1.222517   -0.592128    5.242911
  H     -2.070975    1.230432    3.986108
  H     -0.615797   -2.771161    1.665169
  H     -0.290303   -2.614835    4.112627
  H     -2.254928    1.333248    1.634395
  C     -1.935054   -1.196118   -0.003004
  H     -3.015958   -1.048047   -0.067348
  H     -1.756192   -2.263577   -0.128480
  O      1.775502   -0.991043   -1.233705
  C      2.196646   -0.600734   -2.403657
  O      1.572765    0.127103   -3.159529
  C      3.573790   -1.119852   -2.775785
  H      3.606669   -2.213429   -2.806747
  H      4.315744   -0.792371   -2.038856
  H      3.847515   -0.727847   -3.754962

 Total Charge           Charge          ....    0
 Multiplicity           Mult            ....    1
 Number of Electrons    NEL             ....  154
 Basis Dimension        Dim             ....  339

ORBITAL ENERGIES
----------------

  NO   OCC          E(Eh)            E(eV)
   0   2.0000     -19.499713      -530.6142
   1   2.0000     -19.487245      -530.2749
   2   2.0000     -19.474826      -529.9370
   3   2.0000     -19.434676      -528.8444
   4   2.0000     -14.717545      -400.4847
   5   2.0000     -10.567444      -287.5548
   6   2.0000     -10.533081      -286.6197
   7   2.0000     -10.498760      -285.6858
   8   2.0000     -10.483206      -285.2625
   9   2.0000     -10.478409      -285.1320
  10   2.0000     -10.473591      -285.0009
  11   2.0000     -10.469235      -284.8824
  12   2.0000     -10.460068      -284.6329
  13   2.0000     -10.458868      -284.6003
  14   2.0000     -10.454222      -284.4738
  15   2.0000     -10.453385      -284.4511
  16   2.0000     -10.439770      -284.0806
  17   2.0000     -10.414581      -283.3952
  18   2.0000      -3.658002       -99.5393
  19   2.0000      -2.308403       -62.8148
  20   2.0000      -2.301215       -62.6192
  21   2.0000      -2.266959       -61.6871
  22   2.0000      -1.196692       -32.5636
  23   2.0000      -1.148839       -31.2615
  24   2.0000      -1.082709       -29.4620
  25   2.0000      -1.079954       -29.3870
  26   2.0000      -1.051847       -28.6222
  27   2.0000      -0.972461       -26.4620
  28   2.0000      -0.881621       -23.9901
  29   2.0000      -0.850537       -23.1443
  30   2.0000      -0.826502       -22.4903
  31   2.0000      -0.822706       -22.3870
  32   2.0000      -0.799056       -21.7434
  33   2.0000      -0.793849       -21.6017
  34   2.0000      -0.720070       -19.5941
  35   2.0000      -0.692731       -18.8502
  36   2.0000      -0.675575       -18.3833
  37   2.0000      -0.614012       -16.7081
  38   2.0000      -0.601569       -16.3695
  39   2.0000      -0.584681       -15.9100
  40   2.0000      -0.575297       -15.6546
  41   2.0000      -0.569668       -15.5015
  42   2.0000      -0.559690       -15.2300
  43   2.0000      -0.543589       -14.7918
  44   2.0000      -0.538939       -14.6653
  45   2.0000      -0.526413       -14.3244
  46   2.0000      -0.524625       -14.2758
  47   2.0000      -0.522734       -14.2243
  48   2.0000      -0.508182       -13.8283
  49   2.0000      -0.495568       -13.4851
  50   2.0000      -0.493777       -13.4364
  51   2.0000      -0.491481       -13.3739
  52   2.0000      -0.485814       -13.2197
  53   2.0000      -0.478636       -13.0244
  54   2.0000      -0.457491       -12.4490
  55   2.0000      -0.455369       -12.3912
  56   2.0000      -0.447021       -12.1641
  57   2.0000      -0.443083       -12.0569
  58   2.0000      -0.440071       -11.9749
  59   2.0000      -0.431461       -11.7407
  60   2.0000      -0.429748       -11.6940
  61   2.0000      -0.417514       -11.3611
  62   2.0000      -0.413147       -11.2423
  63   2.0000      -0.406085       -11.0501
  64   2.0000      -0.401040       -10.9128
  65   2.0000      -0.379029       -10.3139
  66   2.0000      -0.370984       -10.0950
  67   2.0000      -0.360700        -9.8152
  68   2.0000      -0.350651        -9.5417
  69   2.0000      -0.344768        -9.3816
  70   2.0000      -0.318358        -8.6629
  71   2.0000      -0.316673        -8.6171
  72   2.0000      -0.306561        -8.3419
  73   2.0000      -0.303503        -8.2587
  74   2.0000      -0.296272        -8.0620
  75   2.0000      -0.293800        -7.9947
  76   2.0000      -0.271927        -7.3995
  77   0.0000      -0.052986        -1.4418
  78   0.0000      -0.004656        -0.1267
  79   0.0000       0.009376         0.2551
  80   0.0000       0.051293         1.3957
  81   0.0000       0.071699         1.9510

MULLIKEN ATOMIC CHARGES
-----------------------
   0 Pd:    0.545483
   1 O :   -0.494592
   2 C :    0.652200
   3 O :   -0.491880
   4 C :   -0.766280
   5 H :    0.247022
   6 H :    0.260949
   7 H :    0.256239
   8 N :   -0.476558
   9 C :   -0.543677
  10 H :    0.295224
  11 H :    0.218510
  12 H :    0.273105
  13 C :   -0.545372
  14 H :    0.270890
  15 H :    0.227536
  16 H :    0.290524
  17 C :    0.090014
  18 C :   -0.254478
  19 C :   -0.212762
  20 C :   -0.220327
  21 C :   -0.200909
  22 C :   -0.263834
  23 H :    0.225627
  24 H :    0.227274
  25 H :    0.221720
  26 H :    0.228148
  27 H :    0.230655
  28 C :   -0.340718
  29 H :    0.246207
  30 H :    0.256498
  31 O :   -0.544684
  32 C :    0.575344
  33 O :   -0.459084
  34 C :   -0.740765
  35 H :    0.231258
  36 H :    0.246547
  37 H :    0.238943
Sum of atomic charges:    0.0000000

LOEWDIN ATOMIC CHARGES
----------------------
   0 Pd:   -0.263069
   1 O :   -0.137802
   2 C :    0.183256
   3 O :   -0.204620
   4 C :   -0.378181
   5 H :    0.148337
   6 H :    0.164214
   7 H :    0.156926
   8 N :   -0.058164
   9 C :   -0.237754
  10 H :    0.162230
  11 H :    0.118134
  12 H :    0.151116
  13 C :   -0.234098
  14 H :    0.150666
  15 H :    0.122962
  16 H :    0.160372
  17 C :   -0.049337
  18 C :   -0.111282
  19 C :   -0.126088
  20 C :   -0.128806
  21 C :   -0.129660
  22 C :   -0.111061
  23 H :    0.137858
  24 H :    0.137360
  25 H :    0.142266
  26 H :    0.143036
  27 H :    0.153913
  28 C :   -0.105813
  29 H :    0.141329
  30 H :    0.148476
  31 O :   -0.189504
  32 C :    0.138499
  33 O :   -0.253133
  34 C :   -0.380558
  35 H :    0.144032
  36 H :    0.151949
  37 H :    0.142000

  Mayer bond orders larger than 0.100000
B(  0-Pd,  1-O ) :   0.6210 B(  0-Pd,  3-O ) :   0.3877 B(  0-Pd,  8-N ) :   0.4040
B(  0-Pd, 31-O ) :   0.6609 B(  0-Pd, 33-O ) :   0.1205 B(  1-O ,  2-C ) :   1.3433
B(  1-O ,  3-O ) :   0.1013 B(  2-C ,  3-O ) :   1.6050 B(  2-C ,  4-C ) :   0.9515
B(  4-C ,  5-H ) :   0.9122 B(  4-C ,  6-H ) :   0.9021 B(  4-C ,  7-H ) :   0.9075
B(  8-N ,  9-C ) :   0.9200 B(  8-N , 13-C ) :   0.9243 B(  8-N , 28-C ) :   0.8897
B(  9-C , 10-H ) :   0.8831 B(  9-C , 11-H ) :   0.9027 B(  9-C , 12-H ) :   0.9004
B( 13-C , 14-H ) :   0.8972 B( 13-C , 15-H ) :   0.9025 B( 13-C , 16-H ) :   0.8942
B( 17-C , 18-C ) :   1.4222 B( 17-C , 22-C ) :   1.3536 B( 17-C , 28-C ) :   0.9397
B( 18-C , 19-C ) :   1.4182 B( 18-C , 25-H ) :   0.9168 B( 19-C , 20-C ) :   1.4339
B( 19-C , 26-H ) :   0.9167 B( 20-C , 21-C ) :   1.4191 B( 20-C , 23-H ) :   0.9155
B( 21-C , 22-C ) :   1.4572 B( 21-C , 24-H ) :   0.9141 B( 22-C , 27-H ) :   0.9159
B( 28-C , 29-H ) :   0.8981 B( 28-C , 30-H ) :   0.9149 B( 31-O , 32-C ) :   1.2457
B( 32-C , 33-O ) :   1.8566 B( 32-C , 34-C ) :   0.9314 B( 34-C , 35-H ) :   0.9156
B( 34-C , 36-H ) :   0.9105 B( 34-C , 37-H ) :   0.9198

Dispersion correction           -0.026045374
FINAL SINGLE POINT ENERGY      -988.535393088692
Dispersion correction            ... done

DIPOLE MOMENT
-------------
                                X             Y             Z
Electronic contribution:     24.85699      19.51303     -25.27878
Nuclear contribution   :    -26.44648     -19.96761      26.14243
                        -----------------------------------------
Total Dipole Moment    :     -1.58949      -0.45458       0.86366
                        -----------------------------------------
Magnitude (a.u.)       :      1.86522
Magnitude (Debye)      :      4.74101

Rotational constants in cm-1:     0.014215     0.008466     0.007022
Rotational constants in MHz :   426.157640   253.807634   210.513375

                             ****ORCA TERMINATED NORMALLY****
TOTAL RUN TIME: 0 days 0 hours 12 minutes 15 seconds 507 msec
