                         Program Version 5.0.3 -  RELEASE  -
|  1> ! EnGrad PBEh-3c
|  2> %output
|  3> xyzfile=True
|  4> end
|  5> %scf
|  6> maxiter 250
|  7> end
|  8> %output
|  9> Print[P_Hirshfeld] = 1
| 10> end
| 11> % maxcore
| 12> 4000
| 13> *xyz 0 1
| 14> Pd   0.56527969   0.41282999  -0.50696251
| 15> O    2.14621527   1.35492104   0.16778135
| 16> C    1.60843097   2.50256808   0.28979218
| 17> O    0.37426175   2.59865615   0.11525692
| 18> C    2.53107225   3.65564258   0.56565506
| 19> H    2.01567580   4.50734105   1.00571259
| 20> H    2.98774843   3.97892726  -0.37719764
| 21> H    3.35036865   3.33697389   1.21531706
| 22> N   -1.28034260  -0.47817273  -1.12615375
| 23> C   -1.17897710  -1.44504614  -2.22473168
| 24> H   -0.75153171  -0.98143913  -3.10345301
| 25> H   -2.17773740  -1.82955395  -2.45555919
| 26> H   -0.54964388  -2.27625910  -1.92437093
| 27> C   -2.14731428   0.62076214  -1.56692573
| 28> H   -2.30181580   1.34864639  -0.77457178
| 29> H   -3.12095406   0.23025819  -1.86997729
| 30> H   -1.71252642   1.12224570  -2.42383668
| 31> C   -1.49721834  -0.83407444   1.40664323
| 32> C   -0.91510295  -1.87037210   2.16133416
| 33> C   -0.74181991  -1.81488319   3.53366510
| 34> C   -1.20676511  -0.68601894   4.16358694
| 35> C   -1.72085077   0.37863164   3.44306942
| 36> C   -1.86929528   0.36316151   2.06782400
| 37> H   -1.20898624  -0.57357757   5.22342742
| 38> H   -2.06388257   1.24871659   3.98408661
| 39> H   -0.61607444  -2.77251838   1.67046216
| 40> H   -0.30811811  -2.62384227   4.11350986
| 41> H   -2.26638898   1.28596811   1.64508617
| 42> C   -1.93014112  -1.19481318  -0.00303187
| 43> H   -3.01966080  -1.04686834  -0.07465115
| 44> H   -1.75458075  -2.26297197  -0.14320327
| 45> O    1.75868832  -0.99772666  -1.24241116
| 46> C    2.19257276  -0.60504283  -2.40577987
| 47> O    1.57892817   0.13183813  -3.15562853
| 48> C    3.56852645  -1.12280718  -2.77530532
| 49> H    3.60584721  -2.21556900  -2.80195132
| 50> H    4.30634094  -0.79432424  -2.03597046
| 51> H    3.84238561  -0.72909324  -3.75336849
| 52> *
| 53>
| 54>                          ****END OF INPUT****

CARTESIAN COORDINATES (ANGSTROEM)
---------------------------------
  Pd     0.565280    0.412830   -0.506963
  O      2.146215    1.354921    0.167781
  C      1.608431    2.502568    0.289792
  O      0.374262    2.598656    0.115257
  C      2.531072    3.655643    0.565655
  H      2.015676    4.507341    1.005713
  H      2.987748    3.978927   -0.377198
  H      3.350369    3.336974    1.215317
  N     -1.280343   -0.478173   -1.126154
  C     -1.178977   -1.445046   -2.224732
  H     -0.751532   -0.981439   -3.103453
  H     -2.177737   -1.829554   -2.455559
  H     -0.549644   -2.276259   -1.924371
  C     -2.147314    0.620762   -1.566926
  H     -2.301816    1.348646   -0.774572
  H     -3.120954    0.230258   -1.869977
  H     -1.712526    1.122246   -2.423837
  C     -1.497218   -0.834074    1.406643
  C     -0.915103   -1.870372    2.161334
  C     -0.741820   -1.814883    3.533665
  C     -1.206765   -0.686019    4.163587
  C     -1.720851    0.378632    3.443069
  C     -1.869295    0.363162    2.067824
  H     -1.208986   -0.573578    5.223427
  H     -2.063883    1.248717    3.984087
  H     -0.616074   -2.772518    1.670462
  H     -0.308118   -2.623842    4.113510
  H     -2.266389    1.285968    1.645086
  C     -1.930141   -1.194813   -0.003032
  H     -3.019661   -1.046868   -0.074651
  H     -1.754581   -2.262972   -0.143203
  O      1.758688   -0.997727   -1.242411
  C      2.192573   -0.605043   -2.405780
  O      1.578928    0.131838   -3.155629
  C      3.568526   -1.122807   -2.775305
  H      3.605847   -2.215569   -2.801951
  H      4.306341   -0.794324   -2.035970
  H      3.842386   -0.729093   -3.753368

 Total Charge           Charge          ....    0
 Multiplicity           Mult            ....    1
 Number of Electrons    NEL             ....  154
 Basis Dimension        Dim             ....  339

ORBITAL ENERGIES
----------------

  NO   OCC          E(Eh)            E(eV)
   0   2.0000     -19.499615      -530.6115
   1   2.0000     -19.487823      -530.2906
   2   2.0000     -19.472997      -529.8872
   3   2.0000     -19.433491      -528.8122
   4   2.0000     -14.717053      -400.4714
   5   2.0000     -10.567641      -287.5601
   6   2.0000     -10.531529      -286.5775
   7   2.0000     -10.500089      -285.7220
   8   2.0000     -10.482974      -285.2562
   9   2.0000     -10.479615      -285.1648
  10   2.0000     -10.473004      -284.9849
  11   2.0000     -10.465194      -284.7724
  12   2.0000     -10.459680      -284.6224
  13   2.0000     -10.457758      -284.5701
  14   2.0000     -10.453695      -284.4595
  15   2.0000     -10.452348      -284.4228
  16   2.0000     -10.440252      -284.0937
  17   2.0000     -10.413762      -283.3729
  18   2.0000      -3.657293       -99.5200
  19   2.0000      -2.307791       -62.7982
  20   2.0000      -2.300475       -62.5991
  21   2.0000      -2.266213       -61.6668
  22   2.0000      -1.198771       -32.6202
  23   2.0000      -1.149453       -31.2782
  24   2.0000      -1.083071       -29.4719
  25   2.0000      -1.079282       -29.3687
  26   2.0000      -1.051437       -28.6111
  27   2.0000      -0.971045       -26.4235
  28   2.0000      -0.878995       -23.9187
  29   2.0000      -0.852588       -23.2001
  30   2.0000      -0.828041       -22.5321
  31   2.0000      -0.822407       -22.3788
  32   2.0000      -0.797748       -21.7078
  33   2.0000      -0.793860       -21.6020
  34   2.0000      -0.719390       -19.5756
  35   2.0000      -0.693236       -18.8639
  36   2.0000      -0.676380       -18.4052
  37   2.0000      -0.614781       -16.7290
  38   2.0000      -0.602942       -16.4069
  39   2.0000      -0.583998       -15.8914
  40   2.0000      -0.574242       -15.6259
  41   2.0000      -0.568237       -15.4625
  42   2.0000      -0.560602       -15.2547
  43   2.0000      -0.544973       -14.8295
  44   2.0000      -0.540063       -14.6959
  45   2.0000      -0.527951       -14.3663
  46   2.0000      -0.525566       -14.3014
  47   2.0000      -0.523875       -14.2554
  48   2.0000      -0.508392       -13.8341
  49   2.0000      -0.497073       -13.5260
  50   2.0000      -0.495223       -13.4757
  51   2.0000      -0.490856       -13.3569
  52   2.0000      -0.484891       -13.1946
  53   2.0000      -0.478437       -13.0189
  54   2.0000      -0.457437       -12.4475
  55   2.0000      -0.455931       -12.4065
  56   2.0000      -0.446316       -12.1449
  57   2.0000      -0.443634       -12.0719
  58   2.0000      -0.439843       -11.9687
  59   2.0000      -0.430720       -11.7205
  60   2.0000      -0.429791       -11.6952
  61   2.0000      -0.417085       -11.3495
  62   2.0000      -0.413472       -11.2512
  63   2.0000      -0.408622       -11.1192
  64   2.0000      -0.400669       -10.9028
  65   2.0000      -0.379181       -10.3180
  66   2.0000      -0.370698       -10.0872
  67   2.0000      -0.360862        -9.8195
  68   2.0000      -0.350929        -9.5493
  69   2.0000      -0.343920        -9.3585
  70   2.0000      -0.317638        -8.6434
  71   2.0000      -0.316140        -8.6026
  72   2.0000      -0.306402        -8.3376
  73   2.0000      -0.303562        -8.2603
  74   2.0000      -0.295706        -8.0466
  75   2.0000      -0.292601        -7.9621
  76   2.0000      -0.270809        -7.3691
  77   0.0000      -0.050287        -1.3684
  78   0.0000      -0.005037        -0.1371
  79   0.0000       0.009421         0.2564
  80   0.0000       0.050794         1.3822
  81   0.0000       0.072723         1.9789

MULLIKEN ATOMIC CHARGES
-----------------------
   0 Pd:    0.546190
   1 O :   -0.494924
   2 C :    0.654590
   3 O :   -0.492773
   4 C :   -0.767440
   5 H :    0.247738
   6 H :    0.261801
   7 H :    0.256865
   8 N :   -0.476568
   9 C :   -0.543856
  10 H :    0.294788
  11 H :    0.218225
  12 H :    0.273743
  13 C :   -0.544710
  14 H :    0.270820
  15 H :    0.227186
  16 H :    0.290390
  17 C :    0.074454
  18 C :   -0.251751
  19 C :   -0.208515
  20 C :   -0.221104
  21 C :   -0.204313
  22 C :   -0.251597
  23 H :    0.225331
  24 H :    0.225636
  25 H :    0.222797
  26 H :    0.228038
  27 H :    0.233239
  28 C :   -0.339323
  29 H :    0.243879
  30 H :    0.255349
  31 O :   -0.546936
  32 C :    0.574585
  33 O :   -0.457019
  34 C :   -0.741377
  35 H :    0.230965
  36 H :    0.246685
  37 H :    0.238913
Sum of atomic charges:   -0.0000000

LOEWDIN ATOMIC CHARGES
----------------------
   0 Pd:   -0.268827
   1 O :   -0.136347
   2 C :    0.183126
   3 O :   -0.201454
   4 C :   -0.377909
   5 H :    0.148813
   6 H :    0.164728
   7 H :    0.157340
   8 N :   -0.057861
   9 C :   -0.237716
  10 H :    0.162166
  11 H :    0.117830
  12 H :    0.151436
  13 C :   -0.234064
  14 H :    0.150762
  15 H :    0.122744
  16 H :    0.160333
  17 C :   -0.045793
  18 C :   -0.111012
  19 C :   -0.125959
  20 C :   -0.128219
  21 C :   -0.128053
  22 C :   -0.111983
  23 H :    0.137282
  24 H :    0.137231
  25 H :    0.141768
  26 H :    0.143097
  27 H :    0.152232
  28 C :   -0.105033
  29 H :    0.140393
  30 H :    0.147748
  31 O :   -0.191110
  32 C :    0.135102
  33 O :   -0.250358
  34 C :   -0.380478
  35 H :    0.143704
  36 H :    0.152146
  37 H :    0.142193

  Mayer bond orders larger than 0.100000
B(  0-Pd,  1-O ) :   0.6182 B(  0-Pd,  3-O ) :   0.3970 B(  0-Pd,  8-N ) :   0.4053
B(  0-Pd, 31-O ) :   0.6580 B(  0-Pd, 33-O ) :   0.1209 B(  1-O ,  2-C ) :   1.3463
B(  1-O ,  3-O ) :   0.1011 B(  2-C ,  3-O ) :   1.5962 B(  2-C ,  4-C ) :   0.9530
B(  4-C ,  5-H ) :   0.9123 B(  4-C ,  6-H ) :   0.9016 B(  4-C ,  7-H ) :   0.9069
B(  8-N ,  9-C ) :   0.9198 B(  8-N , 13-C ) :   0.9244 B(  8-N , 28-C ) :   0.8870
B(  9-C , 10-H ) :   0.8833 B(  9-C , 11-H ) :   0.9026 B(  9-C , 12-H ) :   0.8998
B( 13-C , 14-H ) :   0.8976 B( 13-C , 15-H ) :   0.9024 B( 13-C , 16-H ) :   0.8941
B( 17-C , 18-C ) :   1.4210 B( 17-C , 22-C ) :   1.3611 B( 17-C , 28-C ) :   0.9412
B( 18-C , 19-C ) :   1.4217 B( 18-C , 25-H ) :   0.9161 B( 19-C , 20-C ) :   1.4304
B( 19-C , 26-H ) :   0.9170 B( 20-C , 21-C ) :   1.4224 B( 20-C , 23-H ) :   0.9159
B( 21-C , 22-C ) :   1.4588 B( 21-C , 24-H ) :   0.9150 B( 22-C , 27-H ) :   0.9146
B( 28-C , 29-H ) :   0.8987 B( 28-C , 30-H ) :   0.9145 B( 31-O , 32-C ) :   1.2459
B( 32-C , 33-O ) :   1.8590 B( 32-C , 34-C ) :   0.9320 B( 34-C , 35-H ) :   0.9157
B( 34-C , 36-H ) :   0.9104 B( 34-C , 37-H ) :   0.9201

Dispersion correction           -0.026055750
FINAL SINGLE POINT ENERGY      -988.538204568970
Dispersion correction            ... done

DIPOLE MOMENT
-------------
                                X             Y             Z
Electronic contribution:     24.77703      19.72222     -25.38001
Nuclear contribution   :    -26.35963     -20.14138      26.25227
                        -----------------------------------------
Total Dipole Moment    :     -1.58260      -0.41916       0.87225
                        -----------------------------------------
Magnitude (a.u.)       :      1.85503
Magnitude (Debye)      :      4.71511

Rotational constants in cm-1:     0.014257     0.008467     0.007030
Rotational constants in MHz :   427.414862   253.841609   210.755256

                             ****ORCA TERMINATED NORMALLY****
TOTAL RUN TIME: 0 days 0 hours 15 minutes 27 seconds 395 msec
