                         Program Version 5.0.3 -  RELEASE  -
|  1> ! EnGrad PBEh-3c
|  2> %output
|  3> xyzfile=True
|  4> end
|  5> %scf
|  6> maxiter 250
|  7> end
|  8> %output
|  9> Print[P_Hirshfeld] = 1
| 10> end
| 11> % maxcore
| 12> 4000
| 13> *xyz 0 1
| 14> Pd   0.55763237   0.41128356  -0.50749003
| 15> O    2.15481157   1.35101807   0.14603235
| 16> C    1.61076138   2.49309183   0.29040580
| 17> O    0.37678699   2.57351914   0.13299217
| 18> C    2.52220093   3.65319708   0.56605383
| 19> H    2.00731862   4.50434435   1.00573180
| 20> H    2.98146865   3.97128624  -0.37360284
| 21> H    3.33845943   3.33480742   1.21191321
| 22> N   -1.27355835  -0.47157075  -1.12367676
| 23> C   -1.16974723  -1.44486850  -2.22337730
| 24> H   -0.74196309  -0.98173406  -3.10530141
| 25> H   -2.16964370  -1.83117282  -2.45127118
| 26> H   -0.54088366  -2.27407217  -1.91526905
| 27> C   -2.14321444   0.62514069  -1.57339647
| 28> H   -2.29898363   1.35504573  -0.78188611
| 29> H   -3.11921006   0.23271312  -1.87577138
| 30> H   -1.69979396   1.12298753  -2.42955408
| 31> C   -1.49170766  -0.83218064   1.42491392
| 32> C   -0.91683196  -1.87515799   2.17679638
| 33> C   -0.75049676  -1.80961446   3.54469671
| 34> C   -1.20944003  -0.66852673   4.16217990
| 35> C   -1.71159984   0.40583398   3.44908653
| 36> C   -1.86357291   0.35250139   2.07998463
| 37> H   -1.18878576  -0.56321629   5.21899425
| 38> H   -2.04725696   1.28845048   3.98677487
| 39> H   -0.62750260  -2.78024639   1.66278983
| 40> H   -0.33349899  -2.63187183   4.10031655
| 41> H   -2.25958004   1.20914582   1.63545330
| 42> C   -1.92969462  -1.18702810   0.01042689
| 43> H   -3.02416276  -1.04480305  -0.08355146
| 44> H   -1.75938835  -2.25654357  -0.14963046
| 45> O    1.74232155  -1.00250602  -1.25118080
| 46> C    2.18820318  -0.60943213  -2.40796855
| 47> O    1.58126661   0.13758561  -3.15389508
| 48> C    3.56496151  -1.11895466  -2.77754230
| 49> H    3.60690175  -2.20794001  -2.80078744
| 50> H    4.29456614  -0.79100456  -2.03611367
| 51> H    3.84191240  -0.72288944  -3.75281673
| 52> *
| 53>
| 54>                          ****END OF INPUT****

CARTESIAN COORDINATES (ANGSTROEM)
---------------------------------
  Pd     0.557632    0.411284   -0.507490
  O      2.154812    1.351018    0.146032
  C      1.610761    2.493092    0.290406
  O      0.376787    2.573519    0.132992
  C      2.522201    3.653197    0.566054
  H      2.007319    4.504344    1.005732
  H      2.981469    3.971286   -0.373603
  H      3.338459    3.334807    1.211913
  N     -1.273558   -0.471571   -1.123677
  C     -1.169747   -1.444868   -2.223377
  H     -0.741963   -0.981734   -3.105301
  H     -2.169644   -1.831173   -2.451271
  H     -0.540884   -2.274072   -1.915269
  C     -2.143214    0.625141   -1.573396
  H     -2.298984    1.355046   -0.781886
  H     -3.119210    0.232713   -1.875771
  H     -1.699794    1.122988   -2.429554
  C     -1.491708   -0.832181    1.424914
  C     -0.916832   -1.875158    2.176796
  C     -0.750497   -1.809614    3.544697
  C     -1.209440   -0.668527    4.162180
  C     -1.711600    0.405834    3.449087
  C     -1.863573    0.352501    2.079985
  H     -1.188786   -0.563216    5.218994
  H     -2.047257    1.288450    3.986775
  H     -0.627503   -2.780246    1.662790
  H     -0.333499   -2.631872    4.100317
  H     -2.259580    1.209146    1.635453
  C     -1.929695   -1.187028    0.010427
  H     -3.024163   -1.044803   -0.083551
  H     -1.759388   -2.256544   -0.149630
  O      1.742322   -1.002506   -1.251181
  C      2.188203   -0.609432   -2.407969
  O      1.581267    0.137586   -3.153895
  C      3.564962   -1.118955   -2.777542
  H      3.606902   -2.207940   -2.800787
  H      4.294566   -0.791005   -2.036114
  H      3.841912   -0.722889   -3.752817

 Total Charge           Charge          ....    0
 Multiplicity           Mult            ....    1
 Number of Electrons    NEL             ....  154
 Basis Dimension        Dim             ....  339

ORBITAL ENERGIES
----------------

  NO   OCC          E(Eh)            E(eV)
   0   2.0000     -19.498075      -530.5696
   1   2.0000     -19.488187      -530.3005
   2   2.0000     -19.471688      -529.8516
   3   2.0000     -19.431630      -528.7615
   4   2.0000     -14.717926      -400.4951
   5   2.0000     -10.567009      -287.5429
   6   2.0000     -10.530209      -286.5416
   7   2.0000     -10.501968      -285.7731
   8   2.0000     -10.483579      -285.2727
   9   2.0000     -10.477424      -285.1052
  10   2.0000     -10.473673      -285.0031
  11   2.0000     -10.459911      -284.6286
  12   2.0000     -10.458461      -284.5892
  13   2.0000     -10.456636      -284.5395
  14   2.0000     -10.454667      -284.4860
  15   2.0000     -10.452669      -284.4316
  16   2.0000     -10.439514      -284.0736
  17   2.0000     -10.412438      -283.3368
  18   2.0000      -3.656739       -99.5049
  19   2.0000      -2.307212       -62.7824
  20   2.0000      -2.299909       -62.5837
  21   2.0000      -2.265644       -61.6513
  22   2.0000      -1.200087       -32.6560
  23   2.0000      -1.148831       -31.2613
  24   2.0000      -1.082980       -29.4694
  25   2.0000      -1.076339       -29.2887
  26   2.0000      -1.049930       -28.5701
  27   2.0000      -0.972815       -26.4716
  28   2.0000      -0.878049       -23.8929
  29   2.0000      -0.855205       -23.2713
  30   2.0000      -0.829222       -22.5643
  31   2.0000      -0.821285       -22.3483
  32   2.0000      -0.797088       -21.6899
  33   2.0000      -0.794310       -21.6143
  34   2.0000      -0.719053       -19.5664
  35   2.0000      -0.695168       -18.9165
  36   2.0000      -0.677708       -18.4414
  37   2.0000      -0.614696       -16.7267
  38   2.0000      -0.604594       -16.4518
  39   2.0000      -0.583589       -15.8803
  40   2.0000      -0.572629       -15.5820
  41   2.0000      -0.566513       -15.4156
  42   2.0000      -0.560688       -15.2571
  43   2.0000      -0.545641       -14.8476
  44   2.0000      -0.540502       -14.7078
  45   2.0000      -0.530927       -14.4473
  46   2.0000      -0.525672       -14.3043
  47   2.0000      -0.524006       -14.2589
  48   2.0000      -0.508233       -13.8297
  49   2.0000      -0.499604       -13.5949
  50   2.0000      -0.494732       -13.4624
  51   2.0000      -0.490272       -13.3410
  52   2.0000      -0.484997       -13.1974
  53   2.0000      -0.478279       -13.0146
  54   2.0000      -0.458115       -12.4660
  55   2.0000      -0.456135       -12.4121
  56   2.0000      -0.446121       -12.1396
  57   2.0000      -0.443939       -12.0802
  58   2.0000      -0.439245       -11.9525
  59   2.0000      -0.431011       -11.7284
  60   2.0000      -0.430004       -11.7010
  61   2.0000      -0.416911       -11.3447
  62   2.0000      -0.414127       -11.2690
  63   2.0000      -0.410286       -11.1645
  64   2.0000      -0.401566       -10.9272
  65   2.0000      -0.379191       -10.3183
  66   2.0000      -0.369933       -10.0664
  67   2.0000      -0.360446        -9.8082
  68   2.0000      -0.351385        -9.5617
  69   2.0000      -0.343025        -9.3342
  70   2.0000      -0.317319        -8.6347
  71   2.0000      -0.315759        -8.5923
  72   2.0000      -0.306987        -8.3535
  73   2.0000      -0.303528        -8.2594
  74   2.0000      -0.294749        -8.0205
  75   2.0000      -0.292337        -7.9549
  76   2.0000      -0.269724        -7.3396
  77   0.0000      -0.048256        -1.3131
  78   0.0000      -0.003751        -0.1021
  79   0.0000       0.009099         0.2476
  80   0.0000       0.051353         1.3974
  81   0.0000       0.072970         1.9856

MULLIKEN ATOMIC CHARGES
-----------------------
   0 Pd:    0.545329
   1 O :   -0.495667
   2 C :    0.655662
   3 O :   -0.491892
   4 C :   -0.768736
   5 H :    0.248021
   6 H :    0.262786
   7 H :    0.257825
   8 N :   -0.480933
   9 C :   -0.543001
  10 H :    0.295091
  11 H :    0.218103
  12 H :    0.274635
  13 C :   -0.542842
  14 H :    0.270632
  15 H :    0.226603
  16 H :    0.290539
  17 C :    0.080984
  18 C :   -0.257698
  19 C :   -0.199817
  20 C :   -0.231227
  21 C :   -0.203659
  22 C :   -0.243564
  23 H :    0.224166
  24 H :    0.225700
  25 H :    0.222515
  26 H :    0.228028
  27 H :    0.231568
  28 C :   -0.339152
  29 H :    0.242560
  30 H :    0.254171
  31 O :   -0.548101
  32 C :    0.573817
  33 O :   -0.458792
  34 C :   -0.741829
  35 H :    0.230924
  36 H :    0.247750
  37 H :    0.239500
Sum of atomic charges:   -0.0000000

LOEWDIN ATOMIC CHARGES
----------------------
   0 Pd:   -0.274856
   1 O :   -0.138606
   2 C :    0.181751
   3 O :   -0.195879
   4 C :   -0.378077
   5 H :    0.148928
   6 H :    0.164992
   7 H :    0.157674
   8 N :   -0.057494
   9 C :   -0.237056
  10 H :    0.162978
  11 H :    0.117782
  12 H :    0.151903
  13 C :   -0.233668
  14 H :    0.150619
  15 H :    0.122704
  16 H :    0.160747
  17 C :   -0.047357
  18 C :   -0.108172
  19 C :   -0.127572
  20 C :   -0.125134
  21 C :   -0.126298
  22 C :   -0.110182
  23 H :    0.136511
  24 H :    0.138977
  25 H :    0.141148
  26 H :    0.143066
  27 H :    0.147801
  28 C :   -0.101997
  29 H :    0.139487
  30 H :    0.147117
  31 O :   -0.191570
  32 C :    0.133924
  33 O :   -0.252264
  34 C :   -0.380354
  35 H :    0.143342
  36 H :    0.152430
  37 H :    0.142655

  Mayer bond orders larger than 0.100000
B(  0-Pd,  1-O ) :   0.6149 B(  0-Pd,  3-O ) :   0.4049 B(  0-Pd,  8-N ) :   0.4110
B(  0-Pd, 31-O ) :   0.6535 B(  0-Pd, 33-O ) :   0.1218 B(  1-O ,  2-C ) :   1.3480
B(  1-O ,  3-O ) :   0.1009 B(  2-C ,  3-O ) :   1.5912 B(  2-C ,  4-C ) :   0.9547
B(  4-C ,  5-H ) :   0.9125 B(  4-C ,  6-H ) :   0.9013 B(  4-C ,  7-H ) :   0.9062
B(  8-N ,  9-C ) :   0.9171 B(  8-N , 13-C ) :   0.9231 B(  8-N , 28-C ) :   0.8819
B(  9-C , 10-H ) :   0.8828 B(  9-C , 11-H ) :   0.9027 B(  9-C , 12-H ) :   0.8990
B( 13-C , 14-H ) :   0.8977 B( 13-C , 15-H ) :   0.9025 B( 13-C , 16-H ) :   0.8937
B( 17-C , 18-C ) :   1.4108 B( 17-C , 22-C ) :   1.3779 B( 17-C , 28-C ) :   0.9423
B( 18-C , 19-C ) :   1.4283 B( 18-C , 25-H ) :   0.9158 B( 19-C , 20-C ) :   1.4238
B( 19-C , 26-H ) :   0.9171 B( 20-C , 21-C ) :   1.4250 B( 20-C , 23-H ) :   0.9170
B( 21-C , 22-C ) :   1.4544 B( 21-C , 24-H ) :   0.9159 B( 22-C , 27-H ) :   0.9143
B( 28-C , 29-H ) :   0.8987 B( 28-C , 30-H ) :   0.9145 B( 31-O , 32-C ) :   1.2488
B( 32-C , 33-O ) :   1.8559 B( 32-C , 34-C ) :   0.9339 B( 34-C , 35-H ) :   0.9155
B( 34-C , 36-H ) :   0.9098 B( 34-C , 37-H ) :   0.9204

Dispersion correction           -0.026080683
FINAL SINGLE POINT ENERGY      -988.540320915734
Dispersion correction            ... done

DIPOLE MOMENT
-------------
                                X             Y             Z
Electronic contribution:     24.34036      19.66396     -25.42971
Nuclear contribution   :    -25.94026     -20.07178      26.31112
                        -----------------------------------------
Total Dipole Moment    :     -1.59990      -0.40782       0.88141
                        -----------------------------------------
Magnitude (a.u.)       :      1.87160
Magnitude (Debye)      :      4.75722

Rotational constants in cm-1:     0.014325     0.008469     0.007032
Rotational constants in MHz :   429.446325   253.891960   210.801912

                             ****ORCA TERMINATED NORMALLY****
TOTAL RUN TIME: 0 days 0 hours 14 minutes 14 seconds 144 msec
