                         Program Version 5.0.3 -  RELEASE  -
|  1> ! EnGrad PBEh-3c
|  2> %output
|  3> xyzfile=True
|  4> end
|  5> %scf
|  6> maxiter 250
|  7> end
|  8> %output
|  9> Print[P_Hirshfeld] = 1
| 10> end
| 11> % maxcore
| 12> 4000
| 13> *xyz 0 1
| 14> Pd   0.59166701   0.53379531  -0.51737850
| 15> O    2.19372197   1.52172851   0.38064677
| 16> C    1.66684456   2.69299509   0.27563419
| 17> O    0.48956285   2.77752524  -0.08043752
| 18> C    2.49116244   3.91303607   0.56201717
| 19> H    1.87724056   4.67432567   1.04186047
| 20> H    2.84909589   4.31637682  -0.38492974
| 21> H    3.35184057   3.69375672   1.18289800
| 22> N   -1.22928494  -0.37664809  -1.16776007
| 23> C   -1.27065604  -1.06160404  -2.47185887
| 24> H   -0.94877444  -0.40066684  -3.27049889
| 25> H   -2.29229137  -1.38776546  -2.70999499
| 26> H   -0.64484112  -1.93725977  -2.48662023
| 27> C   -2.14955862   0.75692868  -1.32097937
| 28> H   -2.16667993   1.37305681  -0.44403284
| 29> H   -3.17798981   0.42957306  -1.51543536
| 30> H   -1.82239140   1.39735256  -2.13635399
| 31> C   -1.43126429  -0.94682897   1.29624623
| 32> C   -0.46675163  -1.69967579   2.01530022
| 33> C   -0.33388460  -1.61580043   3.38432439
| 34> C   -1.21020035  -0.83615142   4.09933288
| 35> C   -2.29482828  -0.26823291   3.43044659
| 36> C   -2.22677542  -0.07378495   2.07572461
| 37> H   -1.12346325  -0.75751445   5.17886875
| 38> H   -3.16371351  -0.03781025   4.02841786
| 39> H    0.15970056  -2.41981333   1.50740048
| 40> H    0.41441321  -2.20235909   3.90680094
| 41> H   -3.09742531   1.98171850   2.08601372
| 42> C   -1.71710191  -1.32288457  -0.12692842
| 43> H   -2.80538753  -1.45281925  -0.19312051
| 44> H   -1.30833274  -2.31321014  -0.34292717
| 45> O    1.77683761  -0.93553220  -1.09449614
| 46> C    2.27548059  -0.78004139  -2.29713508
| 47> O    1.84575515  -0.00627840  -3.11292052
| 48> C    3.48231401  -1.64647755  -2.63387123
| 49> H    3.28625036  -2.70175778  -2.47445145
| 50> H    4.31965253  -1.36968683  -2.00200172
| 51> H    3.81095922  -1.51106060  -3.66773925
| 52> *
| 53>
| 54>                          ****END OF INPUT****

CARTESIAN COORDINATES (ANGSTROEM)
---------------------------------
  Pd     0.591667    0.533795   -0.517378
  O      2.193722    1.521729    0.380647
  C      1.666845    2.692995    0.275634
  O      0.489563    2.777525   -0.080438
  C      2.491162    3.913036    0.562017
  H      1.877241    4.674326    1.041860
  H      2.849096    4.316377   -0.384930
  H      3.351841    3.693757    1.182898
  N     -1.229285   -0.376648   -1.167760
  C     -1.270656   -1.061604   -2.471859
  H     -0.948774   -0.400667   -3.270499
  H     -2.292291   -1.387765   -2.709995
  H     -0.644841   -1.937260   -2.486620
  C     -2.149559    0.756929   -1.320979
  H     -2.166680    1.373057   -0.444033
  H     -3.177990    0.429573   -1.515435
  H     -1.822391    1.397353   -2.136354
  C     -1.431264   -0.946829    1.296246
  C     -0.466752   -1.699676    2.015300
  C     -0.333885   -1.615800    3.384324
  C     -1.210200   -0.836151    4.099333
  C     -2.294828   -0.268233    3.430447
  C     -2.226775   -0.073785    2.075725
  H     -1.123463   -0.757514    5.178869
  H     -3.163714   -0.037810    4.028418
  H      0.159701   -2.419813    1.507400
  H      0.414413   -2.202359    3.906801
  H     -3.097425    1.981718    2.086014
  C     -1.717102   -1.322885   -0.126928
  H     -2.805388   -1.452819   -0.193121
  H     -1.308333   -2.313210   -0.342927
  O      1.776838   -0.935532   -1.094496
  C      2.275481   -0.780041   -2.297135
  O      1.845755   -0.006278   -3.112921
  C      3.482314   -1.646478   -2.633871
  H      3.286250   -2.701758   -2.474451
  H      4.319653   -1.369687   -2.002002
  H      3.810959   -1.511061   -3.667739

 Total Charge           Charge          ....    0
 Multiplicity           Mult            ....    1
 Number of Electrons    NEL             ....  154
 Basis Dimension        Dim             ....  339

ORBITAL ENERGIES
----------------

  NO   OCC          E(Eh)            E(eV)
   0   2.0000     -19.486059      -530.2426
   1   2.0000     -19.478401      -530.0342
   2   2.0000     -19.477364      -530.0060
   3   2.0000     -19.433096      -528.8014
   4   2.0000     -14.725880      -400.7116
   5   2.0000     -10.557117      -287.2738
   6   2.0000     -10.532701      -286.6094
   7   2.0000     -10.525793      -286.4214
   8   2.0000     -10.509055      -285.9659
   9   2.0000     -10.496172      -285.6154
  10   2.0000     -10.480100      -285.1780
  11   2.0000     -10.479223      -285.1542
  12   2.0000     -10.470898      -284.9276
  13   2.0000     -10.469572      -284.8915
  14   2.0000     -10.466709      -284.8136
  15   2.0000     -10.460153      -284.6352
  16   2.0000     -10.432137      -283.8729
  17   2.0000     -10.415727      -283.4263
  18   2.0000      -3.658753       -99.5597
  19   2.0000      -2.306432       -62.7612
  20   2.0000      -2.303601       -62.6842
  21   2.0000      -2.267595       -61.7044
  22   2.0000      -1.185945       -32.2712
  23   2.0000      -1.152199       -31.3529
  24   2.0000      -1.081847       -29.4386
  25   2.0000      -1.068927       -29.0870
  26   2.0000      -1.053971       -28.6800
  27   2.0000      -0.983245       -26.7554
  28   2.0000      -0.890505       -24.2319
  29   2.0000      -0.854247       -23.2452
  30   2.0000      -0.822060       -22.3694
  31   2.0000      -0.820939       -22.3389
  32   2.0000      -0.806719       -21.9519
  33   2.0000      -0.796151       -21.6644
  34   2.0000      -0.725300       -19.7364
  35   2.0000      -0.694440       -18.8967
  36   2.0000      -0.673961       -18.3394
  37   2.0000      -0.602726       -16.4010
  38   2.0000      -0.596546       -16.2328
  39   2.0000      -0.588055       -16.0018
  40   2.0000      -0.581024       -15.8105
  41   2.0000      -0.576570       -15.6893
  42   2.0000      -0.558763       -15.2047
  43   2.0000      -0.536129       -14.5888
  44   2.0000      -0.532285       -14.4842
  45   2.0000      -0.526240       -14.3197
  46   2.0000      -0.523232       -14.2379
  47   2.0000      -0.515261       -14.0210
  48   2.0000      -0.511504       -13.9187
  49   2.0000      -0.496073       -13.4988
  50   2.0000      -0.494431       -13.4542
  51   2.0000      -0.489647       -13.3240
  52   2.0000      -0.479063       -13.0360
  53   2.0000      -0.469564       -12.7775
  54   2.0000      -0.457846       -12.4586
  55   2.0000      -0.449776       -12.2390
  56   2.0000      -0.444581       -12.0977
  57   2.0000      -0.441195       -12.0055
  58   2.0000      -0.437214       -11.8972
  59   2.0000      -0.435834       -11.8596
  60   2.0000      -0.430886       -11.7250
  61   2.0000      -0.424137       -11.5414
  62   2.0000      -0.419438       -11.4135
  63   2.0000      -0.405492       -11.0340
  64   2.0000      -0.378794       -10.3075
  65   2.0000      -0.373728       -10.1696
  66   2.0000      -0.355545        -9.6749
  67   2.0000      -0.346524        -9.4294
  68   2.0000      -0.342796        -9.3280
  69   2.0000      -0.335025        -9.1165
  70   2.0000      -0.318907        -8.6779
  71   2.0000      -0.312998        -8.5171
  72   2.0000      -0.305744        -8.3197
  73   2.0000      -0.294444        -8.0122
  74   2.0000      -0.293312        -7.9814
  75   2.0000      -0.281234        -7.6528
  76   2.0000      -0.273567        -7.4441
  77   0.0000      -0.109778        -2.9872
  78   0.0000      -0.060980        -1.6593
  79   0.0000      -0.015008        -0.4084
  80   0.0000      -0.002126        -0.0579
  81   0.0000       0.059797         1.6272

MULLIKEN ATOMIC CHARGES
-----------------------
   0 Pd:    0.519564
   1 O :   -0.495984
   2 C :    0.643380
   3 O :   -0.483093
   4 C :   -0.763660
   5 H :    0.247222
   6 H :    0.257608
   7 H :    0.253530
   8 N :   -0.482540
   9 C :   -0.529853
  10 H :    0.291298
  11 H :    0.220190
  12 H :    0.268382
  13 C :   -0.556233
  14 H :    0.297459
  15 H :    0.229902
  16 H :    0.281434
  17 C :   -0.036487
  18 C :   -0.217132
  19 C :   -0.207377
  20 C :   -0.218367
  21 C :   -0.240016
  22 C :   -0.042110
  23 H :    0.238203
  24 H :    0.250756
  25 H :    0.250554
  26 H :    0.237198
  27 H :    0.042181
  28 C :   -0.321423
  29 H :    0.250789
  30 H :    0.269777
  31 O :   -0.552344
  32 C :    0.563967
  33 O :   -0.440018
  34 C :   -0.743562
  35 H :    0.228535
  36 H :    0.247244
  37 H :    0.241028
Sum of atomic charges:    0.0000000

LOEWDIN ATOMIC CHARGES
----------------------
   0 Pd:   -0.255622
   1 O :   -0.173162
   2 C :    0.170369
   3 O :   -0.192623
   4 C :   -0.378886
   5 H :    0.151669
   6 H :    0.162388
   7 H :    0.151408
   8 N :   -0.048721
   9 C :   -0.235396
  10 H :    0.161696
  11 H :    0.120582
  12 H :    0.146479
  13 C :   -0.239667
  14 H :    0.160744
  15 H :    0.125736
  16 H :    0.157876
  17 C :   -0.066678
  18 C :   -0.100053
  19 C :   -0.130530
  20 C :   -0.124833
  21 C :   -0.140288
  22 C :   -0.014284
  23 H :    0.144199
  24 H :    0.148920
  25 H :    0.159062
  26 H :    0.145530
  27 H :    0.044489
  28 C :   -0.102503
  29 H :    0.141942
  30 H :    0.155432
  31 O :   -0.190389
  32 C :    0.130742
  33 O :   -0.236417
  34 C :   -0.383318
  35 H :    0.140487
  36 H :    0.151106
  37 H :    0.142516

  Mayer bond orders larger than 0.100000
B(  0-Pd,  1-O ) :   0.6014 B(  0-Pd,  3-O ) :   0.3906 B(  0-Pd,  8-N ) :   0.4120
B(  0-Pd, 31-O ) :   0.6820 B(  0-Pd, 33-O ) :   0.1065 B(  1-O ,  2-C ) :   1.3665
B(  1-O ,  3-O ) :   0.1005 B(  2-C ,  3-O ) :   1.6047 B(  2-C ,  4-C ) :   0.9504
B(  4-C ,  5-H ) :   0.9121 B(  4-C ,  6-H ) :   0.9050 B(  4-C ,  7-H ) :   0.9096
B(  8-N ,  9-C ) :   0.9217 B(  8-N , 13-C ) :   0.9176 B(  8-N , 28-C ) :   0.8975
B(  9-C , 10-H ) :   0.8932 B(  9-C , 11-H ) :   0.9020 B(  9-C , 12-H ) :   0.9054
B( 13-C , 14-H ) :   0.8789 B( 13-C , 15-H ) :   0.9032 B( 13-C , 16-H ) :   0.8961
B( 17-C , 18-C ) :   1.3901 B( 17-C , 22-C ) :   1.4103 B( 17-C , 28-C ) :   0.9576
B( 18-C , 19-C ) :   1.4383 B( 18-C , 25-H ) :   0.8996 B( 19-C , 20-C ) :   1.4336
B( 19-C , 26-H ) :   0.9103 B( 20-C , 21-C ) :   1.3931 B( 20-C , 23-H ) :   0.9095
B( 21-C , 22-C ) :   1.4595 B( 21-C , 24-H ) :   0.9057 B( 22-C , 27-H ) :   0.8352
B( 28-C , 29-H ) :   0.8953 B( 28-C , 30-H ) :   0.9065 B( 31-O , 32-C ) :   1.2248
B( 32-C , 33-O ) :   1.8950 B( 32-C , 34-C ) :   0.9339 B( 34-C , 35-H ) :   0.9166
B( 34-C , 36-H ) :   0.9102 B( 34-C , 37-H ) :   0.9199

Dispersion correction           -0.025923163
FINAL SINGLE POINT ENERGY      -988.319504228795
Dispersion correction            ... done

DIPOLE MOMENT
-------------
                                X             Y             Z
Electronic contribution:     25.48114      25.66378     -25.83805
Nuclear contribution   :    -27.25971     -26.56380      26.77010
                        -----------------------------------------
Total Dipole Moment    :     -1.77857      -0.90001       0.93205
                        -----------------------------------------
Magnitude (a.u.)       :      2.20046
Magnitude (Debye)      :      5.59313

Rotational constants in cm-1:     0.013273     0.008290     0.007015
Rotational constants in MHz :   397.918888   248.542576   210.310089

                             ****ORCA TERMINATED NORMALLY****
TOTAL RUN TIME: 0 days 0 hours 20 minutes 15 seconds 277 msec
