                         Program Version 5.0.3 -  RELEASE  -
|  1> ! EnGrad PBEh-3c
|  2> %output
|  3> xyzfile=True
|  4> end
|  5> %scf
|  6> maxiter 250
|  7> end
|  8> %output
|  9> Print[P_Hirshfeld] = 1
| 10> end
| 11> % maxcore
| 12> 4000
| 13> *xyz 0 1
| 14> Pd   0.54846055   0.40438106  -0.50468826
| 15> O    2.16077931   1.34665098   0.13814199
| 16> C    1.61451222   2.48318116   0.28946082
| 17> O    0.37726479   2.55883106   0.14241006
| 18> C    2.51797175   3.64883629   0.56669054
| 19> H    2.01027484   4.50224112   1.00616159
| 20> H    2.98092482   3.96017672  -0.36977994
| 21> H    3.33010583   3.32637158   1.21061209
| 22> N   -1.27290136  -0.47229733  -1.11761748
| 23> C   -1.16342628  -1.45743469  -2.21804360
| 24> H   -0.73260610  -0.99784425  -3.10470719
| 25> H   -2.16233554  -1.84783330  -2.45024614
| 26> H   -0.53463560  -2.28591480  -1.90237240
| 27> C   -2.14236810   0.62174695  -1.58548651
| 28> H   -2.29888405   1.35277448  -0.79401250
| 29> H   -3.12188390   0.22687329  -1.88409154
| 30> H   -1.68728702   1.11811005  -2.43936933
| 31> C   -1.49777393  -0.84265328   1.43767008
| 32> C   -0.93137762  -1.88321102   2.17986721
| 33> C   -0.77750874  -1.79133505   3.54287359
| 34> C   -1.21718698  -0.63790698   4.17781560
| 35> C   -1.69805762   0.44045854   3.46772075
| 36> C   -1.83203875   0.32908565   2.10739082
| 37> H   -1.16980229  -0.56983118   5.23689534
| 38> H   -2.01635369   1.34366317   3.99135657
| 39> H   -0.66041889  -2.78349700   1.64792272
| 40> H   -0.36058322  -2.63606631   4.07678844
| 41> H   -2.22983441   1.14617396   1.58450848
| 42> C   -1.93714363  -1.17282814   0.03220514
| 43> H   -3.02930699  -1.03842256  -0.08716356
| 44> H   -1.77545658  -2.24283461  -0.13451935
| 45> O    1.73695142  -1.00272572  -1.25502112
| 46> C    2.18213996  -0.60382226  -2.41380267
| 47> O    1.57681630   0.13870854  -3.15468732
| 48> C    3.56535281  -1.10232378  -2.78448238
| 49> H    3.61234155  -2.18721201  -2.80902843
| 50> H    4.28750495  -0.77648174  -2.03959380
| 51> H    3.85005849  -0.70263207  -3.75481368
| 52> *
| 53>
| 54>                          ****END OF INPUT****

CARTESIAN COORDINATES (ANGSTROEM)
---------------------------------
  Pd     0.548461    0.404381   -0.504688
  O      2.160779    1.346651    0.138142
  C      1.614512    2.483181    0.289461
  O      0.377265    2.558831    0.142410
  C      2.517972    3.648836    0.566691
  H      2.010275    4.502241    1.006162
  H      2.980925    3.960177   -0.369780
  H      3.330106    3.326372    1.210612
  N     -1.272901   -0.472297   -1.117617
  C     -1.163426   -1.457435   -2.218044
  H     -0.732606   -0.997844   -3.104707
  H     -2.162336   -1.847833   -2.450246
  H     -0.534636   -2.285915   -1.902372
  C     -2.142368    0.621747   -1.585487
  H     -2.298884    1.352774   -0.794012
  H     -3.121884    0.226873   -1.884092
  H     -1.687287    1.118110   -2.439369
  C     -1.497774   -0.842653    1.437670
  C     -0.931378   -1.883211    2.179867
  C     -0.777509   -1.791335    3.542874
  C     -1.217187   -0.637907    4.177816
  C     -1.698058    0.440459    3.467721
  C     -1.832039    0.329086    2.107391
  H     -1.169802   -0.569831    5.236895
  H     -2.016354    1.343663    3.991357
  H     -0.660419   -2.783497    1.647923
  H     -0.360583   -2.636066    4.076788
  H     -2.229834    1.146174    1.584508
  C     -1.937144   -1.172828    0.032205
  H     -3.029307   -1.038423   -0.087164
  H     -1.775457   -2.242835   -0.134519
  O      1.736951   -1.002726   -1.255021
  C      2.182140   -0.603822   -2.413803
  O      1.576816    0.138709   -3.154687
  C      3.565353   -1.102324   -2.784482
  H      3.612342   -2.187212   -2.809028
  H      4.287505   -0.776482   -2.039594
  H      3.850058   -0.702632   -3.754814

 Total Charge           Charge          ....    0
 Multiplicity           Mult            ....    1
 Number of Electrons    NEL             ....  154
 Basis Dimension        Dim             ....  339

ORBITAL ENERGIES
----------------

  NO   OCC          E(Eh)            E(eV)
   0   2.0000     -19.497317      -530.5490
   1   2.0000     -19.487030      -530.2690
   2   2.0000     -19.471007      -529.8330
   3   2.0000     -19.432360      -528.7814
   4   2.0000     -14.719735      -400.5443
   5   2.0000     -10.566115      -287.5186
   6   2.0000     -10.529962      -286.5348
   7   2.0000     -10.502630      -285.7911
   8   2.0000     -10.484762      -285.3049
   9   2.0000     -10.475594      -285.0554
  10   2.0000     -10.472781      -284.9788
  11   2.0000     -10.458059      -284.5783
  12   2.0000     -10.456731      -284.5421
  13   2.0000     -10.456424      -284.5338
  14   2.0000     -10.455550      -284.5100
  15   2.0000     -10.454656      -284.4857
  16   2.0000     -10.438210      -284.0381
  17   2.0000     -10.411429      -283.3094
  18   2.0000      -3.656701       -99.5039
  19   2.0000      -2.307018       -62.7772
  20   2.0000      -2.299876       -62.5828
  21   2.0000      -2.265655       -61.6516
  22   2.0000      -1.199619       -32.6433
  23   2.0000      -1.150115       -31.2962
  24   2.0000      -1.082056       -29.4442
  25   2.0000      -1.073612       -29.2145
  26   2.0000      -1.051007       -28.5994
  27   2.0000      -0.975796       -26.5528
  28   2.0000      -0.880806       -23.9679
  29   2.0000      -0.854827       -23.2610
  30   2.0000      -0.829310       -22.5667
  31   2.0000      -0.820154       -22.3175
  32   2.0000      -0.798089       -21.7171
  33   2.0000      -0.794280       -21.6134
  34   2.0000      -0.719689       -19.5837
  35   2.0000      -0.696495       -18.9526
  36   2.0000      -0.677934       -18.4475
  37   2.0000      -0.614179       -16.7127
  38   2.0000      -0.605090       -16.4653
  39   2.0000      -0.583183       -15.8692
  40   2.0000      -0.571727       -15.5575
  41   2.0000      -0.566284       -15.4094
  42   2.0000      -0.560747       -15.2587
  43   2.0000      -0.544831       -14.8256
  44   2.0000      -0.540110       -14.6971
  45   2.0000      -0.529416       -14.4061
  46   2.0000      -0.525248       -14.2927
  47   2.0000      -0.522948       -14.2301
  48   2.0000      -0.508754       -13.8439
  49   2.0000      -0.498143       -13.5552
  50   2.0000      -0.494934       -13.4678
  51   2.0000      -0.490818       -13.3558
  52   2.0000      -0.488092       -13.2817
  53   2.0000      -0.478595       -13.0232
  54   2.0000      -0.459115       -12.4932
  55   2.0000      -0.457446       -12.4477
  56   2.0000      -0.446215       -12.1421
  57   2.0000      -0.443662       -12.0727
  58   2.0000      -0.438867       -11.9422
  59   2.0000      -0.432240       -11.7618
  60   2.0000      -0.430812       -11.7230
  61   2.0000      -0.416843       -11.3429
  62   2.0000      -0.414706       -11.2847
  63   2.0000      -0.408776       -11.1234
  64   2.0000      -0.403097       -10.9688
  65   2.0000      -0.379429       -10.3248
  66   2.0000      -0.369732       -10.0609
  67   2.0000      -0.360621        -9.8130
  68   2.0000      -0.351890        -9.5754
  69   2.0000      -0.342475        -9.3192
  70   2.0000      -0.316716        -8.6183
  71   2.0000      -0.315999        -8.5988
  72   2.0000      -0.308615        -8.3979
  73   2.0000      -0.303277        -8.2526
  74   2.0000      -0.294600        -8.0165
  75   2.0000      -0.293227        -7.9791
  76   2.0000      -0.270437        -7.3590
  77   0.0000      -0.048002        -1.3062
  78   0.0000      -0.003222        -0.0877
  79   0.0000       0.009992         0.2719
  80   0.0000       0.052300         1.4231
  81   0.0000       0.072128         1.9627

MULLIKEN ATOMIC CHARGES
-----------------------
   0 Pd:    0.541481
   1 O :   -0.492864
   2 C :    0.655227
   3 O :   -0.494595
   4 C :   -0.769381
   5 H :    0.248775
   6 H :    0.262841
   7 H :    0.257790
   8 N :   -0.485989
   9 C :   -0.541990
  10 H :    0.295300
  11 H :    0.218432
  12 H :    0.275383
  13 C :   -0.541132
  14 H :    0.270409
  15 H :    0.226327
  16 H :    0.290880
  17 C :    0.105583
  18 C :   -0.260545
  19 C :   -0.202144
  20 C :   -0.239457
  21 C :   -0.194980
  22 C :   -0.254078
  23 H :    0.225063
  24 H :    0.226791
  25 H :    0.222492
  26 H :    0.225730
  27 H :    0.226465
  28 C :   -0.339711
  29 H :    0.244110
  30 H :    0.253305
  31 O :   -0.550836
  32 C :    0.571354
  33 O :   -0.452415
  34 C :   -0.742570
  35 H :    0.231282
  36 H :    0.248474
  37 H :    0.239192
Sum of atomic charges:    0.0000000

LOEWDIN ATOMIC CHARGES
----------------------
   0 Pd:   -0.278245
   1 O :   -0.138446
   2 C :    0.180665
   3 O :   -0.197485
   4 C :   -0.378523
   5 H :    0.148932
   6 H :    0.164728
   7 H :    0.157577
   8 N :   -0.057322
   9 C :   -0.236295
  10 H :    0.163891
  11 H :    0.117967
  12 H :    0.152394
  13 C :   -0.233094
  14 H :    0.150291
  15 H :    0.122861
  16 H :    0.161439
  17 C :   -0.054013
  18 C :   -0.107399
  19 C :   -0.128437
  20 C :   -0.122033
  21 C :   -0.126279
  22 C :   -0.105510
  23 H :    0.136974
  24 H :    0.142168
  25 H :    0.140845
  26 H :    0.142234
  27 H :    0.144425
  28 C :   -0.099971
  29 H :    0.139818
  30 H :    0.147050
  31 O :   -0.194688
  32 C :    0.132197
  33 O :   -0.245271
  34 C :   -0.381126
  35 H :    0.143111
  36 H :    0.152320
  37 H :    0.142250

  Mayer bond orders larger than 0.100000
B(  0-Pd,  1-O ) :   0.6088 B(  0-Pd,  3-O ) :   0.4100 B(  0-Pd,  8-N ) :   0.4170
B(  0-Pd, 31-O ) :   0.6552 B(  0-Pd, 33-O ) :   0.1204 B(  1-O ,  2-C ) :   1.3560
B(  1-O ,  3-O ) :   0.1009 B(  2-C ,  3-O ) :   1.5835 B(  2-C ,  4-C ) :   0.9556
B(  4-C ,  5-H ) :   0.9127 B(  4-C ,  6-H ) :   0.9013 B(  4-C ,  7-H ) :   0.9060
B(  8-N ,  9-C ) :   0.9141 B(  8-N , 13-C ) :   0.9212 B(  8-N , 28-C ) :   0.8776
B(  9-C , 10-H ) :   0.8824 B(  9-C , 11-H ) :   0.9028 B(  9-C , 12-H ) :   0.8985
B( 13-C , 14-H ) :   0.8972 B( 13-C , 15-H ) :   0.9025 B( 13-C , 16-H ) :   0.8933
B( 17-C , 18-C ) :   1.4024 B( 17-C , 22-C ) :   1.3915 B( 17-C , 28-C ) :   0.9439
B( 18-C , 19-C ) :   1.4388 B( 18-C , 25-H ) :   0.9148 B( 19-C , 20-C ) :   1.4166
B( 19-C , 26-H ) :   0.9183 B( 20-C , 21-C ) :   1.4236 B( 20-C , 23-H ) :   0.9175
B( 21-C , 22-C ) :   1.4393 B( 21-C , 24-H ) :   0.9172 B( 22-C , 27-H ) :   0.9155
B( 28-C , 29-H ) :   0.8973 B( 28-C , 30-H ) :   0.9149 B( 31-O , 32-C ) :   1.2428
B( 32-C , 33-O ) :   1.8644 B( 32-C , 34-C ) :   0.9341 B( 34-C , 35-H ) :   0.9154
B( 34-C , 36-H ) :   0.9096 B( 34-C , 37-H ) :   0.9206

Dispersion correction           -0.026103961
FINAL SINGLE POINT ENERGY      -988.542361557710
Dispersion correction            ... done

DIPOLE MOMENT
-------------
                                X             Y             Z
Electronic contribution:     23.84749      19.28297     -25.35715
Nuclear contribution   :    -25.46168     -19.70311      26.20782
                        -----------------------------------------
Total Dipole Moment    :     -1.61419      -0.42014       0.85068
                        -----------------------------------------
Magnitude (a.u.)       :      1.87237
Magnitude (Debye)      :      4.75920

Rotational constants in cm-1:     0.014387     0.008469     0.007017
Rotational constants in MHz :   431.312872   253.895393   210.361333

                             ****ORCA TERMINATED NORMALLY****
TOTAL RUN TIME: 0 days 0 hours 13 minutes 52 seconds 83 msec
