                         Program Version 5.0.3 -  RELEASE  -
|  1> ! EnGrad PBEh-3c
|  2> %output
|  3> xyzfile=True
|  4> end
|  5> %scf
|  6> maxiter 250
|  7> end
|  8> %output
|  9> Print[P_Hirshfeld] = 1
| 10> end
| 11> % maxcore
| 12> 4000
| 13> *xyz 0 1
| 14> Pd   0.63046022   0.54510597  -0.49869750
| 15> O    2.18221306   1.49114295   0.36795509
| 16> C    1.63863009   2.68881777   0.28045300
| 17> O    0.47946868   2.77400754  -0.08486355
| 18> C    2.50226104   3.90495246   0.56270054
| 19> H    1.88918834   4.66876210   1.03907940
| 20> H    2.86026174   4.30531569  -0.38454125
| 21> H    3.35983882   3.67899536   1.18602053
| 22> N   -1.25395045  -0.38262065  -1.19221433
| 23> C   -1.26375038  -1.09464458  -2.47408233
| 24> H   -0.94172614  -0.42657259  -3.26000972
| 25> H   -2.29177096  -1.40609146  -2.69587295
| 26> H   -0.63503027  -1.96339679  -2.46339964
| 27> C   -2.15793652   0.76542680  -1.32316092
| 28> H   -2.17776009   1.37402245  -0.44063287
| 29> H   -3.17526949   0.41275930  -1.53313515
| 30> H   -1.81756386   1.37266675  -2.15311682
| 31> C   -1.43445270  -0.92289717   1.30073563
| 32> C   -0.49143709  -1.72529973   2.02494283
| 33> C   -0.33195843  -1.61078770   3.38585843
| 34> C   -1.22528820  -0.86744186   4.10101055
| 35> C   -2.26824358  -0.20523466   3.44555623
| 36> C   -2.22979770  -0.05699716   2.10833549
| 37> H   -1.13043257  -0.75552855   5.17987015
| 38> H   -3.13401843   0.04097265   4.02198427
| 39> H    0.12996568  -2.44008705   1.50141852
| 40> H    0.39052348  -2.22118891   3.90933158
| 41> H   -3.03158311   1.95189776   2.05476763
| 42> C   -1.73067681  -1.31867999  -0.11606958
| 43> H   -2.81829760  -1.43602844  -0.19544783
| 44> H   -1.32835235  -2.31455479  -0.32832765
| 45> O    1.78642258  -0.95165813  -1.09241895
| 46> C    2.26730422  -0.76144609  -2.30959880
| 47> O    1.82411281   0.01068152  -3.12911345
| 48> C    3.49714954  -1.62654532  -2.63293155
| 49> H    3.30159705  -2.68125771  -2.48817799
| 50> H    4.32506809  -1.34438088  -2.00205521
| 51> H    3.80788245  -1.47070912  -3.67200823
| 52> *
| 53>
| 54>                          ****END OF INPUT****

CARTESIAN COORDINATES (ANGSTROEM)
---------------------------------
  Pd     0.630460    0.545106   -0.498697
  O      2.182213    1.491143    0.367955
  C      1.638630    2.688818    0.280453
  O      0.479469    2.774008   -0.084864
  C      2.502261    3.904952    0.562701
  H      1.889188    4.668762    1.039079
  H      2.860262    4.305316   -0.384541
  H      3.359839    3.678995    1.186021
  N     -1.253950   -0.382621   -1.192214
  C     -1.263750   -1.094645   -2.474082
  H     -0.941726   -0.426573   -3.260010
  H     -2.291771   -1.406091   -2.695873
  H     -0.635030   -1.963397   -2.463400
  C     -2.157937    0.765427   -1.323161
  H     -2.177760    1.374022   -0.440633
  H     -3.175269    0.412759   -1.533135
  H     -1.817564    1.372667   -2.153117
  C     -1.434453   -0.922897    1.300736
  C     -0.491437   -1.725300    2.024943
  C     -0.331958   -1.610788    3.385858
  C     -1.225288   -0.867442    4.101011
  C     -2.268244   -0.205235    3.445556
  C     -2.229798   -0.056997    2.108335
  H     -1.130433   -0.755529    5.179870
  H     -3.134018    0.040973    4.021984
  H      0.129966   -2.440087    1.501419
  H      0.390523   -2.221189    3.909332
  H     -3.031583    1.951898    2.054768
  C     -1.730677   -1.318680   -0.116070
  H     -2.818298   -1.436028   -0.195448
  H     -1.328352   -2.314555   -0.328328
  O      1.786423   -0.951658   -1.092419
  C      2.267304   -0.761446   -2.309599
  O      1.824113    0.010682   -3.129113
  C      3.497150   -1.626545   -2.632932
  H      3.301597   -2.681258   -2.488178
  H      4.325068   -1.344381   -2.002055
  H      3.807882   -1.470709   -3.672008

 Total Charge           Charge          ....    0
 Multiplicity           Mult            ....    1
 Number of Electrons    NEL             ....  154
 Basis Dimension        Dim             ....  339

ORBITAL ENERGIES
----------------

  NO   OCC          E(Eh)            E(eV)
   0   2.0000     -19.492733      -530.4242
   1   2.0000     -19.491731      -530.3970
   2   2.0000     -19.476888      -529.9931
   3   2.0000     -19.437176      -528.9124
   4   2.0000     -14.716230      -400.4490
   5   2.0000     -10.567207      -287.5483
   6   2.0000     -10.535549      -286.6869
   7   2.0000     -10.523269      -286.3527
   8   2.0000     -10.506694      -285.9017
   9   2.0000     -10.497459      -285.6504
  10   2.0000     -10.477176      -285.0984
  11   2.0000     -10.474784      -285.0334
  12   2.0000     -10.471921      -284.9555
  13   2.0000     -10.466406      -284.8054
  14   2.0000     -10.465845      -284.7901
  15   2.0000     -10.458955      -284.6026
  16   2.0000     -10.438365      -284.0423
  17   2.0000     -10.414722      -283.3990
  18   2.0000      -3.656834       -99.5075
  19   2.0000      -2.305147       -62.7262
  20   2.0000      -2.301329       -62.6223
  21   2.0000      -2.265870       -61.6575
  22   2.0000      -1.195753       -32.5381
  23   2.0000      -1.146647       -31.2018
  24   2.0000      -1.074933       -29.2504
  25   2.0000      -1.072082       -29.1728
  26   2.0000      -1.052240       -28.6329
  27   2.0000      -0.982652       -26.7393
  28   2.0000      -0.887434       -24.1483
  29   2.0000      -0.858227       -23.3535
  30   2.0000      -0.824226       -22.4283
  31   2.0000      -0.819148       -22.2902
  32   2.0000      -0.802609       -21.8401
  33   2.0000      -0.793073       -21.5806
  34   2.0000      -0.719586       -19.5809
  35   2.0000      -0.693455       -18.8699
  36   2.0000      -0.672886       -18.3102
  37   2.0000      -0.607459       -16.5298
  38   2.0000      -0.596490       -16.2313
  39   2.0000      -0.586379       -15.9562
  40   2.0000      -0.576357       -15.6835
  41   2.0000      -0.571936       -15.5632
  42   2.0000      -0.554971       -15.1015
  43   2.0000      -0.542106       -14.7514
  44   2.0000      -0.534152       -14.5350
  45   2.0000      -0.532753       -14.4969
  46   2.0000      -0.522815       -14.2265
  47   2.0000      -0.520209       -14.1556
  48   2.0000      -0.507656       -13.8140
  49   2.0000      -0.493606       -13.4317
  50   2.0000      -0.491698       -13.3798
  51   2.0000      -0.488454       -13.2915
  52   2.0000      -0.477336       -12.9890
  53   2.0000      -0.467100       -12.7104
  54   2.0000      -0.458079       -12.4650
  55   2.0000      -0.455765       -12.4020
  56   2.0000      -0.448539       -12.2054
  57   2.0000      -0.443615       -12.0714
  58   2.0000      -0.440687       -11.9917
  59   2.0000      -0.434598       -11.8260
  60   2.0000      -0.429665       -11.6918
  61   2.0000      -0.423948       -11.5362
  62   2.0000      -0.419382       -11.4120
  63   2.0000      -0.403773       -10.9872
  64   2.0000      -0.377716       -10.2782
  65   2.0000      -0.373626       -10.1669
  66   2.0000      -0.358439        -9.7536
  67   2.0000      -0.350195        -9.5293
  68   2.0000      -0.344809        -9.3827
  69   2.0000      -0.335426        -9.1274
  70   2.0000      -0.317679        -8.6445
  71   2.0000      -0.312620        -8.5068
  72   2.0000      -0.305665        -8.3176
  73   2.0000      -0.296501        -8.0682
  74   2.0000      -0.292537        -7.9603
  75   2.0000      -0.286726        -7.8022
  76   2.0000      -0.274319        -7.4646
  77   0.0000      -0.099922        -2.7190
  78   0.0000      -0.056578        -1.5396
  79   0.0000      -0.016490        -0.4487
  80   0.0000       0.002527         0.0688
  81   0.0000       0.052881         1.4390

MULLIKEN ATOMIC CHARGES
-----------------------
   0 Pd:    0.516160
   1 O :   -0.513803
   2 C :    0.644709
   3 O :   -0.459699
   4 C :   -0.761052
   5 H :    0.246497
   6 H :    0.260706
   7 H :    0.257056
   8 N :   -0.472305
   9 C :   -0.521906
  10 H :    0.286694
  11 H :    0.213464
  12 H :    0.267148
  13 C :   -0.542348
  14 H :    0.292008
  15 H :    0.222194
  16 H :    0.274617
  17 C :   -0.031619
  18 C :   -0.238580
  19 C :   -0.186898
  20 C :   -0.236595
  21 C :   -0.221088
  22 C :   -0.049537
  23 H :    0.237965
  24 H :    0.251426
  25 H :    0.256997
  26 H :    0.233395
  27 H :    0.040163
  28 C :   -0.323308
  29 H :    0.246908
  30 H :    0.266461
  31 O :   -0.554457
  32 C :    0.564766
  33 O :   -0.440461
  34 C :   -0.740466
  35 H :    0.229843
  36 H :    0.248439
  37 H :    0.236506
Sum of atomic charges:   -0.0000000

LOEWDIN ATOMIC CHARGES
----------------------
   0 Pd:   -0.261428
   1 O :   -0.178104
   2 C :    0.188057
   3 O :   -0.165272
   4 C :   -0.379127
   5 H :    0.151312
   6 H :    0.163209
   7 H :    0.153124
   8 N :   -0.065328
   9 C :   -0.235698
  10 H :    0.159458
  11 H :    0.117333
  12 H :    0.146981
  13 C :   -0.237878
  14 H :    0.159769
  15 H :    0.121911
  16 H :    0.154875
  17 C :   -0.062682
  18 C :   -0.095485
  19 C :   -0.132399
  20 C :   -0.123272
  21 C :   -0.148078
  22 C :   -0.017650
  23 H :    0.144345
  24 H :    0.150510
  25 H :    0.159163
  26 H :    0.145932
  27 H :    0.043812
  28 C :   -0.102885
  29 H :    0.139212
  30 H :    0.153881
  31 O :   -0.199970
  32 C :    0.143988
  33 O :   -0.238656
  34 C :   -0.385112
  35 H :    0.140897
  36 H :    0.150491
  37 H :    0.140764

  Mayer bond orders larger than 0.100000
B(  0-Pd,  1-O ) :   0.6417 B(  0-Pd,  3-O ) :   0.3766 B(  0-Pd,  8-N ) :   0.3901
B(  0-Pd, 31-O ) :   0.6822 B(  0-Pd, 33-O ) :   0.1049 B(  1-O ,  2-C ) :   1.3040
B(  1-O ,  3-O ) :   0.1006 B(  2-C ,  3-O ) :   1.6420 B(  2-C ,  4-C ) :   0.9500
B(  4-C ,  5-H ) :   0.9111 B(  4-C ,  6-H ) :   0.9037 B(  4-C ,  7-H ) :   0.9084
B(  8-N ,  9-C ) :   0.9274 B(  8-N , 13-C ) :   0.9229 B(  8-N , 28-C ) :   0.8980
B(  9-C , 10-H ) :   0.8948 B(  9-C , 11-H ) :   0.9041 B(  9-C , 12-H ) :   0.9059
B( 13-C , 14-H ) :   0.8817 B( 13-C , 15-H ) :   0.9054 B( 13-C , 16-H ) :   0.8991
B( 17-C , 18-C ) :   1.4008 B( 17-C , 22-C ) :   1.3944 B( 17-C , 28-C ) :   0.9576
B( 18-C , 19-C ) :   1.4238 B( 18-C , 25-H ) :   0.8971 B( 19-C , 20-C ) :   1.4448
B( 19-C , 26-H ) :   0.9132 B( 20-C , 21-C ) :   1.3762 B( 20-C , 23-H ) :   0.9093
B( 21-C , 22-C ) :   1.4838 B( 21-C , 24-H ) :   0.9041 B( 22-C , 27-H ) :   0.8395
B( 28-C , 29-H ) :   0.8953 B( 28-C , 30-H ) :   0.9083 B( 31-O , 32-C ) :   1.2188
B( 31-O , 33-O ) :   0.1001 B( 32-C , 33-O ) :   1.8948 B( 32-C , 34-C ) :   0.9304
B( 34-C , 35-H ) :   0.9168 B( 34-C , 36-H ) :   0.9103 B( 34-C , 37-H ) :   0.9211

Dispersion correction           -0.025832609
FINAL SINGLE POINT ENERGY      -988.331720844424
Dispersion correction            ... done

DIPOLE MOMENT
-------------
                                X             Y             Z
Electronic contribution:     27.76279      26.46499     -24.74903
Nuclear contribution   :    -29.39975     -27.17376      25.75879
                        -----------------------------------------
Total Dipole Moment    :     -1.63697      -0.70877       1.00976
                        -----------------------------------------
Magnitude (a.u.)       :      2.04979
Magnitude (Debye)      :      5.21015

Rotational constants in cm-1:     0.013274     0.008263     0.006997
Rotational constants in MHz :   397.957759   247.730055   209.762676

                             ****ORCA TERMINATED NORMALLY****
TOTAL RUN TIME: 0 days 0 hours 20 minutes 4 seconds 725 msec
