                         Program Version 5.0.3 -  RELEASE  -
|  1> ! EnGrad PBEh-3c
|  2> %output
|  3> xyzfile=True
|  4> end
|  5> %scf
|  6> maxiter 250
|  7> end
|  8> %output
|  9> Print[P_Hirshfeld] = 1
| 10> end
| 11> % maxcore
| 12> 4000
| 13> *xyz 0 1
| 14> Pd   0.68867928   0.55400478  -0.46891092
| 15> O    2.15236193   1.44729222   0.34755763
| 16> C    1.61324031   2.67379898   0.29190542
| 17> O    0.44870425   2.76376549  -0.09463312
| 18> C    2.51690071   3.87470016   0.56511952
| 19> H    1.91918091   4.65672810   1.03351865
| 20> H    2.88700012   4.27658128  -0.38443690
| 21> H    3.37725916   3.64234295   1.19283377
| 22> N   -1.28693714  -0.40060842  -1.21176949
| 23> C   -1.26126936  -1.15953879  -2.46934014
| 24> H   -0.92289519  -0.49082218  -3.24242497
| 25> H   -2.29051538  -1.45692048  -2.66901943
| 26> H   -0.61190764  -2.02842842  -2.40723217
| 27> C   -2.17590066   0.76334217  -1.34162041
| 28> H   -2.20240080   1.37444914  -0.43867466
| 29> H   -3.17273279   0.37851678  -1.57458502
| 30> H   -1.80706834   1.32146456  -2.19338660
| 31> C   -1.44142019  -0.88451093   1.32566641
| 32> C   -0.55400648  -1.76375723   2.03221715
| 33> C   -0.34038472  -1.61930002   3.38999196
| 34> C   -1.25730754  -0.90730221   4.11795989
| 35> C   -2.20246366  -0.08753260   3.49350599
| 36> C   -2.22262903   0.00013199   2.13672782
| 37> H   -1.14472269  -0.75472062   5.18086266
| 38> H   -3.06594961   0.23221703   4.01879278
| 39> H    0.05558081  -2.49007470   1.49134091
| 40> H    0.33649701  -2.26905655   3.91889153
| 41> H   -2.87695543   1.88448393   1.98329662
| 42> C   -1.76326901  -1.30089784  -0.10261874
| 43> H   -2.85157931  -1.39727951  -0.19511389
| 44> H   -1.37885278  -2.31602881  -0.29283952
| 45> O    1.81014518  -0.97245637  -1.10374067
| 46> C    2.24888810  -0.71825902  -2.33945579
| 47> O    1.78163770   0.03087373  -3.14352196
| 48> C    3.51744183  -1.56590316  -2.64501726
| 49> H    3.33871631  -2.63242082  -2.52182895
| 50> H    4.34214315  -1.28081925  -1.99946448
| 51> H    3.80487764  -1.37556878  -3.68015138
| 52> *
| 53>
| 54>                          ****END OF INPUT****

CARTESIAN COORDINATES (ANGSTROEM)
---------------------------------
  Pd     0.688679    0.554005   -0.468911
  O      2.152362    1.447292    0.347558
  C      1.613240    2.673799    0.291905
  O      0.448704    2.763765   -0.094633
  C      2.516901    3.874700    0.565120
  H      1.919181    4.656728    1.033519
  H      2.887000    4.276581   -0.384437
  H      3.377259    3.642343    1.192834
  N     -1.286937   -0.400608   -1.211769
  C     -1.261269   -1.159539   -2.469340
  H     -0.922895   -0.490822   -3.242425
  H     -2.290515   -1.456920   -2.669019
  H     -0.611908   -2.028428   -2.407232
  C     -2.175901    0.763342   -1.341620
  H     -2.202401    1.374449   -0.438675
  H     -3.172733    0.378517   -1.574585
  H     -1.807068    1.321465   -2.193387
  C     -1.441420   -0.884511    1.325666
  C     -0.554006   -1.763757    2.032217
  C     -0.340385   -1.619300    3.389992
  C     -1.257308   -0.907302    4.117960
  C     -2.202464   -0.087533    3.493506
  C     -2.222629    0.000132    2.136728
  H     -1.144723   -0.754721    5.180863
  H     -3.065950    0.232217    4.018793
  H      0.055581   -2.490075    1.491341
  H      0.336497   -2.269057    3.918892
  H     -2.876955    1.884484    1.983297
  C     -1.763269   -1.300898   -0.102619
  H     -2.851579   -1.397280   -0.195114
  H     -1.378853   -2.316029   -0.292840
  O      1.810145   -0.972456   -1.103741
  C      2.248888   -0.718259   -2.339456
  O      1.781638    0.030874   -3.143522
  C      3.517442   -1.565903   -2.645017
  H      3.338716   -2.632421   -2.521829
  H      4.342143   -1.280819   -1.999464
  H      3.804878   -1.375569   -3.680151

 Total Charge           Charge          ....    0
 Multiplicity           Mult            ....    1
 Number of Electrons    NEL             ....  154
 Basis Dimension        Dim             ....  339

ORBITAL ENERGIES
----------------

  NO   OCC          E(Eh)            E(eV)
   0   2.0000     -19.506614      -530.8020
   1   2.0000     -19.505530      -530.7725
   2   2.0000     -19.472320      -529.8688
   3   2.0000     -19.443961      -529.0971
   4   2.0000     -14.702513      -400.0757
   5   2.0000     -10.582882      -287.9749
   6   2.0000     -10.536140      -286.7029
   7   2.0000     -10.519896      -286.2609
   8   2.0000     -10.501779      -285.7679
   9   2.0000     -10.495677      -285.6019
  10   2.0000     -10.474745      -285.0323
  11   2.0000     -10.473250      -284.9916
  12   2.0000     -10.471060      -284.9320
  13   2.0000     -10.463365      -284.7226
  14   2.0000     -10.462525      -284.6998
  15   2.0000     -10.459546      -284.6187
  16   2.0000     -10.449966      -284.3580
  17   2.0000     -10.412732      -283.3448
  18   2.0000      -3.655596       -99.4738
  19   2.0000      -2.306682       -62.7680
  20   2.0000      -2.298503       -62.5454
  21   2.0000      -2.264896       -61.6310
  22   2.0000      -1.201575       -32.6965
  23   2.0000      -1.150350       -31.3026
  24   2.0000      -1.084031       -29.4980
  25   2.0000      -1.060500       -28.8577
  26   2.0000      -1.053408       -28.6647
  27   2.0000      -0.976727       -26.5781
  28   2.0000      -0.879963       -23.9450
  29   2.0000      -0.855161       -23.2701
  30   2.0000      -0.831316       -22.6213
  31   2.0000      -0.813484       -22.1360
  32   2.0000      -0.796117       -21.6634
  33   2.0000      -0.786299       -21.3963
  34   2.0000      -0.710167       -19.3246
  35   2.0000      -0.690195       -18.7812
  36   2.0000      -0.668669       -18.1954
  37   2.0000      -0.620649       -16.8887
  38   2.0000      -0.592748       -16.1295
  39   2.0000      -0.581314       -15.8184
  40   2.0000      -0.567478       -15.4419
  41   2.0000      -0.563184       -15.3250
  42   2.0000      -0.554553       -15.0901
  43   2.0000      -0.546955       -14.8834
  44   2.0000      -0.543014       -14.7762
  45   2.0000      -0.528017       -14.3681
  46   2.0000      -0.526424       -14.3247
  47   2.0000      -0.518398       -14.1063
  48   2.0000      -0.505472       -13.7546
  49   2.0000      -0.493597       -13.4315
  50   2.0000      -0.487852       -13.2751
  51   2.0000      -0.485452       -13.2098
  52   2.0000      -0.473620       -12.8879
  53   2.0000      -0.463633       -12.6161
  54   2.0000      -0.462440       -12.5836
  55   2.0000      -0.455894       -12.4055
  56   2.0000      -0.451931       -12.2977
  57   2.0000      -0.449068       -12.2198
  58   2.0000      -0.435619       -11.8538
  59   2.0000      -0.429607       -11.6902
  60   2.0000      -0.428340       -11.6557
  61   2.0000      -0.419761       -11.4223
  62   2.0000      -0.417124       -11.3505
  63   2.0000      -0.411058       -11.1855
  64   2.0000      -0.384693       -10.4680
  65   2.0000      -0.378130       -10.2894
  66   2.0000      -0.362179        -9.8554
  67   2.0000      -0.353887        -9.6298
  68   2.0000      -0.341495        -9.2926
  69   2.0000      -0.332921        -9.0592
  70   2.0000      -0.316688        -8.6175
  71   2.0000      -0.310561        -8.4508
  72   2.0000      -0.304296        -8.2803
  73   2.0000      -0.298980        -8.1357
  74   2.0000      -0.296289        -8.0624
  75   2.0000      -0.290683        -7.9099
  76   2.0000      -0.275929        -7.5084
  77   0.0000      -0.079246        -2.1564
  78   0.0000      -0.048819        -1.3284
  79   0.0000      -0.013318        -0.3624
  80   0.0000       0.003749         0.1020
  81   0.0000       0.036233         0.9859

MULLIKEN ATOMIC CHARGES
-----------------------
   0 Pd:    0.531567
   1 O :   -0.531484
   2 C :    0.652892
   3 O :   -0.455220
   4 C :   -0.760712
   5 H :    0.250085
   6 H :    0.265872
   7 H :    0.261281
   8 N :   -0.462438
   9 C :   -0.513370
  10 H :    0.280396
  11 H :    0.209070
  12 H :    0.262421
  13 C :   -0.524384
  14 H :    0.280029
  15 H :    0.214593
  16 H :    0.265996
  17 C :   -0.020897
  18 C :   -0.250341
  19 C :   -0.185123
  20 C :   -0.236944
  21 C :   -0.213182
  22 C :   -0.073656
  23 H :    0.233314
  24 H :    0.248922
  25 H :    0.261008
  26 H :    0.229694
  27 H :    0.059108
  28 C :   -0.322709
  29 H :    0.240445
  30 H :    0.258295
  31 O :   -0.560192
  32 C :    0.560674
  33 O :   -0.420157
  34 C :   -0.739511
  35 H :    0.229619
  36 H :    0.245103
  37 H :    0.229936
Sum of atomic charges:   -0.0000000

LOEWDIN ATOMIC CHARGES
----------------------
   0 Pd:   -0.263319
   1 O :   -0.164857
   2 C :    0.218893
   3 O :   -0.160098
   4 C :   -0.377515
   5 H :    0.152973
   6 H :    0.166232
   7 H :    0.156204
   8 N :   -0.090462
   9 C :   -0.236114
  10 H :    0.156532
  11 H :    0.114985
  12 H :    0.148168
  13 C :   -0.236164
  14 H :    0.158626
  15 H :    0.117594
  16 H :    0.151471
  17 C :   -0.058789
  18 C :   -0.095204
  19 C :   -0.129534
  20 C :   -0.126807
  21 C :   -0.153576
  22 C :   -0.036506
  23 H :    0.143134
  24 H :    0.149967
  25 H :    0.159067
  26 H :    0.145094
  27 H :    0.063685
  28 C :   -0.105889
  29 H :    0.134235
  30 H :    0.149710
  31 O :   -0.216718
  32 C :    0.144084
  33 O :   -0.216622
  34 C :   -0.388932
  35 H :    0.141101
  36 H :    0.148811
  37 H :    0.136542

  Mayer bond orders larger than 0.100000
B(  0-Pd,  1-O ) :   0.6743 B(  0-Pd,  3-O ) :   0.3727 B(  0-Pd,  8-N ) :   0.3563
B(  0-Pd, 31-O ) :   0.6839 B(  0-Pd, 33-O ) :   0.1006 B(  1-O ,  2-C ) :   1.2547
B(  1-O ,  3-O ) :   0.1023 B(  2-C ,  3-O ) :   1.6465 B(  2-C ,  4-C ) :   0.9517
B(  4-C ,  5-H ) :   0.9080 B(  4-C ,  6-H ) :   0.9003 B(  4-C ,  7-H ) :   0.9060
B(  8-N ,  9-C ) :   0.9306 B(  8-N , 13-C ) :   0.9283 B(  8-N , 28-C ) :   0.9038
B(  9-C , 10-H ) :   0.8970 B(  9-C , 11-H ) :   0.9053 B(  9-C , 12-H ) :   0.9078
B( 13-C , 14-H ) :   0.8876 B( 13-C , 15-H ) :   0.9065 B( 13-C , 16-H ) :   0.9032
B( 17-C , 18-C ) :   1.3979 B( 17-C , 22-C ) :   1.3874 B( 17-C , 28-C ) :   0.9564
B( 18-C , 19-C ) :   1.4120 B( 18-C , 25-H ) :   0.8965 B( 19-C , 20-C ) :   1.4362
B( 19-C , 26-H ) :   0.9164 B( 20-C , 21-C ) :   1.3752 B( 20-C , 23-H ) :   0.9118
B( 21-C , 22-C ) :   1.4709 B( 21-C , 24-H ) :   0.9050 B( 22-C , 27-H ) :   0.8599
B( 28-C , 29-H ) :   0.8948 B( 28-C , 30-H ) :   0.9111 B( 31-O , 32-C ) :   1.2051
B( 31-O , 33-O ) :   0.1003 B( 32-C , 33-O ) :   1.9225 B( 32-C , 34-C ) :   0.9215
B( 34-C , 35-H ) :   0.9182 B( 34-C , 36-H ) :   0.9129 B( 34-C , 37-H ) :   0.9212

Dispersion correction           -0.025783579
FINAL SINGLE POINT ENERGY      -988.344410844005
Dispersion correction            ... done

DIPOLE MOMENT
-------------
                                X             Y             Z
Electronic contribution:     31.26804      27.31018     -23.08718
Nuclear contribution   :    -32.65402     -27.64631      24.15395
                        -----------------------------------------
Total Dipole Moment    :     -1.38598      -0.33613       1.06677
                        -----------------------------------------
Magnitude (a.u.)       :      1.78099
Magnitude (Debye)      :      4.52690

Rotational constants in cm-1:     0.013311     0.008226     0.006965
Rotational constants in MHz :   399.039734   246.605600   208.801442

                             ****ORCA TERMINATED NORMALLY****
TOTAL RUN TIME: 0 days 0 hours 19 minutes 41 seconds 359 msec
