                         Program Version 5.0.3 -  RELEASE  -
|  1> ! EnGrad PBEh-3c
|  2> %output
|  3> xyzfile=True
|  4> end
|  5> %scf
|  6> maxiter 250
|  7> end
|  8> %output
|  9> Print[P_Hirshfeld] = 1
| 10> end
| 11> % maxcore
| 12> 4000
| 13> *xyz 0 1
| 14> Pd   0.64721814   0.54766742  -0.49012366
| 15> O    2.17362063   1.47852085   0.36208384
| 16> C    1.63132183   2.68449472   0.28374950
| 17> O    0.47061337   2.77105944  -0.08767565
| 18> C    2.50647496   3.89624456   0.56339682
| 19> H    1.89782148   4.66529820   1.03747878
| 20> H    2.86795818   4.29704471  -0.38451121
| 21> H    3.36485313   3.66844524   1.18798167
| 22> N   -1.26344542  -0.38779830  -1.19784314
| 23> C   -1.26303623  -1.11332390  -2.47271732
| 24> H   -0.93630579  -0.44506636  -3.25494808
| 25> H   -2.29140955  -1.42072221  -2.68814337
| 26> H   -0.62837459  -1.98211566  -2.44723225
| 27> C   -2.16310737   0.76482676  -1.32847434
| 28> H   -2.18485274   1.37414527  -0.44006922
| 29> H   -3.17453932   0.40290285  -1.54506619
| 30> H   -1.81454280   1.35792858  -2.16470818
| 31> C   -1.43645824  -0.91184798   1.30791177
| 32> C   -0.50944722  -1.73636944   2.02703669
| 33> C   -0.33438388  -1.61323791   3.38704824
| 34> C   -1.23450473  -0.87891537   4.10588929
| 35> C   -2.24930932  -0.17135500   3.45935822
| 36> C   -2.22773425  -0.04055296   2.11650801
| 37> H   -1.13454587  -0.75529599   5.18015584
| 38> H   -3.11442532   0.09602092   4.02106562
| 39> H    0.10855455  -2.45447562   1.49851775
| 40> H    0.37497236  -2.23496725   3.91208334
| 41> H   -2.98707468   1.93249319   2.03419523
| 42> C   -1.74005823  -1.31356153  -0.11219786
| 43> H   -2.82787749  -1.42487485  -0.19535171
| 44> H   -1.34288852  -2.31497907  -0.31811266
| 45> O    1.79325096  -0.95764475  -1.09567782
| 46> C    2.26200328  -0.74901501  -2.31819291
| 47> O    1.81188666   0.01649370  -3.13326083
| 48> C    3.50299052  -1.60908993  -2.63641033
| 49> H    3.31228155  -2.66720038  -2.49786417
| 50> H    4.32998302  -1.32608513  -2.00130949
| 51> H    3.80701754  -1.44332368  -3.67435218
| 52> *
| 53>
| 54>                          ****END OF INPUT****

CARTESIAN COORDINATES (ANGSTROEM)
---------------------------------
  Pd     0.647218    0.547667   -0.490124
  O      2.173621    1.478521    0.362084
  C      1.631322    2.684495    0.283749
  O      0.470613    2.771059   -0.087676
  C      2.506475    3.896245    0.563397
  H      1.897821    4.665298    1.037479
  H      2.867958    4.297045   -0.384511
  H      3.364853    3.668445    1.187982
  N     -1.263445   -0.387798   -1.197843
  C     -1.263036   -1.113324   -2.472717
  H     -0.936306   -0.445066   -3.254948
  H     -2.291410   -1.420722   -2.688143
  H     -0.628375   -1.982116   -2.447232
  C     -2.163107    0.764827   -1.328474
  H     -2.184853    1.374145   -0.440069
  H     -3.174539    0.402903   -1.545066
  H     -1.814543    1.357929   -2.164708
  C     -1.436458   -0.911848    1.307912
  C     -0.509447   -1.736369    2.027037
  C     -0.334384   -1.613238    3.387048
  C     -1.234505   -0.878915    4.105889
  C     -2.249309   -0.171355    3.459358
  C     -2.227734   -0.040553    2.116508
  H     -1.134546   -0.755296    5.180156
  H     -3.114425    0.096021    4.021066
  H      0.108555   -2.454476    1.498518
  H      0.374972   -2.234967    3.912083
  H     -2.987075    1.932493    2.034195
  C     -1.740058   -1.313562   -0.112198
  H     -2.827877   -1.424875   -0.195352
  H     -1.342889   -2.314979   -0.318113
  O      1.793251   -0.957645   -1.095678
  C      2.262003   -0.749015   -2.318193
  O      1.811887    0.016494   -3.133261
  C      3.502991   -1.609090   -2.636410
  H      3.312282   -2.667200   -2.497864
  H      4.329983   -1.326085   -2.001309
  H      3.807018   -1.443324   -3.674352

 Total Charge           Charge          ....    0
 Multiplicity           Mult            ....    1
 Number of Electrons    NEL             ....  154
 Basis Dimension        Dim             ....  339

ORBITAL ENERGIES
----------------

  NO   OCC          E(Eh)            E(eV)
   0   2.0000     -19.496793      -530.5347
   1   2.0000     -19.495740      -530.5060
   2   2.0000     -19.475642      -529.9592
   3   2.0000     -19.439046      -528.9633
   4   2.0000     -14.712290      -400.3418
   5   2.0000     -10.571746      -287.6718
   6   2.0000     -10.535627      -286.6890
   7   2.0000     -10.522291      -286.3261
   8   2.0000     -10.505221      -285.8616
   9   2.0000     -10.496811      -285.6328
  10   2.0000     -10.476383      -285.0769
  11   2.0000     -10.473632      -285.0020
  12   2.0000     -10.472149      -284.9617
  13   2.0000     -10.465059      -284.7687
  14   2.0000     -10.464375      -284.7501
  15   2.0000     -10.458901      -284.6012
  16   2.0000     -10.441717      -284.1336
  17   2.0000     -10.414070      -283.3813
  18   2.0000      -3.656293       -99.4928
  19   2.0000      -2.305205       -62.7278
  20   2.0000      -2.300418       -62.5976
  21   2.0000      -2.265395       -61.6445
  22   2.0000      -1.197411       -32.5832
  23   2.0000      -1.147494       -31.2249
  24   2.0000      -1.077145       -29.3106
  25   2.0000      -1.068964       -29.0880
  26   2.0000      -1.053002       -28.6536
  27   2.0000      -0.981071       -26.6963
  28   2.0000      -0.885331       -24.0911
  29   2.0000      -0.857341       -23.3294
  30   2.0000      -0.826304       -22.4849
  31   2.0000      -0.817506       -22.2455
  32   2.0000      -0.800836       -21.7919
  33   2.0000      -0.791113       -21.5273
  34   2.0000      -0.716761       -19.5041
  35   2.0000      -0.692570       -18.8458
  36   2.0000      -0.671842       -18.2818
  37   2.0000      -0.610868       -16.6226
  38   2.0000      -0.595567       -16.2062
  39   2.0000      -0.584971       -15.9179
  40   2.0000      -0.573731       -15.6120
  41   2.0000      -0.569421       -15.4947
  42   2.0000      -0.553010       -15.0482
  43   2.0000      -0.545257       -14.8372
  44   2.0000      -0.536062       -14.5870
  45   2.0000      -0.531938       -14.4748
  46   2.0000      -0.521987       -14.2040
  47   2.0000      -0.521709       -14.1964
  48   2.0000      -0.506949       -13.7948
  49   2.0000      -0.493394       -13.4259
  50   2.0000      -0.490170       -13.3382
  51   2.0000      -0.488288       -13.2870
  52   2.0000      -0.476253       -12.9595
  53   2.0000      -0.465941       -12.6789
  54   2.0000      -0.458351       -12.4724
  55   2.0000      -0.457115       -12.4387
  56   2.0000      -0.448947       -12.2165
  57   2.0000      -0.445556       -12.1242
  58   2.0000      -0.439558       -11.9610
  59   2.0000      -0.433025       -11.7832
  60   2.0000      -0.429441       -11.6857
  61   2.0000      -0.422024       -11.4839
  62   2.0000      -0.418917       -11.3993
  63   2.0000      -0.405221       -11.0266
  64   2.0000      -0.378322       -10.2947
  65   2.0000      -0.374951       -10.2029
  66   2.0000      -0.359783        -9.7902
  67   2.0000      -0.351469        -9.5640
  68   2.0000      -0.344423        -9.3722
  69   2.0000      -0.335180        -9.1207
  70   2.0000      -0.317413        -8.6372
  71   2.0000      -0.312238        -8.4964
  72   2.0000      -0.305289        -8.3073
  73   2.0000      -0.297316        -8.0904
  74   2.0000      -0.292546        -7.9606
  75   2.0000      -0.289600        -7.8804
  76   2.0000      -0.274871        -7.4796
  77   0.0000      -0.094294        -2.5659
  78   0.0000      -0.054442        -1.4814
  79   0.0000      -0.015160        -0.4125
  80   0.0000       0.003090         0.0841
  81   0.0000       0.048337         1.3153

MULLIKEN ATOMIC CHARGES
-----------------------
   0 Pd:    0.518763
   1 O :   -0.518350
   2 C :    0.647879
   3 O :   -0.458500
   4 C :   -0.761014
   5 H :    0.247533
   6 H :    0.262228
   7 H :    0.258304
   8 N :   -0.468741
   9 C :   -0.519350
  10 H :    0.284815
  11 H :    0.212108
  12 H :    0.265757
  13 C :   -0.536839
  14 H :    0.288447
  15 H :    0.219872
  16 H :    0.272006
  17 C :   -0.028295
  18 C :   -0.243907
  19 C :   -0.184806
  20 C :   -0.237788
  21 C :   -0.217662
  22 C :   -0.056520
  23 H :    0.236776
  24 H :    0.250402
  25 H :    0.258597
  26 H :    0.231751
  27 H :    0.046111
  28 C :   -0.323437
  29 H :    0.245067
  30 H :    0.264140
  31 O :   -0.555869
  32 C :    0.563670
  33 O :   -0.434765
  34 C :   -0.740277
  35 H :    0.229782
  36 H :    0.247469
  37 H :    0.234642
Sum of atomic charges:   -0.0000000

LOEWDIN ATOMIC CHARGES
----------------------
   0 Pd:   -0.262636
   1 O :   -0.174259
   2 C :    0.197191
   3 O :   -0.163730
   4 C :   -0.378668
   5 H :    0.151795
   6 H :    0.164097
   7 H :    0.154022
   8 N :   -0.072288
   9 C :   -0.235781
  10 H :    0.158578
  11 H :    0.116587
  12 H :    0.147295
  13 C :   -0.237264
  14 H :    0.159416
  15 H :    0.120579
  16 H :    0.153786
  17 C :   -0.061609
  18 C :   -0.095390
  19 C :   -0.131609
  20 C :   -0.124446
  21 C :   -0.150072
  22 C :   -0.022974
  23 H :    0.144024
  24 H :    0.150185
  25 H :    0.159146
  26 H :    0.145673
  27 H :    0.050220
  28 C :   -0.103699
  29 H :    0.137765
  30 H :    0.152676
  31 O :   -0.204303
  32 C :    0.143746
  33 O :   -0.232371
  34 C :   -0.386172
  35 H :    0.140953
  36 H :    0.149993
  37 H :    0.139544

  Mayer bond orders larger than 0.100000
B(  0-Pd,  1-O ) :   0.6519 B(  0-Pd,  3-O ) :   0.3758 B(  0-Pd,  8-N ) :   0.3806
B(  0-Pd, 31-O ) :   0.6828 B(  0-Pd, 33-O ) :   0.1037 B(  1-O ,  2-C ) :   1.2893
B(  1-O ,  3-O ) :   0.1010 B(  2-C ,  3-O ) :   1.6431 B(  2-C ,  4-C ) :   0.9506
B(  4-C ,  5-H ) :   0.9102 B(  4-C ,  6-H ) :   0.9027 B(  4-C ,  7-H ) :   0.9077
B(  8-N ,  9-C ) :   0.9285 B(  8-N , 13-C ) :   0.9246 B(  8-N , 28-C ) :   0.8997
B(  9-C , 10-H ) :   0.8955 B(  9-C , 11-H ) :   0.9044 B(  9-C , 12-H ) :   0.9065
B( 13-C , 14-H ) :   0.8835 B( 13-C , 15-H ) :   0.9058 B( 13-C , 16-H ) :   0.9003
B( 17-C , 18-C ) :   1.4003 B( 17-C , 22-C ) :   1.3938 B( 17-C , 28-C ) :   0.9571
B( 18-C , 19-C ) :   1.4211 B( 18-C , 25-H ) :   0.8967 B( 19-C , 20-C ) :   1.4420
B( 19-C , 26-H ) :   0.9145 B( 20-C , 21-C ) :   1.3778 B( 20-C , 23-H ) :   0.9100
B( 21-C , 22-C ) :   1.4798 B( 21-C , 24-H ) :   0.9047 B( 22-C , 27-H ) :   0.8459
B( 28-C , 29-H ) :   0.8953 B( 28-C , 30-H ) :   0.9092 B( 31-O , 32-C ) :   1.2153
B( 31-O , 33-O ) :   0.1002 B( 32-C , 33-O ) :   1.9028 B( 32-C , 34-C ) :   0.9278
B( 34-C , 35-H ) :   0.9172 B( 34-C , 36-H ) :   0.9111 B( 34-C , 37-H ) :   0.9211

Dispersion correction           -0.025817093
FINAL SINGLE POINT ENERGY      -988.338355833393
Dispersion correction            ... done

DIPOLE MOMENT
-------------
                                X             Y             Z
Electronic contribution:     28.77061      26.71274     -24.27000
Nuclear contribution   :    -30.33647     -27.30978      25.29685
                        -----------------------------------------
Total Dipole Moment    :     -1.56586      -0.59704       1.02684
                        -----------------------------------------
Magnitude (a.u.)       :      1.96540
Magnitude (Debye)      :      4.99564

Rotational constants in cm-1:     0.013287     0.008253     0.006988
Rotational constants in MHz :   398.339013   247.419442   209.501982

                             ****ORCA TERMINATED NORMALLY****
TOTAL RUN TIME: 0 days 0 hours 19 minutes 15 seconds 389 msec
