                         Program Version 5.0.3 -  RELEASE  -
|  1> ! EnGrad PBEh-3c
|  2> %output
|  3> xyzfile=True
|  4> end
|  5> %scf
|  6> maxiter 250
|  7> end
|  8> %output
|  9> Print[P_Hirshfeld] = 1
| 10> end
| 11> % maxcore
| 12> 4000
| 13> *xyz 0 1
| 14> Pd   0.63449023   0.54572196  -0.49663563
| 15> O    2.18014672   1.48810754   0.36654315
| 16> C    1.63687257   2.68777815   0.28124576
| 17> O    0.47733912   2.77329857  -0.08553981
| 18> C    2.50327442   3.90285835   0.56286798
| 19> H    1.89126447   4.66792908   1.03869447
| 20> H    2.86211261   4.30332666  -0.38453402
| 21> H    3.36104468   3.67645823   1.18649215
| 22> N   -1.25623384  -0.38386579  -1.19356796
| 23> C   -1.26357864  -1.09913665  -2.47375407
| 24> H   -0.94042263  -0.43102004  -3.25879247
| 25> H   -2.29168404  -1.40960992  -2.69401411
| 26> H   -0.63342969  -1.96789837  -2.45951165
| 27> C   -2.15918002   0.76528250  -1.32443871
| 28> H   -2.17946576   1.37405199  -0.44049732
| 29> H   -3.17509389   0.41038898  -1.53600437
| 30> H   -1.81683734   1.36912246  -2.15590435
| 31> C   -1.43493500  -0.92024002   1.30246138
| 32> C   -0.49576823  -1.72796182   2.02544637
| 33> C   -0.33254171  -1.61137694   3.38614456
| 34> C   -1.22750463  -0.87020105   4.10218380
| 35> C   -2.26369020  -0.19708715   3.44887539
| 36> C   -2.22930148  -0.05304260   2.11030084
| 37> H   -1.13142175  -0.75547262   5.17993885
| 38> H   -3.12930661   0.05421086   4.02176335
| 39> H    0.12481665  -2.44354727   1.50072093
| 40> H    0.38678369  -2.22450238   3.90999334
| 41> H   -3.02087956   1.94723128   2.04982030
| 42> C   -1.73293289  -1.31744908  -0.11513849
| 43> H   -2.82060141  -1.43334619  -0.19542471
| 44> H   -1.33184806  -2.31465682  -0.32587111
| 45> O    1.78806470  -0.95309781  -1.09320266
| 46> C    2.26602943  -0.75845662  -2.31166555
| 47> O    1.82117262   0.01207925  -3.13011083
| 48> C    3.49855420  -1.62234759  -2.63376814
| 49> H    3.30416650  -2.67787715  -2.49050736
| 50> H    4.32625005  -1.33998105  -2.00187588
| 51> H    3.80767445  -1.46412337  -3.67257191
| 52> *
| 53>
| 54>                          ****END OF INPUT****

CARTESIAN COORDINATES (ANGSTROEM)
---------------------------------
  Pd     0.634490    0.545722   -0.496636
  O      2.180147    1.488108    0.366543
  C      1.636873    2.687778    0.281246
  O      0.477339    2.773299   -0.085540
  C      2.503274    3.902858    0.562868
  H      1.891264    4.667929    1.038694
  H      2.862113    4.303327   -0.384534
  H      3.361045    3.676458    1.186492
  N     -1.256234   -0.383866   -1.193568
  C     -1.263579   -1.099137   -2.473754
  H     -0.940423   -0.431020   -3.258792
  H     -2.291684   -1.409610   -2.694014
  H     -0.633430   -1.967898   -2.459512
  C     -2.159180    0.765282   -1.324439
  H     -2.179466    1.374052   -0.440497
  H     -3.175094    0.410389   -1.536004
  H     -1.816837    1.369122   -2.155904
  C     -1.434935   -0.920240    1.302461
  C     -0.495768   -1.727962    2.025446
  C     -0.332542   -1.611377    3.386145
  C     -1.227505   -0.870201    4.102184
  C     -2.263690   -0.197087    3.448875
  C     -2.229301   -0.053043    2.110301
  H     -1.131422   -0.755473    5.179939
  H     -3.129307    0.054211    4.021763
  H      0.124817   -2.443547    1.500721
  H      0.386784   -2.224502    3.909993
  H     -3.020880    1.947231    2.049820
  C     -1.732933   -1.317449   -0.115138
  H     -2.820601   -1.433346   -0.195425
  H     -1.331848   -2.314657   -0.325871
  O      1.788065   -0.953098   -1.093203
  C      2.266029   -0.758457   -2.311666
  O      1.821173    0.012079   -3.130111
  C      3.498554   -1.622348   -2.633768
  H      3.304167   -2.677877   -2.490507
  H      4.326250   -1.339981   -2.001876
  H      3.807674   -1.464123   -3.672572

 Total Charge           Charge          ....    0
 Multiplicity           Mult            ....    1
 Number of Electrons    NEL             ....  154
 Basis Dimension        Dim             ....  339

ORBITAL ENERGIES
----------------

  NO   OCC          E(Eh)            E(eV)
   0   2.0000     -19.493715      -530.4509
   1   2.0000     -19.492698      -530.4233
   2   2.0000     -19.476594      -529.9851
   3   2.0000     -19.437619      -528.9245
   4   2.0000     -14.715282      -400.4232
   5   2.0000     -10.568300      -287.5781
   6   2.0000     -10.535561      -286.6872
   7   2.0000     -10.523034      -286.3463
   8   2.0000     -10.506335      -285.8919
   9   2.0000     -10.497292      -285.6458
  10   2.0000     -10.476978      -285.0931
  11   2.0000     -10.474500      -285.0256
  12   2.0000     -10.471964      -284.9566
  13   2.0000     -10.466041      -284.7955
  14   2.0000     -10.465459      -284.7796
  15   2.0000     -10.458924      -284.6018
  16   2.0000     -10.439172      -284.0643
  17   2.0000     -10.414559      -283.3946
  18   2.0000      -3.656691       -99.5036
  19   2.0000      -2.305134       -62.7259
  20   2.0000      -2.301103       -62.6162
  21   2.0000      -2.265742       -61.6540
  22   2.0000      -1.196151       -32.5489
  23   2.0000      -1.146836       -31.2070
  24   2.0000      -1.075361       -29.2621
  25   2.0000      -1.071423       -29.1549
  26   2.0000      -1.052452       -28.6387
  27   2.0000      -0.982281       -26.7292
  28   2.0000      -0.886930       -24.1346
  29   2.0000      -0.858013       -23.3477
  30   2.0000      -0.824728       -22.4420
  31   2.0000      -0.818753       -22.2794
  32   2.0000      -0.802189       -21.8287
  33   2.0000      -0.792601       -21.5678
  34   2.0000      -0.718898       -19.5622
  35   2.0000      -0.693244       -18.8641
  36   2.0000      -0.672648       -18.3037
  37   2.0000      -0.608239       -16.5510
  38   2.0000      -0.596283       -16.2257
  39   2.0000      -0.586052       -15.9473
  40   2.0000      -0.575719       -15.6661
  41   2.0000      -0.571333       -15.5468
  42   2.0000      -0.554491       -15.0885
  43   2.0000      -0.542859       -14.7720
  44   2.0000      -0.534225       -14.5370
  45   2.0000      -0.532950       -14.5023
  46   2.0000      -0.522555       -14.2195
  47   2.0000      -0.520632       -14.1671
  48   2.0000      -0.507480       -13.8092
  49   2.0000      -0.493526       -13.4295
  50   2.0000      -0.491346       -13.3702
  51   2.0000      -0.488431       -13.2909
  52   2.0000      -0.477074       -12.9818
  53   2.0000      -0.466836       -12.7033
  54   2.0000      -0.457983       -12.4624
  55   2.0000      -0.456249       -12.4152
  56   2.0000      -0.448634       -12.2080
  57   2.0000      -0.444027       -12.0826
  58   2.0000      -0.440482       -11.9861
  59   2.0000      -0.434226       -11.8159
  60   2.0000      -0.429606       -11.6902
  61   2.0000      -0.423479       -11.5234
  62   2.0000      -0.419264       -11.4087
  63   2.0000      -0.404031       -10.9943
  64   2.0000      -0.377795       -10.2803
  65   2.0000      -0.373918       -10.1748
  66   2.0000      -0.358775        -9.7628
  67   2.0000      -0.350510        -9.5379
  68   2.0000      -0.344805        -9.3826
  69   2.0000      -0.335374        -9.1260
  70   2.0000      -0.317617        -8.6428
  71   2.0000      -0.312546        -8.5048
  72   2.0000      -0.305583        -8.3153
  73   2.0000      -0.296702        -8.0737
  74   2.0000      -0.292536        -7.9603
  75   2.0000      -0.287462        -7.8222
  76   2.0000      -0.274457        -7.4684
  77   0.0000      -0.098599        -2.6830
  78   0.0000      -0.056071        -1.5258
  79   0.0000      -0.016141        -0.4392
  80   0.0000       0.002683         0.0730
  81   0.0000       0.051814         1.4099

MULLIKEN ATOMIC CHARGES
-----------------------
   0 Pd:    0.516654
   1 O :   -0.514854
   2 C :    0.645524
   3 O :   -0.459417
   4 C :   -0.761045
   5 H :    0.246745
   6 H :    0.261074
   7 H :    0.257358
   8 N :   -0.471392
   9 C :   -0.521283
  10 H :    0.286237
  11 H :    0.213131
  12 H :    0.266811
  13 C :   -0.540999
  14 H :    0.291144
  15 H :    0.221625
  16 H :    0.273980
  17 C :   -0.030768
  18 C :   -0.240036
  19 C :   -0.186260
  20 C :   -0.236998
  21 C :   -0.220159
  22 C :   -0.051269
  23 H :    0.237715
  24 H :    0.251160
  25 H :    0.257411
  26 H :    0.232965
  27 H :    0.041642
  28 C :   -0.323361
  29 H :    0.246467
  30 H :    0.265904
  31 O :   -0.554778
  32 C :    0.564507
  33 O :   -0.439104
  34 C :   -0.740426
  35 H :    0.229829
  36 H :    0.248205
  37 H :    0.236059
Sum of atomic charges:    0.0000000

LOEWDIN ATOMIC CHARGES
----------------------
   0 Pd:   -0.261762
   1 O :   -0.177178
   2 C :    0.190270
   3 O :   -0.164897
   4 C :   -0.379017
   5 H :    0.151428
   6 H :    0.163424
   7 H :    0.153341
   8 N :   -0.066980
   9 C :   -0.235715
  10 H :    0.159243
  11 H :    0.117149
  12 H :    0.147054
  13 C :   -0.237722
  14 H :    0.159682
  15 H :    0.121584
  16 H :    0.154605
  17 C :   -0.062428
  18 C :   -0.095461
  19 C :   -0.132216
  20 C :   -0.123568
  21 C :   -0.148592
  22 C :   -0.018921
  23 H :    0.144271
  24 H :    0.150419
  25 H :    0.159160
  26 H :    0.145869
  27 H :    0.045412
  28 C :   -0.103077
  29 H :    0.138863
  30 H :    0.153591
  31 O :   -0.200975
  32 C :    0.143909
  33 O :   -0.237150
  34 C :   -0.385363
  35 H :    0.140910
  36 H :    0.150370
  37 H :    0.140470

  Mayer bond orders larger than 0.100000
B(  0-Pd,  1-O ) :   0.6442 B(  0-Pd,  3-O ) :   0.3764 B(  0-Pd,  8-N ) :   0.3878
B(  0-Pd, 31-O ) :   0.6823 B(  0-Pd, 33-O ) :   0.1047 B(  1-O ,  2-C ) :   1.3004
B(  1-O ,  3-O ) :   0.1007 B(  2-C ,  3-O ) :   1.6422 B(  2-C ,  4-C ) :   0.9502
B(  4-C ,  5-H ) :   0.9109 B(  4-C ,  6-H ) :   0.9034 B(  4-C ,  7-H ) :   0.9082
B(  8-N ,  9-C ) :   0.9276 B(  8-N , 13-C ) :   0.9234 B(  8-N , 28-C ) :   0.8984
B(  9-C , 10-H ) :   0.8950 B(  9-C , 11-H ) :   0.9042 B(  9-C , 12-H ) :   0.9061
B( 13-C , 14-H ) :   0.8821 B( 13-C , 15-H ) :   0.9055 B( 13-C , 16-H ) :   0.8994
B( 17-C , 18-C ) :   1.4007 B( 17-C , 22-C ) :   1.3943 B( 17-C , 28-C ) :   0.9575
B( 18-C , 19-C ) :   1.4232 B( 18-C , 25-H ) :   0.8970 B( 19-C , 20-C ) :   1.4442
B( 19-C , 26-H ) :   0.9135 B( 20-C , 21-C ) :   1.3768 B( 20-C , 23-H ) :   0.9094
B( 21-C , 22-C ) :   1.4829 B( 21-C , 24-H ) :   0.9043 B( 22-C , 27-H ) :   0.8411
B( 28-C , 29-H ) :   0.8953 B( 28-C , 30-H ) :   0.9085 B( 31-O , 32-C ) :   1.2180
B( 31-O , 33-O ) :   0.1001 B( 32-C , 33-O ) :   1.8967 B( 32-C , 34-C ) :   0.9298
B( 34-C , 35-H ) :   0.9169 B( 34-C , 36-H ) :   0.9105 B( 34-C , 37-H ) :   0.9211

Dispersion correction           -0.025828706
FINAL SINGLE POINT ENERGY      -988.333524449681
Dispersion correction            ... done

DIPOLE MOMENT
-------------
                                X             Y             Z
Electronic contribution:     28.00505      26.52495     -24.63377
Nuclear contribution   :    -29.62502     -27.20647      25.64770
                        -----------------------------------------
Total Dipole Moment    :     -1.61997      -0.68152       1.01393
                        -----------------------------------------
Magnitude (a.u.)       :      2.02900
Magnitude (Debye)      :      5.15731

Rotational constants in cm-1:     0.013278     0.008261     0.006995
Rotational constants in MHz :   398.054557   247.656339   209.701170

                             ****ORCA TERMINATED NORMALLY****
TOTAL RUN TIME: 0 days 0 hours 19 minutes 55 seconds 854 msec
