                         Program Version 5.0.3 -  RELEASE  -
|  1> ! EnGrad PBEh-3c
|  2> %output
|  3> xyzfile=True
|  4> end
|  5> %scf
|  6> maxiter 250
|  7> end
|  8> %output
|  9> Print[P_Hirshfeld] = 1
| 10> end
| 11> % maxcore
| 12> 4000
| 13> *xyz 0 1
| 14> Pd   0.64289065   0.54700596  -0.49233773
| 15> O    2.17583950   1.48178032   0.36360000
| 16> C    1.63320908   2.68561109   0.28289822
| 17> O    0.47290012   2.77182074  -0.08694946
| 18> C    2.50538677   3.89849325   0.56321702
| 19> H    1.89559209   4.66619270   1.03789211
| 20> H    2.86597069   4.29918057  -0.38451897
| 21> H    3.36355826   3.67116965   1.18747523
| 22> N   -1.26099349  -0.38646125  -1.19638958
| 23> C   -1.26322065  -1.10850024  -2.47306982
| 24> H   -0.93770552  -0.44029061  -3.25625517
| 25> H   -2.29150288  -1.41694403  -2.69013942
| 26> H   -0.63009333  -1.97728178  -2.45140725
| 27> C   -2.16177207   0.76498171  -1.32710223
| 28> H   -2.18302117   1.37411355  -0.44021477
| 29> H   -3.17472787   0.40544813  -1.54198517
| 30> H   -1.81532295   1.36173450  -2.16171488
| 31> C   -1.43594034  -0.91470127   1.30605864
| 32> C   -0.50479636  -1.73351085   2.02649598
| 33> C   -0.33375754  -1.61260518   3.38674099
| 34> C   -1.23212469  -0.87595250   4.10462942
| 35> C   -2.25419882  -0.18010393   3.45579405
| 36> C   -2.22826711  -0.04479944   2.11439757
| 37> H   -1.13348367  -0.75535604   5.18008206
| 38> H   -3.11948496   0.08180550   4.02130285
| 39> H    0.11408366  -2.45075998   1.49926683
| 40> H    0.37898822  -2.23140920   3.91137274
| 41> H   -2.99856834   1.93750414   2.03950775
| 42> C   -1.73763562  -1.31488330  -0.11319767
| 43> H   -2.82540362  -1.42775510  -0.19537653
| 44> H   -1.33913477  -2.31486951  -0.32075053
| 45> O    1.79148763  -0.95609879  -1.09483627
| 46> C    2.26337217  -0.75222516  -2.31597361
| 47> O    1.81504389   0.01499279  -3.13218983
| 48> C    3.50148217  -1.61359753  -2.63551199
| 49> H    3.30952243  -2.67083048  -2.49536285
| 50> H    4.32871381  -1.33080974  -2.00150206
| 51> H    3.80724089  -1.45039557  -3.67374689
| 52> *
| 53>
| 54>                          ****END OF INPUT****

CARTESIAN COORDINATES (ANGSTROEM)
---------------------------------
  Pd     0.642891    0.547006   -0.492338
  O      2.175839    1.481780    0.363600
  C      1.633209    2.685611    0.282898
  O      0.472900    2.771821   -0.086949
  C      2.505387    3.898493    0.563217
  H      1.895592    4.666193    1.037892
  H      2.865971    4.299181   -0.384519
  H      3.363558    3.671170    1.187475
  N     -1.260993   -0.386461   -1.196390
  C     -1.263221   -1.108500   -2.473070
  H     -0.937706   -0.440291   -3.256255
  H     -2.291503   -1.416944   -2.690139
  H     -0.630093   -1.977282   -2.451407
  C     -2.161772    0.764982   -1.327102
  H     -2.183021    1.374114   -0.440215
  H     -3.174728    0.405448   -1.541985
  H     -1.815323    1.361735   -2.161715
  C     -1.435940   -0.914701    1.306059
  C     -0.504796   -1.733511    2.026496
  C     -0.333758   -1.612605    3.386741
  C     -1.232125   -0.875953    4.104629
  C     -2.254199   -0.180104    3.455794
  C     -2.228267   -0.044799    2.114398
  H     -1.133484   -0.755356    5.180082
  H     -3.119485    0.081806    4.021303
  H      0.114084   -2.450760    1.499267
  H      0.378988   -2.231409    3.911373
  H     -2.998568    1.937504    2.039508
  C     -1.737636   -1.314883   -0.113198
  H     -2.825404   -1.427755   -0.195377
  H     -1.339135   -2.314870   -0.320751
  O      1.791488   -0.956099   -1.094836
  C      2.263372   -0.752225   -2.315974
  O      1.815044    0.014993   -3.132190
  C      3.501482   -1.613598   -2.635512
  H      3.309522   -2.670830   -2.495363
  H      4.328714   -1.330810   -2.001502
  H      3.807241   -1.450396   -3.673747

 Total Charge           Charge          ....    0
 Multiplicity           Mult            ....    1
 Number of Electrons    NEL             ....  154
 Basis Dimension        Dim             ....  339

ORBITAL ENERGIES
----------------

  NO   OCC          E(Eh)            E(eV)
   0   2.0000     -19.495750      -530.5063
   1   2.0000     -19.494707      -530.4780
   2   2.0000     -19.475969      -529.9681
   3   2.0000     -19.438556      -528.9500
   4   2.0000     -14.713308      -400.3695
   5   2.0000     -10.570576      -287.6400
   6   2.0000     -10.535600      -286.6882
   7   2.0000     -10.522543      -286.3330
   8   2.0000     -10.505596      -285.8718
   9   2.0000     -10.496967      -285.6370
  10   2.0000     -10.476580      -285.0822
  11   2.0000     -10.473923      -285.0099
  12   2.0000     -10.472077      -284.9597
  13   2.0000     -10.465366      -284.7771
  14   2.0000     -10.464719      -284.7595
  15   2.0000     -10.458896      -284.6010
  16   2.0000     -10.440852      -284.1100
  17   2.0000     -10.414232      -283.3857
  18   2.0000      -3.656419       -99.4962
  19   2.0000      -2.305162       -62.7266
  20   2.0000      -2.300646       -62.6038
  21   2.0000      -2.265503       -61.6475
  22   2.0000      -1.196982       -32.5715
  23   2.0000      -1.147260       -31.2185
  24   2.0000      -1.076503       -29.2931
  25   2.0000      -1.069826       -29.1115
  26   2.0000      -1.052836       -28.6491
  27   2.0000      -0.981488       -26.7077
  28   2.0000      -0.885876       -24.1059
  29   2.0000      -0.857569       -23.3356
  30   2.0000      -0.825770       -22.4703
  31   2.0000      -0.817929       -22.2570
  32   2.0000      -0.801301       -21.8045
  33   2.0000      -0.791618       -21.5410
  34   2.0000      -0.717482       -19.5237
  35   2.0000      -0.692801       -18.8521
  36   2.0000      -0.672125       -18.2895
  37   2.0000      -0.609949       -16.5976
  38   2.0000      -0.595820       -16.2131
  39   2.0000      -0.585345       -15.9280
  40   2.0000      -0.574403       -15.6303
  41   2.0000      -0.570072       -15.5125
  42   2.0000      -0.553504       -15.0616
  43   2.0000      -0.544446       -14.8151
  44   2.0000      -0.535357       -14.5678
  45   2.0000      -0.532364       -14.4864
  46   2.0000      -0.522004       -14.2044
  47   2.0000      -0.521521       -14.1913
  48   2.0000      -0.507125       -13.7996
  49   2.0000      -0.493423       -13.4267
  50   2.0000      -0.490576       -13.3492
  51   2.0000      -0.488350       -13.2887
  52   2.0000      -0.476531       -12.9671
  53   2.0000      -0.466256       -12.6875
  54   2.0000      -0.458028       -12.4636
  55   2.0000      -0.457018       -12.4361
  56   2.0000      -0.448838       -12.2135
  57   2.0000      -0.445015       -12.1095
  58   2.0000      -0.439902       -11.9704
  59   2.0000      -0.433437       -11.7944
  60   2.0000      -0.429494       -11.6871
  61   2.0000      -0.422513       -11.4972
  62   2.0000      -0.419029       -11.4024
  63   2.0000      -0.404757       -11.0140
  64   2.0000      -0.378084       -10.2882
  65   2.0000      -0.374590       -10.1931
  66   2.0000      -0.359450        -9.7811
  67   2.0000      -0.351149        -9.5552
  68   2.0000      -0.344613        -9.3774
  69   2.0000      -0.335254        -9.1227
  70   2.0000      -0.317484        -8.6392
  71   2.0000      -0.312355        -8.4996
  72   2.0000      -0.305394        -8.3102
  73   2.0000      -0.297111        -8.0848
  74   2.0000      -0.292533        -7.9602
  75   2.0000      -0.288913        -7.8617
  76   2.0000      -0.274734        -7.4759
  77   0.0000      -0.095778        -2.6063
  78   0.0000      -0.055001        -1.4966
  79   0.0000      -0.015473        -0.4210
  80   0.0000       0.002966         0.0807
  81   0.0000       0.049536         1.3479

MULLIKEN ATOMIC CHARGES
-----------------------
   0 Pd:    0.517951
   1 O :   -0.517131
   2 C :    0.647118
   3 O :   -0.458816
   4 C :   -0.761028
   5 H :    0.247265
   6 H :    0.261838
   7 H :    0.257984
   8 N :   -0.469603
   9 C :   -0.520002
  10 H :    0.285295
  11 H :    0.212451
  12 H :    0.266114
  13 C :   -0.538236
  14 H :    0.289358
  15 H :    0.220461
  16 H :    0.272671
  17 C :   -0.029103
  18 C :   -0.242711
  19 C :   -0.185204
  20 C :   -0.237598
  21 C :   -0.218439
  22 C :   -0.054764
  23 H :    0.237117
  24 H :    0.250644
  25 H :    0.258215
  26 H :    0.232136
  27 H :    0.044624
  28 C :   -0.323427
  29 H :    0.245544
  30 H :    0.264741
  31 O :   -0.555484
  32 C :    0.563957
  33 O :   -0.436248
  34 C :   -0.740332
  35 H :    0.229798
  36 H :    0.247719
  37 H :    0.235125
Sum of atomic charges:    0.0000000

LOEWDIN ATOMIC CHARGES
----------------------
   0 Pd:   -0.262370
   1 O :   -0.175250
   2 C :    0.194850
   3 O :   -0.164125
   4 C :   -0.378787
   5 H :    0.151671
   6 H :    0.163869
   7 H :    0.153791
   8 N :   -0.070468
   9 C :   -0.235757
  10 H :    0.158802
  11 H :    0.116774
  12 H :    0.147212
  13 C :   -0.237414
  14 H :    0.159505
  15 H :    0.120916
  16 H :    0.154059
  17 C :   -0.061890
  18 C :   -0.095414
  19 C :   -0.131820
  20 C :   -0.124156
  21 C :   -0.149592
  22 C :   -0.021590
  23 H :    0.144110
  24 H :    0.150256
  25 H :    0.159152
  26 H :    0.145739
  27 H :    0.048626
  28 C :   -0.103485
  29 H :    0.138137
  30 H :    0.152987
  31 O :   -0.203145
  32 C :    0.143787
  33 O :   -0.234000
  34 C :   -0.385895
  35 H :    0.140939
  36 H :    0.150121
  37 H :    0.139858

  Mayer bond orders larger than 0.100000
B(  0-Pd,  1-O ) :   0.6494 B(  0-Pd,  3-O ) :   0.3760 B(  0-Pd,  8-N ) :   0.3831
B(  0-Pd, 31-O ) :   0.6826 B(  0-Pd, 33-O ) :   0.1040 B(  1-O ,  2-C ) :   1.2930
B(  1-O ,  3-O ) :   0.1009 B(  2-C ,  3-O ) :   1.6428 B(  2-C ,  4-C ) :   0.9505
B(  4-C ,  5-H ) :   0.9105 B(  4-C ,  6-H ) :   0.9030 B(  4-C ,  7-H ) :   0.9079
B(  8-N ,  9-C ) :   0.9282 B(  8-N , 13-C ) :   0.9242 B(  8-N , 28-C ) :   0.8993
B(  9-C , 10-H ) :   0.8953 B(  9-C , 11-H ) :   0.9043 B(  9-C , 12-H ) :   0.9064
B( 13-C , 14-H ) :   0.8830 B( 13-C , 15-H ) :   0.9057 B( 13-C , 16-H ) :   0.9000
B( 17-C , 18-C ) :   1.4005 B( 17-C , 22-C ) :   1.3940 B( 17-C , 28-C ) :   0.9572
B( 18-C , 19-C ) :   1.4219 B( 18-C , 25-H ) :   0.8968 B( 19-C , 20-C ) :   1.4427
B( 19-C , 26-H ) :   0.9142 B( 20-C , 21-C ) :   1.3775 B( 20-C , 23-H ) :   0.9098
B( 21-C , 22-C ) :   1.4808 B( 21-C , 24-H ) :   0.9045 B( 22-C , 27-H ) :   0.8443
B( 28-C , 29-H ) :   0.8953 B( 28-C , 30-H ) :   0.9090 B( 31-O , 32-C ) :   1.2162
B( 31-O , 33-O ) :   0.1002 B( 32-C , 33-O ) :   1.9007 B( 32-C , 34-C ) :   0.9285
B( 34-C , 35-H ) :   0.9171 B( 34-C , 36-H ) :   0.9109 B( 34-C , 37-H ) :   0.9211

Dispersion correction           -0.025820951
FINAL SINGLE POINT ENERGY      -988.336862321602
Dispersion correction            ... done

DIPOLE MOMENT
-------------
                                X             Y             Z
Electronic contribution:     28.51025      26.64915     -24.39364
Nuclear contribution   :    -30.09458     -27.27465      25.41614
                        -----------------------------------------
Total Dipole Moment    :     -1.58433      -0.62550       1.02250
                        -----------------------------------------
Magnitude (a.u.)       :      1.98667
Magnitude (Debye)      :      5.04971

Rotational constants in cm-1:     0.013284     0.008256     0.006991
Rotational constants in MHz :   398.245929   247.500680   209.570547

                             ****ORCA TERMINATED NORMALLY****
TOTAL RUN TIME: 0 days 0 hours 18 minutes 45 seconds 602 msec
