                         Program Version 5.0.3 -  RELEASE  -
|  1> ! EnGrad PBEh-3c
|  2> %output
|  3> xyzfile=True
|  4> end
|  5> %scf
|  6> maxiter 250
|  7> end
|  8> %output
|  9> Print[P_Hirshfeld] = 1
| 10> end
| 11> % maxcore
| 12> 4000
| 13> *xyz 0 1
| 14> Pd   0.73239402   0.54744553  -0.44291284
| 15> O    2.11566535   1.41842657   0.33175431
| 16> C    1.59333415   2.64311977   0.30065329
| 17> O    0.42106105   2.74899700  -0.10096682
| 18> C    2.53193849   3.83039031   0.56858683
| 19> H    1.96112611   4.64018715   1.02665934
| 20> H    2.92214808   4.23370424  -0.38254578
| 21> H    3.39757487   3.59105824   1.20052434
| 22> N   -1.31315329  -0.42723435  -1.21374889
| 23> C   -1.26025715  -1.24124001  -2.45099493
| 24> H   -0.89620030  -0.58113466  -3.22390178
| 25> H   -2.29026423  -1.53281365  -2.63833316
| 26> H   -0.58654390  -2.11272238  -2.33038563
| 27> C   -2.19460696   0.74692438  -1.37103396
| 28> H   -2.23433816   1.36929786  -0.44954594
| 29> H   -3.17412599   0.33587599  -1.63069631
| 30> H   -1.79387114   1.25760769  -2.24702872
| 31> C   -1.45760505  -0.84671495   1.35628304
| 32> C   -0.63298596  -1.80298204   2.03949012
| 33> C   -0.37015289  -1.64519579   3.39697297
| 34> C   -1.28756621  -0.93447277   4.14351305
| 35> C   -2.11776460   0.04887972   3.54103141
| 36> C   -2.20029753   0.09284748   2.16107543
| 37> H   -1.16093730  -0.75672995   5.18769932
| 38> H   -2.97192954   0.49306936   4.02496300
| 39> H   -0.05142490  -2.55739606   1.48286288
| 40> H    0.26401874  -2.33729470   3.93396822
| 41> H   -2.67007865   1.79599555   1.88939595
| 42> C   -1.80626767  -1.27503913  -0.08679365
| 43> H   -2.89848310  -1.34477904  -0.18892430
| 44> H   -1.45113961  -2.31540198  -0.24472526
| 45> O    1.84057895  -0.98366950  -1.12924249
| 46> C    2.24032410  -0.68530004  -2.35692978
| 47> O    1.71814252   0.06486545  -3.16824469
| 48> C    3.53728883  -1.47555946  -2.66701231
| 49> H    3.38976797  -2.56159142  -2.56975915
| 50> H    4.36327634  -1.19237638  -1.99789010
| 51> H    3.80617147  -1.24657571  -3.69294262
| 52> *
| 53>
| 54>                          ****END OF INPUT****

CARTESIAN COORDINATES (ANGSTROEM)
---------------------------------
  Pd     0.732394    0.547446   -0.442913
  O      2.115665    1.418427    0.331754
  C      1.593334    2.643120    0.300653
  O      0.421061    2.748997   -0.100967
  C      2.531938    3.830390    0.568587
  H      1.961126    4.640187    1.026659
  H      2.922148    4.233704   -0.382546
  H      3.397575    3.591058    1.200524
  N     -1.313153   -0.427234   -1.213749
  C     -1.260257   -1.241240   -2.450995
  H     -0.896200   -0.581135   -3.223902
  H     -2.290264   -1.532814   -2.638333
  H     -0.586544   -2.112722   -2.330386
  C     -2.194607    0.746924   -1.371034
  H     -2.234338    1.369298   -0.449546
  H     -3.174126    0.335876   -1.630696
  H     -1.793871    1.257608   -2.247029
  C     -1.457605   -0.846715    1.356283
  C     -0.632986   -1.802982    2.039490
  C     -0.370153   -1.645196    3.396973
  C     -1.287566   -0.934473    4.143513
  C     -2.117765    0.048880    3.541031
  C     -2.200298    0.092847    2.161075
  H     -1.160937   -0.756730    5.187699
  H     -2.971930    0.493069    4.024963
  H     -0.051425   -2.557396    1.482863
  H      0.264019   -2.337295    3.933968
  H     -2.670079    1.795996    1.889396
  C     -1.806268   -1.275039   -0.086794
  H     -2.898483   -1.344779   -0.188924
  H     -1.451140   -2.315402   -0.244725
  O      1.840579   -0.983669   -1.129242
  C      2.240324   -0.685300   -2.356930
  O      1.718143    0.064865   -3.168245
  C      3.537289   -1.475559   -2.667012
  H      3.389768   -2.561591   -2.569759
  H      4.363276   -1.192376   -1.997890
  H      3.806171   -1.246576   -3.692943

 Total Charge           Charge          ....    0
 Multiplicity           Mult            ....    1
 Number of Electrons    NEL             ....  154
 Basis Dimension        Dim             ....  339

ORBITAL ENERGIES
----------------

  NO   OCC          E(Eh)            E(eV)
   0   2.0000     -19.520487      -531.1794
   1   2.0000     -19.512805      -530.9704
   2   2.0000     -19.472802      -529.8819
   3   2.0000     -19.442453      -529.0560
   4   2.0000     -14.693358      -399.8266
   5   2.0000     -10.593074      -288.2522
   6   2.0000     -10.537754      -286.7469
   7   2.0000     -10.515871      -286.1514
   8   2.0000     -10.497979      -285.6645
   9   2.0000     -10.494958      -285.5823
  10   2.0000     -10.475647      -285.0568
  11   2.0000     -10.475224      -285.0453
  12   2.0000     -10.470736      -284.9232
  13   2.0000     -10.466298      -284.8024
  14   2.0000     -10.463861      -284.7361
  15   2.0000     -10.462896      -284.7099
  16   2.0000     -10.458044      -284.5779
  17   2.0000     -10.413906      -283.3768
  18   2.0000      -3.659234       -99.5728
  19   2.0000      -2.314365       -62.9771
  20   2.0000      -2.300189       -62.5913
  21   2.0000      -2.268509       -61.7293
  22   2.0000      -1.210332       -32.9348
  23   2.0000      -1.139762       -31.0145
  24   2.0000      -1.099042       -29.9064
  25   2.0000      -1.052580       -28.6422
  26   2.0000      -1.051246       -28.6059
  27   2.0000      -0.968628       -26.3577
  28   2.0000      -0.871876       -23.7249
  29   2.0000      -0.850568       -23.1451
  30   2.0000      -0.834480       -22.7073
  31   2.0000      -0.807489       -21.9729
  32   2.0000      -0.790179       -21.5019
  33   2.0000      -0.784897       -21.3581
  34   2.0000      -0.703610       -19.1462
  35   2.0000      -0.685140       -18.6436
  36   2.0000      -0.664298       -18.0765
  37   2.0000      -0.635483       -17.2924
  38   2.0000      -0.587887       -15.9972
  39   2.0000      -0.581589       -15.8258
  40   2.0000      -0.564913       -15.3721
  41   2.0000      -0.560268       -15.2457
  42   2.0000      -0.555702       -15.1214
  43   2.0000      -0.553851       -15.0711
  44   2.0000      -0.540476       -14.7071
  45   2.0000      -0.534807       -14.5528
  46   2.0000      -0.523359       -14.2413
  47   2.0000      -0.510046       -13.8791
  48   2.0000      -0.501430       -13.6446
  49   2.0000      -0.491508       -13.3746
  50   2.0000      -0.484821       -13.1927
  51   2.0000      -0.480010       -13.0617
  52   2.0000      -0.470441       -12.8014
  53   2.0000      -0.467866       -12.7313
  54   2.0000      -0.459468       -12.5028
  55   2.0000      -0.457805       -12.4575
  56   2.0000      -0.452862       -12.3230
  57   2.0000      -0.447334       -12.1726
  58   2.0000      -0.430346       -11.7103
  59   2.0000      -0.428826       -11.6689
  60   2.0000      -0.427871       -11.6430
  61   2.0000      -0.423522       -11.5246
  62   2.0000      -0.412765       -11.2319
  63   2.0000      -0.409426       -11.1410
  64   2.0000      -0.395303       -10.7568
  65   2.0000      -0.381387       -10.3781
  66   2.0000      -0.363414        -9.8890
  67   2.0000      -0.354746        -9.6531
  68   2.0000      -0.349548        -9.5117
  69   2.0000      -0.327494        -8.9116
  70   2.0000      -0.317802        -8.6478
  71   2.0000      -0.311551        -8.4777
  72   2.0000      -0.305792        -8.3210
  73   2.0000      -0.300781        -8.1847
  74   2.0000      -0.298804        -8.1309
  75   2.0000      -0.288675        -7.8552
  76   2.0000      -0.276510        -7.5242
  77   0.0000      -0.051502        -1.4014
  78   0.0000      -0.046486        -1.2650
  79   0.0000      -0.012730        -0.3464
  80   0.0000       0.007500         0.2041
  81   0.0000       0.025430         0.6920

MULLIKEN ATOMIC CHARGES
-----------------------
   0 Pd:    0.569759
   1 O :   -0.537458
   2 C :    0.653942
   3 O :   -0.458271
   4 C :   -0.763000
   5 H :    0.252942
   6 H :    0.268714
   7 H :    0.262100
   8 N :   -0.457508
   9 C :   -0.508685
  10 H :    0.279212
  11 H :    0.207386
  12 H :    0.256893
  13 C :   -0.511925
  14 H :    0.267615
  15 H :    0.210883
  16 H :    0.262029
  17 C :   -0.003600
  18 C :   -0.250145
  19 C :   -0.192921
  20 C :   -0.232498
  21 C :   -0.209667
  22 C :   -0.121856
  23 H :    0.231278
  24 H :    0.244731
  25 H :    0.258766
  26 H :    0.229424
  27 H :    0.095721
  28 C :   -0.320626
  29 H :    0.234429
  30 H :    0.249836
  31 O :   -0.554471
  32 C :    0.568665
  33 O :   -0.446752
  34 C :   -0.735515
  35 H :    0.228492
  36 H :    0.240997
  37 H :    0.231082
Sum of atomic charges:    0.0000000

LOEWDIN ATOMIC CHARGES
----------------------
   0 Pd:   -0.243999
   1 O :   -0.138572
   2 C :    0.229641
   3 O :   -0.164711
   4 C :   -0.377438
   5 H :    0.153438
   6 H :    0.167992
   7 H :    0.157465
   8 N :   -0.110112
   9 C :   -0.236138
  10 H :    0.156585
  11 H :    0.114276
  12 H :    0.149284
  13 C :   -0.234681
  14 H :    0.157050
  15 H :    0.115413
  16 H :    0.150727
  17 C :   -0.053322
  18 C :   -0.099341
  19 C :   -0.125634
  20 C :   -0.131336
  21 C :   -0.152634
  22 C :   -0.068108
  23 H :    0.141981
  24 H :    0.150224
  25 H :    0.158021
  26 H :    0.144093
  27 H :    0.094392
  28 C :   -0.111416
  29 H :    0.129921
  30 H :    0.145187
  31 O :   -0.214647
  32 C :    0.154206
  33 O :   -0.247353
  34 C :   -0.387154
  35 H :    0.142169
  36 H :    0.148287
  37 H :    0.136245

  Mayer bond orders larger than 0.100000
B(  0-Pd,  1-O ) :   0.6856 B(  0-Pd,  3-O ) :   0.3766 B(  0-Pd,  8-N ) :   0.3318
B(  0-Pd, 31-O ) :   0.6632 B(  0-Pd, 33-O ) :   0.1045 B(  1-O ,  2-C ) :   1.2468
B(  1-O ,  3-O ) :   0.1038 B(  2-C ,  3-O ) :   1.6373 B(  2-C ,  4-C ) :   0.9506
B(  4-C ,  5-H ) :   0.9061 B(  4-C ,  6-H ) :   0.8981 B(  4-C ,  7-H ) :   0.9050
B(  8-N ,  9-C ) :   0.9284 B(  8-N , 13-C ) :   0.9305 B(  8-N , 28-C ) :   0.9105
B(  9-C , 10-H ) :   0.8957 B(  9-C , 11-H ) :   0.9053 B(  9-C , 12-H ) :   0.9099
B( 13-C , 14-H ) :   0.8932 B( 13-C , 15-H ) :   0.9062 B( 13-C , 16-H ) :   0.9057
B( 17-C , 18-C ) :   1.4013 B( 17-C , 22-C ) :   1.3670 B( 17-C , 28-C ) :   0.9525
B( 18-C , 19-C ) :   1.3945 B( 18-C , 25-H ) :   0.8986 B( 19-C , 20-C ) :   1.4370
B( 19-C , 26-H ) :   0.9169 B( 20-C , 21-C ) :   1.3656 B( 20-C , 23-H ) :   0.9128
B( 21-C , 22-C ) :   1.4539 B( 21-C , 24-H ) :   0.9056 B( 22-C , 27-H ) :   0.8846
B( 28-C , 29-H ) :   0.8939 B( 28-C , 30-H ) :   0.9134 B( 31-O , 32-C ) :   1.2294
B( 31-O , 33-O ) :   0.1024 B( 32-C , 33-O ) :   1.8865 B( 32-C , 34-C ) :   0.9219
B( 34-C , 35-H ) :   0.9183 B( 34-C , 36-H ) :   0.9144 B( 34-C , 37-H ) :   0.9194

Dispersion correction           -0.025794534
FINAL SINGLE POINT ENERGY      -988.354189647941
Dispersion correction            ... done

DIPOLE MOMENT
-------------
                                X             Y             Z
Electronic contribution:     33.98083      27.13229     -21.56996
Nuclear contribution   :    -35.15454     -27.26019      22.75712
                        -----------------------------------------
Total Dipole Moment    :     -1.17370      -0.12791       1.18716
                        -----------------------------------------
Magnitude (a.u.)       :      1.67430
Magnitude (Debye)      :      4.25574

Rotational constants in cm-1:     0.013374     0.008197     0.006931
Rotational constants in MHz :   400.949632   245.751073   207.780115

                             ****ORCA TERMINATED NORMALLY****
TOTAL RUN TIME: 0 days 0 hours 19 minutes 51 seconds 895 msec
