                         Program Version 5.0.3 -  RELEASE  -
|  1> ! EnGrad PBEh-3c
|  2> %output
|  3> xyzfile=True
|  4> end
|  5> %scf
|  6> maxiter 250
|  7> end
|  8> %output
|  9> Print[P_Hirshfeld] = 1
| 10> end
| 11> % maxcore
| 12> 4000
| 13> *xyz 0 1
| 14> Pd   0.67166610   0.54714728  -0.47644756
| 15> O    2.15649343   1.46141201   0.35336157
| 16> C    1.62038924   2.67195008   0.28860650
| 17> O    0.45623379   2.76448288  -0.09145606
| 18> C    2.51392319   3.87659807   0.56494342
| 19> H    1.91666136   4.65783188   1.03428076
| 20> H    2.88403179   4.27812984  -0.38388458
| 21> H    3.37449465   3.64541373   1.19167054
| 22> N   -1.27776293  -0.39956985  -1.20197062
| 23> C   -1.26226788  -1.15117625  -2.46597271
| 24> H   -0.92436153  -0.48557216  -3.24585352
| 25> H   -2.29110465  -1.45419626  -2.67348364
| 26> H   -0.61609213  -2.02082611  -2.41249864
| 27> C   -2.17232853   0.75917626  -1.34122634
| 28> H   -2.19951965   1.37256530  -0.44321475
| 29> H   -3.17453437   0.38308060  -1.57050592
| 30> H   -1.80842616   1.32825759  -2.18914339
| 31> C   -1.44290557  -0.89284358   1.32220585
| 32> C   -0.54600949  -1.75584593   2.03067362
| 33> C   -0.34545869  -1.62308310   3.39003058
| 34> C   -1.24994921  -0.89476684   4.11713056
| 35> C   -2.21033504  -0.10648539   3.48319797
| 36> C   -2.21927485  -0.00054577   2.12940456
| 37> H   -1.14231005  -0.75579776   5.18253102
| 38> H   -3.07204570   0.21402737   4.02247959
| 39> H    0.06087244  -2.48504362   1.49399294
| 40> H    0.34202538  -2.26545152   3.91863722
| 41> H   -2.89295847   1.89200894   1.99124661
| 42> C   -1.75970091  -1.30207335  -0.10470875
| 43> H   -2.84889877  -1.40107819  -0.19330213
| 44> H   -1.37514447  -2.31504070  -0.29630831
| 45> O    1.80727055  -0.96496281  -1.10589791
| 46> C    2.25596218  -0.73070865  -2.32914107
| 47> O    1.78388997   0.03102691  -3.14378151
| 48> C    3.51299406  -1.56921811  -2.64563938
| 49> H    3.33532148  -2.63570998  -2.51928136
| 50> H    4.33982571  -1.28630324  -2.00034081
| 51> H    3.80689707  -1.38486722  -3.67991834
| 52> *
| 53>
| 54>                          ****END OF INPUT****

CARTESIAN COORDINATES (ANGSTROEM)
---------------------------------
  Pd     0.671666    0.547147   -0.476448
  O      2.156493    1.461412    0.353362
  C      1.620389    2.671950    0.288606
  O      0.456234    2.764483   -0.091456
  C      2.513923    3.876598    0.564943
  H      1.916661    4.657832    1.034281
  H      2.884032    4.278130   -0.383885
  H      3.374495    3.645414    1.191671
  N     -1.277763   -0.399570   -1.201971
  C     -1.262268   -1.151176   -2.465973
  H     -0.924362   -0.485572   -3.245854
  H     -2.291105   -1.454196   -2.673484
  H     -0.616092   -2.020826   -2.412499
  C     -2.172329    0.759176   -1.341226
  H     -2.199520    1.372565   -0.443215
  H     -3.174534    0.383081   -1.570506
  H     -1.808426    1.328258   -2.189143
  C     -1.442906   -0.892844    1.322206
  C     -0.546009   -1.755846    2.030674
  C     -0.345459   -1.623083    3.390031
  C     -1.249949   -0.894767    4.117131
  C     -2.210335   -0.106485    3.483198
  C     -2.219275   -0.000546    2.129405
  H     -1.142310   -0.755798    5.182531
  H     -3.072046    0.214027    4.022480
  H      0.060872   -2.485044    1.493993
  H      0.342025   -2.265452    3.918637
  H     -2.892958    1.892009    1.991247
  C     -1.759701   -1.302073   -0.104709
  H     -2.848899   -1.401078   -0.193302
  H     -1.375144   -2.315041   -0.296308
  O      1.807271   -0.964963   -1.105898
  C      2.255962   -0.730709   -2.329141
  O      1.783890    0.031027   -3.143782
  C      3.512994   -1.569218   -2.645639
  H      3.335321   -2.635710   -2.519281
  H      4.339826   -1.286303   -2.000341
  H      3.806897   -1.384867   -3.679918

 Total Charge           Charge          ....    0
 Multiplicity           Mult            ....    1
 Number of Electrons    NEL             ....  154
 Basis Dimension        Dim             ....  339

ORBITAL ENERGIES
----------------

  NO   OCC          E(Eh)            E(eV)
   0   2.0000     -19.503713      -530.7230
   1   2.0000     -19.500596      -530.6382
   2   2.0000     -19.475047      -529.9430
   3   2.0000     -19.439575      -528.9777
   4   2.0000     -14.706948      -400.1964
   5   2.0000     -10.577854      -287.8380
   6   2.0000     -10.535967      -286.6982
   7   2.0000     -10.520548      -286.2787
   8   2.0000     -10.502957      -285.8000
   9   2.0000     -10.495880      -285.6074
  10   2.0000     -10.476014      -285.0668
  11   2.0000     -10.472662      -284.9756
  12   2.0000     -10.472610      -284.9742
  13   2.0000     -10.463540      -284.7274
  14   2.0000     -10.462967      -284.7118
  15   2.0000     -10.459561      -284.6191
  16   2.0000     -10.446348      -284.2596
  17   2.0000     -10.413806      -283.3741
  18   2.0000      -3.656774       -99.5059
  19   2.0000      -2.306988       -62.7763
  20   2.0000      -2.300192       -62.5914
  21   2.0000      -2.265877       -61.6577
  22   2.0000      -1.200901       -32.6782
  23   2.0000      -1.145151       -31.1611
  24   2.0000      -1.083558       -29.4851
  25   2.0000      -1.064422       -28.9644
  26   2.0000      -1.052713       -28.6458
  27   2.0000      -0.977911       -26.6103
  28   2.0000      -0.881734       -23.9932
  29   2.0000      -0.855338       -23.2749
  30   2.0000      -0.828648       -22.5487
  31   2.0000      -0.814624       -22.1671
  32   2.0000      -0.798069       -21.7166
  33   2.0000      -0.789484       -21.4830
  34   2.0000      -0.712730       -19.3944
  35   2.0000      -0.690655       -18.7937
  36   2.0000      -0.670119       -18.2349
  37   2.0000      -0.616945       -16.7879
  38   2.0000      -0.593709       -16.1557
  39   2.0000      -0.584094       -15.8940
  40   2.0000      -0.569673       -15.5016
  41   2.0000      -0.565569       -15.3899
  42   2.0000      -0.552080       -15.0229
  43   2.0000      -0.548436       -14.9237
  44   2.0000      -0.541072       -14.7233
  45   2.0000      -0.529115       -14.3979
  46   2.0000      -0.525130       -14.2895
  47   2.0000      -0.518974       -14.1220
  48   2.0000      -0.505283       -13.7494
  49   2.0000      -0.492777       -13.4091
  50   2.0000      -0.488086       -13.2815
  51   2.0000      -0.486837       -13.2475
  52   2.0000      -0.474480       -12.9112
  53   2.0000      -0.464094       -12.6286
  54   2.0000      -0.461020       -12.5450
  55   2.0000      -0.456055       -12.4099
  56   2.0000      -0.449654       -12.2357
  57   2.0000      -0.447988       -12.1904
  58   2.0000      -0.436630       -11.8813
  59   2.0000      -0.430708       -11.7202
  60   2.0000      -0.429024       -11.6743
  61   2.0000      -0.419346       -11.4110
  62   2.0000      -0.417837       -11.3699
  63   2.0000      -0.408582       -11.1181
  64   2.0000      -0.381457       -10.3800
  65   2.0000      -0.376331       -10.2405
  66   2.0000      -0.360852        -9.8193
  67   2.0000      -0.353541        -9.6203
  68   2.0000      -0.343949        -9.3593
  69   2.0000      -0.335683        -9.1344
  70   2.0000      -0.317558        -8.6412
  71   2.0000      -0.312382        -8.5004
  72   2.0000      -0.304965        -8.2985
  73   2.0000      -0.298306        -8.1173
  74   2.0000      -0.295288        -8.0352
  75   2.0000      -0.291508        -7.9323
  76   2.0000      -0.275259        -7.4902
  77   0.0000      -0.081956        -2.2301
  78   0.0000      -0.052456        -1.4274
  79   0.0000      -0.013092        -0.3563
  80   0.0000       0.003700         0.1007
  81   0.0000       0.042199         1.1483

MULLIKEN ATOMIC CHARGES
-----------------------
   0 Pd:    0.529681
   1 O :   -0.522312
   2 C :    0.651705
   3 O :   -0.458959
   4 C :   -0.761875
   5 H :    0.249096
   6 H :    0.264127
   7 H :    0.259362
   8 N :   -0.464190
   9 C :   -0.516101
  10 H :    0.283128
  11 H :    0.210549
  12 H :    0.263205
  13 C :   -0.528807
  14 H :    0.282162
  15 H :    0.217004
  16 H :    0.268833
  17 C :   -0.023181
  18 C :   -0.248067
  19 C :   -0.186386
  20 C :   -0.235553
  21 C :   -0.213394
  22 C :   -0.073513
  23 H :    0.234613
  24 H :    0.248182
  25 H :    0.259253
  26 H :    0.229951
  27 H :    0.061545
  28 C :   -0.323327
  29 H :    0.242176
  30 H :    0.260024
  31 O :   -0.554442
  32 C :    0.565677
  33 O :   -0.439797
  34 C :   -0.739234
  35 H :    0.229405
  36 H :    0.245512
  37 H :    0.233945
Sum of atomic charges:    0.0000000

LOEWDIN ATOMIC CHARGES
----------------------
   0 Pd:   -0.258933
   1 O :   -0.162763
   2 C :    0.206712
   3 O :   -0.164142
   4 C :   -0.378357
   5 H :    0.152223
   6 H :    0.165231
   7 H :    0.154991
   8 N :   -0.082515
   9 C :   -0.235779
  10 H :    0.157983
  11 H :    0.115793
  12 H :    0.147841
  13 C :   -0.236220
  14 H :    0.158727
  15 H :    0.118919
  16 H :    0.152653
  17 C :   -0.059399
  18 C :   -0.096562
  19 C :   -0.129616
  20 C :   -0.126918
  21 C :   -0.151840
  22 C :   -0.035988
  23 H :    0.143457
  24 H :    0.149484
  25 H :    0.158749
  26 H :    0.145070
  27 H :    0.065371
  28 C :   -0.105965
  29 H :    0.135531
  30 H :    0.150451
  31 O :   -0.205568
  32 C :    0.146200
  33 O :   -0.238075
  34 C :   -0.386283
  35 H :    0.141331
  36 H :    0.149518
  37 H :    0.138687

  Mayer bond orders larger than 0.100000
B(  0-Pd,  1-O ) :   0.6628 B(  0-Pd,  3-O ) :   0.3770 B(  0-Pd,  8-N ) :   0.3674
B(  0-Pd, 31-O ) :   0.6769 B(  0-Pd, 33-O ) :   0.1043 B(  1-O ,  2-C ) :   1.2767
B(  1-O ,  3-O ) :   0.1017 B(  2-C ,  3-O ) :   1.6405 B(  2-C ,  4-C ) :   0.9508
B(  4-C ,  5-H ) :   0.9090 B(  4-C ,  6-H ) :   0.9014 B(  4-C ,  7-H ) :   0.9070
B(  8-N ,  9-C ) :   0.9287 B(  8-N , 13-C ) :   0.9266 B(  8-N , 28-C ) :   0.9030
B(  9-C , 10-H ) :   0.8956 B(  9-C , 11-H ) :   0.9047 B(  9-C , 12-H ) :   0.9076
B( 13-C , 14-H ) :   0.8866 B( 13-C , 15-H ) :   0.9060 B( 13-C , 16-H ) :   0.9020
B( 17-C , 18-C ) :   1.4006 B( 17-C , 22-C ) :   1.3904 B( 17-C , 28-C ) :   0.9558
B( 18-C , 19-C ) :   1.4155 B( 18-C , 25-H ) :   0.8970 B( 19-C , 20-C ) :   1.4378
B( 19-C , 26-H ) :   0.9160 B( 20-C , 21-C ) :   1.3792 B( 20-C , 23-H ) :   0.9113
B( 21-C , 22-C ) :   1.4703 B( 21-C , 24-H ) :   0.9055 B( 22-C , 27-H ) :   0.8591
B( 28-C , 29-H ) :   0.8950 B( 28-C , 30-H ) :   0.9106 B( 31-O , 32-C ) :   1.2216
B( 31-O , 33-O ) :   0.1009 B( 32-C , 33-O ) :   1.8963 B( 32-C , 34-C ) :   0.9263
B( 34-C , 35-H ) :   0.9175 B( 34-C , 36-H ) :   0.9121 B( 34-C , 37-H ) :   0.9206

Dispersion correction           -0.025809183
FINAL SINGLE POINT ENERGY      -988.351073561295
Dispersion correction            ... done

DIPOLE MOMENT
-------------
                                X             Y             Z
Electronic contribution:     30.26312      26.81841     -23.48400
Nuclear contribution   :    -31.72136     -27.27001      24.56126
                        -----------------------------------------
Total Dipole Moment    :     -1.45824      -0.45160       1.07726
                        -----------------------------------------
Magnitude (a.u.)       :      1.86839
Magnitude (Debye)      :      4.74907

Rotational constants in cm-1:     0.013322     0.008239     0.006973
Rotational constants in MHz :   399.370909   246.988979   209.056716

                             ****ORCA TERMINATED NORMALLY****
TOTAL RUN TIME: 0 days 0 hours 21 minutes 37 seconds 32 msec
