                         Program Version 5.0.4 -  RELEASE  -
|  1> ! PBEh-3c OPT pal4
|  2>
|  3> %geom
|  4>  maxiter 600
|  5> end
|  6>
|  7> *xyzfile -1 1 reaction-2-prod-xtb.xyz
|  8>
|  9>                          ****END OF INPUT****
 Total Charge           Charge          ....   -1
 Multiplicity           Mult            ....    1
 Number of Electrons    NEL             ....  164
Dispersion correction           -0.024913624
FINAL SINGLE POINT ENERGY     -2061.517589997450
Dispersion correction            ... done
Dispersion correction           -0.024720729
FINAL SINGLE POINT ENERGY     -2061.524325558248
Dispersion correction            ... done
Dispersion correction           -0.024564428
FINAL SINGLE POINT ENERGY     -2061.528778314276
Dispersion correction            ... done
FINAL SINGLE POINT ENERGY     -2061.531668374992
FINAL SINGLE POINT ENERGY     -2061.533804873316
FINAL SINGLE POINT ENERGY     -2061.535417665184
FINAL SINGLE POINT ENERGY     -2061.536527561137
FINAL SINGLE POINT ENERGY     -2061.537259573998
FINAL SINGLE POINT ENERGY     -2061.537793040035
FINAL SINGLE POINT ENERGY     -2061.538265553508
FINAL SINGLE POINT ENERGY     -2061.539740202561
FINAL SINGLE POINT ENERGY     -2061.539802652238
FINAL SINGLE POINT ENERGY     -2061.539938799916
FINAL SINGLE POINT ENERGY     -2061.540039513787
FINAL SINGLE POINT ENERGY     -2061.540063149710
FINAL SINGLE POINT ENERGY     -2061.540077126839
FINAL SINGLE POINT ENERGY     -2061.540089663017
Dispersion correction            ... done
Dispersion correction           -0.023940834
FINAL SINGLE POINT ENERGY     -2061.540095305596
Dispersion correction            ... done
Dispersion correction           -0.023938583
FINAL SINGLE POINT ENERGY     -2061.540098742976
Dispersion correction            ... done
                    ***********************HURRAY********************

CARTESIAN COORDINATES (ANGSTROEM)
---------------------------------
  Pd    -1.898283   -1.469687    0.503399
  Cl    -2.610264   -3.399114   -0.566878
  Cl     0.230370   -5.256332   -0.240878
  Cl    -3.561617   -1.621934    2.205855
  N     -1.138804    0.256719    1.326283
  C     -1.540317    0.868354    2.422487
  C     -0.948937    2.057096    2.861436
  C      0.078861    2.612703    2.137170
  C     -0.126378    0.784510    0.602977
  C      0.519643    1.975056    0.970797
  H      0.548650    3.535383    2.457914
  H     -2.358458    0.393137    2.950849
  H     -1.313851    2.523175    3.766021
  C      0.244078    0.058366   -0.558990
  C      1.576308    2.448167    0.130782
  C      1.940170    1.761413   -0.980134
  C      1.291703    0.543311   -1.363567
  H      2.082723    3.367233    0.400731
  H      2.745582    2.135491   -1.602030
  C     -0.478562   -1.125190   -0.835585
  C      1.642086   -0.199065   -2.499167
  C     -0.091100   -1.821520   -1.967618
  C      0.955088   -1.360479   -2.779964
  H      2.446140    0.140473   -3.141459
  H      1.231403   -1.939672   -3.653410
  H     -0.866866   -4.530356   -0.309690
  H     -0.599359   -2.737238   -2.237321

 Multiplicity           Mult            ....    1
 Number of Electrons    NEL             ....  164
 Basis Dimension        Dim             ....  313

ORBITAL ENERGIES
----------------

  NO   OCC          E(Eh)            E(eV)
   0   2.0000    -102.139453     -2779.3558
   1   2.0000    -102.103986     -2778.3907
   2   2.0000    -102.066632     -2777.3743
   3   2.0000     -14.593809      -397.1177
   4   2.0000     -10.402741      -283.0730
   5   2.0000     -10.398512      -282.9579
   6   2.0000     -10.391828      -282.7760
   7   2.0000     -10.382912      -282.5334
   8   2.0000     -10.375933      -282.3435
   9   2.0000     -10.373494      -282.2771
  10   2.0000     -10.372702      -282.2556
  11   2.0000     -10.364629      -282.0359
  12   2.0000     -10.349165      -281.6151
  13   2.0000     -10.348332      -281.5924
  14   2.0000     -10.347395      -281.5669
  15   2.0000     -10.333878      -281.1991
  16   2.0000     -10.327618      -281.0288
  17   2.0000      -9.608410      -261.4581
  18   2.0000      -9.567660      -260.3493
  19   2.0000      -9.530726      -259.3442
  20   2.0000      -7.295176      -198.5118
  21   2.0000      -7.288337      -198.3257
  22   2.0000      -7.288287      -198.3244
  23   2.0000      -7.252762      -197.3577
  24   2.0000      -7.249735      -197.2753
  25   2.0000      -7.248319      -197.2368
  26   2.0000      -7.215560      -196.3454
  27   2.0000      -7.212365      -196.2584
  28   2.0000      -7.212242      -196.2551
  29   2.0000      -3.513924       -95.6187
  30   2.0000      -2.160126       -58.7800
  31   2.0000      -2.156501       -58.6814
  32   2.0000      -2.126306       -57.8597
  33   2.0000      -0.989182       -26.9170
  34   2.0000      -0.880483       -23.9592
  35   2.0000      -0.844142       -22.9703
  36   2.0000      -0.808796       -22.0085
  37   2.0000      -0.777184       -21.1483
  38   2.0000      -0.766801       -20.8657
  39   2.0000      -0.735729       -20.0202
  40   2.0000      -0.715775       -19.4772
  41   2.0000      -0.694026       -18.8854
  42   2.0000      -0.661082       -17.9890
  43   2.0000      -0.643665       -17.5150
  44   2.0000      -0.635605       -17.2957
  45   2.0000      -0.607975       -16.5438
  46   2.0000      -0.569667       -15.5014
  47   2.0000      -0.524980       -14.2854
  48   2.0000      -0.511297       -13.9131
  49   2.0000      -0.491523       -13.3750
  50   2.0000      -0.454598       -12.3702
  51   2.0000      -0.453637       -12.3441
  52   2.0000      -0.426831       -11.6147
  53   2.0000      -0.408497       -11.1158
  54   2.0000      -0.405284       -11.0283
  55   2.0000      -0.401106       -10.9146
  56   2.0000      -0.380841       -10.3632
  57   2.0000      -0.372954       -10.1486
  58   2.0000      -0.368750       -10.0342
  59   2.0000      -0.352829        -9.6010
  60   2.0000      -0.337533        -9.1847
  61   2.0000      -0.336275        -9.1505
  62   2.0000      -0.313905        -8.5418
  63   2.0000      -0.301346        -8.2000
  64   2.0000      -0.290462        -7.9039
  65   2.0000      -0.268978        -7.3193
  66   2.0000      -0.261007        -7.1024
  67   2.0000      -0.248694        -6.7673
  68   2.0000      -0.242894        -6.6095
  69   2.0000      -0.229411        -6.2426
  70   2.0000      -0.225362        -6.1324
  71   2.0000      -0.222932        -6.0663
  72   2.0000      -0.221052        -6.0151
  73   2.0000      -0.206977        -5.6321
  74   2.0000      -0.184272        -5.0143
  75   2.0000      -0.180303        -4.9063
  76   2.0000      -0.165533        -4.5044
  77   2.0000      -0.160956        -4.3798
  78   2.0000      -0.154329        -4.1995
  79   2.0000      -0.151460        -4.1214
  80   2.0000      -0.145528        -3.9600
  81   2.0000      -0.132689        -3.6106
  82   0.0000       0.048797         1.3278
  83   0.0000       0.072004         1.9593
  84   0.0000       0.111820         3.0428
  85   0.0000       0.118186         3.2160
  86   0.0000       0.150354         4.0914

MULLIKEN ATOMIC CHARGES
-----------------------
   0 Pd:    0.192356
   1 Cl:   -0.376922
   2 Cl:   -0.415711
   3 Cl:   -0.474507
   4 N :   -0.584196
   5 C :    0.020055
   6 C :   -0.337442
   7 C :   -0.158968
   8 C :    0.405492
   9 C :    0.047079
  10 H :    0.208270
  11 H :    0.293085
  12 H :    0.217372
  13 C :    0.042433
  14 C :   -0.309677
  15 C :   -0.299156
  16 C :    0.143405
  17 H :    0.191952
  18 H :    0.194683
  19 C :   -0.067461
  20 C :   -0.337698
  21 C :   -0.324990
  22 C :   -0.192304
  23 H :    0.182854
  24 H :    0.194433
  25 H :    0.313019
  26 H :    0.232542
Sum of atomic charges:   -1.0000000

LOEWDIN ATOMIC CHARGES
----------------------
   0 Pd:   -0.759980
   1 Cl:   -0.093645
   2 Cl:   -0.288601
   3 Cl:   -0.232602
   4 N :    0.043556
   5 C :   -0.003444
   6 C :   -0.173943
   7 C :   -0.090268
   8 C :    0.088855
   9 C :   -0.060001
  10 H :    0.133561
  11 H :    0.169676
  12 H :    0.138956
  13 C :   -0.030032
  14 C :   -0.145895
  15 C :   -0.114773
  16 C :   -0.036330
  17 H :    0.128781
  18 H :    0.130228
  19 C :    0.001921
  20 C :   -0.161448
  21 C :   -0.122583
  22 C :   -0.121074
  23 H :    0.122679
  24 H :    0.126926
  25 H :    0.198642
  26 H :    0.150837

  Mayer bond orders larger than 0.100000
B(  0-Pd,  1-Cl) :   0.7199 B(  0-Pd,  3-Cl) :   0.6777 B(  0-Pd,  4-N ) :   0.4234
B(  0-Pd, 19-C ) :   0.8404 B(  1-Cl, 25-H ) :   0.1847 B(  2-Cl, 25-H ) :   0.7285
B(  3-Cl, 19-C ) :   0.1045 B(  4-N ,  5-C ) :   1.4932 B(  4-N ,  8-C ) :   1.1225
B(  5-C ,  6-C ) :   1.2949 B(  5-C , 11-H ) :   0.8426 B(  6-C ,  7-C ) :   1.4592
B(  6-C , 12-H ) :   0.9224 B(  7-C ,  9-C ) :   1.2734 B(  7-C , 10-H ) :   0.9301
B(  8-C ,  9-C ) :   1.2290 B(  8-C , 13-C ) :   1.1475 B(  9-C , 14-C ) :   1.1642
B( 13-C , 16-C ) :   1.2609 B( 13-C , 19-C ) :   1.1795 B( 14-C , 15-C ) :   1.6509
B( 14-C , 17-H ) :   0.9310 B( 15-C , 16-C ) :   1.1533 B( 15-C , 18-H ) :   0.9289
B( 16-C , 20-C ) :   1.2784 B( 19-C , 21-C ) :   1.4632 B( 20-C , 22-C ) :   1.4826
B( 20-C , 23-H ) :   0.9331 B( 21-C , 22-C ) :   1.3467 B( 21-C , 26-H ) :   0.8911
B( 22-C , 24-H ) :   0.9261

Dispersion correction           -0.023938194
FINAL SINGLE POINT ENERGY     -2061.540099496232

DIPOLE MOMENT
-------------
                                X             Y             Z
Electronic contribution:    -77.76183     -45.34463      20.90391
Nuclear contribution   :     80.18923      49.13354     -21.09130
                        -----------------------------------------
Total Dipole Moment    :      2.42740       3.78891      -0.18739
                        -----------------------------------------
Magnitude (a.u.)       :      4.50369
Magnitude (Debye)      :     11.44746

Rotational constants in cm-1:     0.011097     0.007806     0.005137
Rotational constants in MHz :   332.689631   234.021690   154.010182

                             ****ORCA TERMINATED NORMALLY****
TOTAL RUN TIME: 0 days 0 hours 40 minutes 12 seconds 4 msec
