                         Program Version 5.0.4 -  RELEASE  -
|  1> ! PBEh-3c OPT pal4
|  2>
|  3> %geom
|  4>  maxiter 600
|  5> end
|  6>
|  7> *xyzfile -1 1 reaction-2-rct-xtb.xyz
|  8>
|  9>                          ****END OF INPUT****
 Total Charge           Charge          ....   -1
 Multiplicity           Mult            ....    1
 Number of Electrons    NEL             ....  164
Dispersion correction           -0.024867512
FINAL SINGLE POINT ENERGY     -2061.535647929858
Dispersion correction            ... done
Dispersion correction           -0.024818171
FINAL SINGLE POINT ENERGY     -2061.538534597203
Dispersion correction            ... done
Dispersion correction           -0.024694293
FINAL SINGLE POINT ENERGY     -2061.540810773785
Dispersion correction            ... done
FINAL SINGLE POINT ENERGY     -2061.541397595331
FINAL SINGLE POINT ENERGY     -2061.541617540814
FINAL SINGLE POINT ENERGY     -2061.541713130022
FINAL SINGLE POINT ENERGY     -2061.541787339327
FINAL SINGLE POINT ENERGY     -2061.541856392385
FINAL SINGLE POINT ENERGY     -2061.541923823384
FINAL SINGLE POINT ENERGY     -2061.541976181745
FINAL SINGLE POINT ENERGY     -2061.545846505262
FINAL SINGLE POINT ENERGY     -2061.545872637079
FINAL SINGLE POINT ENERGY     -2061.545881194017
FINAL SINGLE POINT ENERGY     -2061.545851916519
FINAL SINGLE POINT ENERGY     -2061.545803386281
FINAL SINGLE POINT ENERGY     -2061.545787681859
FINAL SINGLE POINT ENERGY     -2061.545789698510
Dispersion correction            ... done
Dispersion correction           -0.024657941
FINAL SINGLE POINT ENERGY     -2061.545786838557
Dispersion correction            ... done
Dispersion correction           -0.024660838
FINAL SINGLE POINT ENERGY     -2061.545780418710
Dispersion correction            ... done
                    ***********************HURRAY********************

CARTESIAN COORDINATES (ANGSTROEM)
---------------------------------
  Pd    -2.368477   -1.696910    0.896042
  Cl    -4.154025   -2.999373    0.374847
  Cl    -1.285251   -3.444577    1.985191
  Cl    -3.308571    0.176472   -0.096678
  N     -0.806343   -0.398020    1.470543
  C     -0.989844    0.041110    2.699771
  C     -0.502161    1.268414    3.148241
  C      0.153146    2.069634    2.252093
  C     -0.028060    0.299679    0.617323
  C      0.408611    1.595897    0.959733
  H      0.487355    3.062619    2.528525
  H     -1.573383   -0.592267    3.354213
  H     -0.692219    1.583004    4.164323
  C      0.394573   -0.273395   -0.641428
  C      1.070071    2.404263   -0.013457
  C      1.323996    1.924359   -1.247596
  C      1.030954    0.566271   -1.582173
  H      1.342300    3.417789    0.255106
  H      1.798132    2.549908   -1.994233
  C      0.285167   -1.644673   -0.930732
  C      1.432499    0.041193   -2.821553
  C      0.711486   -2.138692   -2.140474
  C      1.263511   -1.290536   -3.105094
  H      1.896142    0.701868   -3.544466
  H      1.580347   -1.688270   -4.060767
  H     -0.089343   -2.337447   -0.189944
  H      0.619378   -3.198299   -2.337356

 Multiplicity           Mult            ....    1
 Number of Electrons    NEL             ....  164
 Basis Dimension        Dim             ....  313

ORBITAL ENERGIES
----------------

  NO   OCC          E(Eh)            E(eV)
   0   2.0000    -102.077497     -2777.6699
   1   2.0000    -102.072005     -2777.5205
   2   2.0000    -102.069589     -2777.4547
   3   2.0000     -14.589877      -397.0107
   4   2.0000     -10.417276      -283.4685
   5   2.0000     -10.406496      -283.1752
   6   2.0000     -10.393181      -282.8128
   7   2.0000     -10.387380      -282.6550
   8   2.0000     -10.380559      -282.4694
   9   2.0000     -10.379068      -282.4288
  10   2.0000     -10.378364      -282.4096
  11   2.0000     -10.377818      -282.3948
  12   2.0000     -10.376992      -282.3723
  13   2.0000     -10.368951      -282.1535
  14   2.0000     -10.368261      -282.1347
  15   2.0000     -10.359176      -281.8875
  16   2.0000     -10.354652      -281.7644
  17   2.0000      -9.541412      -259.6350
  18   2.0000      -9.535982      -259.4873
  19   2.0000      -9.534101      -259.4361
  20   2.0000      -7.227074      -196.6587
  21   2.0000      -7.222678      -196.5391
  22   2.0000      -7.222325      -196.5295
  23   2.0000      -7.221762      -196.5141
  24   2.0000      -7.220375      -196.4764
  25   2.0000      -7.217069      -196.3864
  26   2.0000      -7.216923      -196.3825
  27   2.0000      -7.214963      -196.3291
  28   2.0000      -7.214490      -196.3163
  29   2.0000      -3.503824       -95.3439
  30   2.0000      -2.151164       -58.5362
  31   2.0000      -2.147244       -58.4295
  32   2.0000      -2.114812       -57.5470
  33   2.0000      -0.989167       -26.9166
  34   2.0000      -0.895240       -24.3607
  35   2.0000      -0.854292       -23.2465
  36   2.0000      -0.820293       -22.3213
  37   2.0000      -0.788653       -21.4603
  38   2.0000      -0.753234       -20.4965
  39   2.0000      -0.737179       -20.0597
  40   2.0000      -0.673936       -18.3387
  41   2.0000      -0.661798       -18.0084
  42   2.0000      -0.657184       -17.8829
  43   2.0000      -0.653179       -17.7739
  44   2.0000      -0.646954       -17.6045
  45   2.0000      -0.618884       -16.8407
  46   2.0000      -0.591508       -16.0958
  47   2.0000      -0.541628       -14.7384
  48   2.0000      -0.527163       -14.3448
  49   2.0000      -0.501784       -13.6542
  50   2.0000      -0.474155       -12.9024
  51   2.0000      -0.469557       -12.7773
  52   2.0000      -0.439874       -11.9696
  53   2.0000      -0.419874       -11.4253
  54   2.0000      -0.412452       -11.2234
  55   2.0000      -0.409044       -11.1307
  56   2.0000      -0.400573       -10.9002
  57   2.0000      -0.397207       -10.8086
  58   2.0000      -0.379086       -10.3154
  59   2.0000      -0.353246        -9.6123
  60   2.0000      -0.351561        -9.5665
  61   2.0000      -0.326981        -8.8976
  62   2.0000      -0.313643        -8.5347
  63   2.0000      -0.307965        -8.3802
  64   2.0000      -0.291104        -7.9213
  65   2.0000      -0.272501        -7.4151
  66   2.0000      -0.260314        -7.0835
  67   2.0000      -0.248673        -6.7667
  68   2.0000      -0.237672        -6.4674
  69   2.0000      -0.223147        -6.0722
  70   2.0000      -0.213279        -5.8036
  71   2.0000      -0.210974        -5.7409
  72   2.0000      -0.195946        -5.3320
  73   2.0000      -0.182234        -4.9588
  74   2.0000      -0.176986        -4.8160
  75   2.0000      -0.167137        -4.5480
  76   2.0000      -0.155919        -4.2428
  77   2.0000      -0.145761        -3.9663
  78   2.0000      -0.133456        -3.6315
  79   2.0000      -0.129749        -3.5306
  80   2.0000      -0.128072        -3.4850
  81   2.0000      -0.123849        -3.3701
  82   0.0000       0.042290         1.1508
  83   0.0000       0.058591         1.5943
  84   0.0000       0.095899         2.6095
  85   0.0000       0.107822         2.9340
  86   0.0000       0.132601         3.6083

MULLIKEN ATOMIC CHARGES
-----------------------
   0 Pd:    0.055416
   1 Cl:   -0.339128
   2 Cl:   -0.426578
   3 Cl:   -0.410624
   4 N :   -0.527936
   5 C :    0.037489
   6 C :   -0.308609
   7 C :   -0.159230
   8 C :    0.348001
   9 C :    0.051232
  10 H :    0.210509
  11 H :    0.289660
  12 H :    0.219986
  13 C :    0.099940
  14 C :   -0.290259
  15 C :   -0.286737
  16 C :    0.119391
  17 H :    0.197937
  18 H :    0.198129
  19 C :   -0.262956
  20 C :   -0.290637
  21 C :   -0.228822
  22 C :   -0.213599
  23 H :    0.193877
  24 H :    0.201450
  25 H :    0.297201
  26 H :    0.224895
Sum of atomic charges:   -1.0000000

LOEWDIN ATOMIC CHARGES
----------------------
   0 Pd:   -1.020865
   1 Cl:   -0.075226
   2 Cl:   -0.166064
   3 Cl:   -0.147252
   4 N :    0.035044
   5 C :    0.021208
   6 C :   -0.161042
   7 C :   -0.082501
   8 C :    0.094175
   9 C :   -0.047712
  10 H :    0.135336
  11 H :    0.172247
  12 H :    0.141224
  13 C :   -0.012146
  14 C :   -0.130811
  15 C :   -0.118275
  16 C :   -0.026541
  17 H :    0.131837
  18 H :    0.132189
  19 C :   -0.071212
  20 C :   -0.136629
  21 C :   -0.127977
  22 C :   -0.130006
  23 H :    0.128114
  24 H :    0.129437
  25 H :    0.192703
  26 H :    0.140742

  Mayer bond orders larger than 0.100000
B(  0-Pd,  1-Cl) :   0.9486 B(  0-Pd,  2-Cl) :   0.7640 B(  0-Pd,  3-Cl) :   0.8321
B(  0-Pd,  4-N ) :   0.3391 B(  4-N ,  5-C ) :   1.4767 B(  4-N ,  8-C ) :   1.2394
B(  5-C ,  6-C ) :   1.3110 B(  5-C , 11-H ) :   0.8859 B(  6-C ,  7-C ) :   1.4685
B(  6-C , 12-H ) :   0.9195 B(  7-C ,  9-C ) :   1.2794 B(  7-C , 10-H ) :   0.9287
B(  8-C ,  9-C ) :   1.2443 B(  8-C , 13-C ) :   1.0993 B(  9-C , 14-C ) :   1.1602
B( 13-C , 16-C ) :   1.3051 B( 13-C , 19-C ) :   1.2814 B( 14-C , 15-C ) :   1.6537
B( 14-C , 17-H ) :   0.9291 B( 15-C , 16-C ) :   1.1573 B( 15-C , 18-H ) :   0.9279
B( 16-C , 20-C ) :   1.2731 B( 19-C , 21-C ) :   1.4982 B( 19-C , 25-H ) :   0.8501
B( 20-C , 22-C ) :   1.4961 B( 20-C , 23-H ) :   0.9307 B( 21-C , 22-C ) :   1.3406
B( 21-C , 26-H ) :   0.9181 B( 22-C , 24-H ) :   0.9248

Dispersion correction           -0.024662235
FINAL SINGLE POINT ENERGY     -2061.545778387850

DIPOLE MOMENT
-------------
                                X             Y             Z
Electronic contribution:    -92.69020     -66.41487      38.75549
Nuclear contribution   :     96.70408      69.62076     -38.85131
                        -----------------------------------------
Total Dipole Moment    :      4.01388       3.20589      -0.09582
                        -----------------------------------------
Magnitude (a.u.)       :      5.13792
Magnitude (Debye)      :     13.05954

Rotational constants in cm-1:     0.012991     0.007307     0.006073
Rotational constants in MHz :   389.470584   219.068318   182.052220

                             ****ORCA TERMINATED NORMALLY****
TOTAL RUN TIME: 0 days 1 hours 22 minutes 13 seconds 661 msec
