                         Program Version 5.0.3 -  RELEASE  -
|  1> ! EnGrad PBEh-3c
|  2> %output
|  3> xyzfile=True
|  4> end
|  5> %scf
|  6> maxiter 250
|  7> end
|  8> %output
|  9> Print[P_Hirshfeld] = 1
| 10> end
| 11> % maxcore
| 12> 4000
| 13> *xyz 0 1
| 14> Pd   0.32440482   0.10145863  -0.14851925
| 15> O    1.90767874   1.21294429   0.76632442
| 16> C    1.84403432   2.42949254   0.57981383
| 17> O    0.82321867   2.96810552  -0.00961909
| 18> C    3.03469913   3.31895716   0.78914030
| 19> H    2.77502468   4.28612228   1.22377179
| 20> H    3.53486096   3.54691630  -0.15685617
| 21> H    3.76737293   2.82846439   1.42242475
| 22> N   -1.21580971  -1.06682680  -0.88309379
| 23> C   -0.75295478  -2.45773600  -1.00785261
| 24> H    0.11621154  -2.52745093  -1.65356059
| 25> H   -1.52060174  -3.10119831  -1.45595346
| 26> H   -0.46823164  -2.86125544  -0.04114257
| 27> C   -1.66930935  -0.62458592  -2.20849923
| 28> H   -1.89444334   0.43867175  -2.19739123
| 29> H   -2.56192778  -1.17294260  -2.53452661
| 30> H   -0.91812043  -0.83134984  -2.96357154
| 31> C   -1.95831286  -1.00770362   1.48023637
| 32> C   -2.69436674  -1.59013105   2.50358561
| 33> C   -2.29182742  -1.49037413   3.82480319
| 34> C   -1.14101061  -0.80113181   4.14813134
| 35> C   -0.38981716  -0.23926123   3.12465363
| 36> C   -0.82711734  -0.28153838   1.80886347
| 37> H   -0.81349828  -0.72427201   5.17804493
| 38> H    0.55033653   0.17445259   3.46879336
| 39> H   -3.60046227  -2.14146944   2.27887566
| 40> H   -2.87143311  -1.94876383   4.61490325
| 41> H   -0.33255061   4.17260517   0.31567098
| 42> C   -2.36677583  -1.02178816   0.04511100
| 43> H   -2.93855633  -0.10967172  -0.15295755
| 44> H   -3.06458392  -1.85343325  -0.12084953
| 45> O    1.25546591   0.75610560  -1.87978727
| 46> C    1.99087257  -0.03394779  -2.56585316
| 47> O    2.02327808  -1.23976463  -2.38559849
| 48> C    2.89259480   0.59817975  -3.60689481
| 49> H    3.25466195  -0.13685154  -4.32449943
| 50> H    3.76925847   1.02270274  -3.10959520
| 51> H    2.42772831   1.40826970  -4.16651514
| 52> *
| 53>
| 54>                          ****END OF INPUT****

CARTESIAN COORDINATES (ANGSTROEM)
---------------------------------
  Pd     0.324405    0.101459   -0.148519
  O      1.907679    1.212944    0.766324
  C      1.844034    2.429493    0.579814
  O      0.823219    2.968106   -0.009619
  C      3.034699    3.318957    0.789140
  H      2.775025    4.286122    1.223772
  H      3.534861    3.546916   -0.156856
  H      3.767373    2.828464    1.422425
  N     -1.215810   -1.066827   -0.883094
  C     -0.752955   -2.457736   -1.007853
  H      0.116212   -2.527451   -1.653561
  H     -1.520602   -3.101198   -1.455953
  H     -0.468232   -2.861255   -0.041143
  C     -1.669309   -0.624586   -2.208499
  H     -1.894443    0.438672   -2.197391
  H     -2.561928   -1.172943   -2.534527
  H     -0.918120   -0.831350   -2.963572
  C     -1.958313   -1.007704    1.480236
  C     -2.694367   -1.590131    2.503586
  C     -2.291827   -1.490374    3.824803
  C     -1.141011   -0.801132    4.148131
  C     -0.389817   -0.239261    3.124654
  C     -0.827117   -0.281538    1.808863
  H     -0.813498   -0.724272    5.178045
  H      0.550337    0.174453    3.468793
  H     -3.600462   -2.141469    2.278876
  H     -2.871433   -1.948764    4.614903
  H     -0.332551    4.172605    0.315671
  C     -2.366776   -1.021788    0.045111
  H     -2.938556   -0.109672   -0.152958
  H     -3.064584   -1.853433   -0.120850
  O      1.255466    0.756106   -1.879787
  C      1.990873   -0.033948   -2.565853
  O      2.023278   -1.239765   -2.385598
  C      2.892595    0.598180   -3.606895
  H      3.254662   -0.136852   -4.324499
  H      3.769258    1.022703   -3.109595
  H      2.427728    1.408270   -4.166515

 Total Charge           Charge          ....    0
 Multiplicity           Mult            ....    1
 Number of Electrons    NEL             ....  154
 Basis Dimension        Dim             ....  339

ORBITAL ENERGIES
----------------

  NO   OCC          E(Eh)            E(eV)
   0   2.0000     -19.558264      -532.2074
   1   2.0000     -19.538561      -531.6713
   2   2.0000     -19.437667      -528.9258
   3   2.0000     -19.404323      -528.0185
   4   2.0000     -14.711586      -400.3226
   5   2.0000     -10.607805      -288.6531
   6   2.0000     -10.506916      -285.9077
   7   2.0000     -10.480787      -285.1967
   8   2.0000     -10.468768      -284.8697
   9   2.0000     -10.459810      -284.6259
  10   2.0000     -10.456374      -284.5324
  11   2.0000     -10.440525      -284.1011
  12   2.0000     -10.435641      -283.9682
  13   2.0000     -10.433008      -283.8966
  14   2.0000     -10.431044      -283.8431
  15   2.0000     -10.430258      -283.8217
  16   2.0000     -10.427745      -283.7534
  17   2.0000     -10.402487      -283.0661
  18   2.0000      -3.630476       -98.7903
  19   2.0000      -2.277865       -61.9839
  20   2.0000      -2.270729       -61.7897
  21   2.0000      -2.243176       -61.0399
  22   2.0000      -1.224960       -33.3329
  23   2.0000      -1.125754       -30.6333
  24   2.0000      -1.122219       -30.5371
  25   2.0000      -1.066431       -29.0191
  26   2.0000      -1.023410       -27.8484
  27   2.0000      -0.944566       -25.7029
  28   2.0000      -0.860437       -23.4137
  29   2.0000      -0.848959       -23.1013
  30   2.0000      -0.813675       -22.1412
  31   2.0000      -0.803758       -21.8714
  32   2.0000      -0.781872       -21.2758
  33   2.0000      -0.778175       -21.1752
  34   2.0000      -0.703049       -19.1309
  35   2.0000      -0.664782       -18.0896
  36   2.0000      -0.649553       -17.6752
  37   2.0000      -0.638197       -17.3662
  38   2.0000      -0.589105       -16.0304
  39   2.0000      -0.573817       -15.6143
  40   2.0000      -0.567728       -15.4487
  41   2.0000      -0.561995       -15.2927
  42   2.0000      -0.558164       -15.1884
  43   2.0000      -0.557024       -15.1574
  44   2.0000      -0.544111       -14.8060
  45   2.0000      -0.532003       -14.4765
  46   2.0000      -0.506353       -13.7786
  47   2.0000      -0.489541       -13.3211
  48   2.0000      -0.486028       -13.2255
  49   2.0000      -0.483018       -13.1436
  50   2.0000      -0.474828       -12.9207
  51   2.0000      -0.470549       -12.8043
  52   2.0000      -0.465384       -12.6638
  53   2.0000      -0.459260       -12.4971
  54   2.0000      -0.458839       -12.4856
  55   2.0000      -0.443984       -12.0814
  56   2.0000      -0.436058       -11.8657
  57   2.0000      -0.428007       -11.6467
  58   2.0000      -0.420756       -11.4494
  59   2.0000      -0.416908       -11.3447
  60   2.0000      -0.411356       -11.1936
  61   2.0000      -0.400460       -10.8971
  62   2.0000      -0.399262       -10.8645
  63   2.0000      -0.388848       -10.5811
  64   2.0000      -0.382799       -10.4165
  65   2.0000      -0.380229       -10.3466
  66   2.0000      -0.363736        -9.8978
  67   2.0000      -0.344042        -9.3619
  68   2.0000      -0.332671        -9.0524
  69   2.0000      -0.314635        -8.5617
  70   2.0000      -0.312762        -8.5107
  71   2.0000      -0.281386        -7.6569
  72   2.0000      -0.276338        -7.5195
  73   2.0000      -0.271871        -7.3980
  74   2.0000      -0.266380        -7.2486
  75   2.0000      -0.260824        -7.0974
  76   2.0000      -0.253797        -6.9062
  77   0.0000      -0.165479        -4.5029
  78   0.0000      -0.023560        -0.6411
  79   0.0000       0.022873         0.6224
  80   0.0000       0.029711         0.8085
  81   0.0000       0.035244         0.9590

MULLIKEN ATOMIC CHARGES
-----------------------
   0 Pd:    0.379838
   1 O :   -0.390310
   2 C :    0.648650
   3 O :   -0.447773
   4 C :   -0.754986
   5 H :    0.236195
   6 H :    0.276754
   7 H :    0.261158
   8 N :   -0.484566
   9 C :   -0.560897
  10 H :    0.322913
  11 H :    0.214006
  12 H :    0.280101
  13 C :   -0.520624
  14 H :    0.264404
  15 H :    0.220757
  16 H :    0.284629
  17 C :    0.072377
  18 C :   -0.274968
  19 C :   -0.229216
  20 C :   -0.211825
  21 C :   -0.315485
  22 C :   -0.082903
  23 H :    0.212360
  24 H :    0.216129
  25 H :    0.195433
  26 H :    0.209810
  27 H :    0.357721
  28 C :   -0.309320
  29 H :    0.260666
  30 H :    0.227200
  31 O :   -0.551493
  32 C :    0.540976
  33 O :   -0.480564
  34 C :   -0.748587
  35 H :    0.234368
  36 H :    0.224918
  37 H :    0.222155
Sum of atomic charges:   -0.0000000

LOEWDIN ATOMIC CHARGES
----------------------
   0 Pd:   -0.407691
   1 O :   -0.049973
   2 C :    0.187110
   3 O :   -0.200243
   4 C :   -0.380369
   5 H :    0.145757
   6 H :    0.170505
   7 H :    0.153537
   8 N :   -0.024476
   9 C :   -0.240843
  10 H :    0.173526
  11 H :    0.117697
  12 H :    0.156442
  13 C :   -0.229083
  14 H :    0.149284
  15 H :    0.120114
  16 H :    0.159148
  17 C :   -0.071406
  18 C :   -0.137083
  19 C :   -0.144787
  20 C :   -0.140040
  21 C :   -0.131575
  22 C :   -0.039445
  23 H :    0.131549
  24 H :    0.139437
  25 H :    0.128366
  26 H :    0.131535
  27 H :    0.352442
  28 C :   -0.105932
  29 H :    0.149924
  30 H :    0.129109
  31 O :   -0.225068
  32 C :    0.100442
  33 O :   -0.291967
  34 C :   -0.390017
  35 H :    0.138191
  36 H :    0.142417
  37 H :    0.133469

  Mayer bond orders larger than 0.100000
B(  0-Pd,  1-O ) :   0.3756 B(  0-Pd,  8-N ) :   0.4620 B(  0-Pd, 22-C ) :   0.7561
B(  0-Pd, 31-O ) :   0.4989 B(  1-O ,  2-C ) :   1.6491 B(  1-O , 27-H ) :   0.1000
B(  2-C ,  3-O ) :   1.2772 B(  2-C ,  4-C ) :   0.9573 B(  3-O , 27-H ) :   0.6393
B(  4-C ,  5-H ) :   0.9116 B(  4-C ,  6-H ) :   0.8935 B(  4-C ,  7-H ) :   0.9067
B(  8-N ,  9-C ) :   0.9128 B(  8-N , 13-C ) :   0.9213 B(  8-N , 28-C ) :   0.8899
B(  9-C , 10-H ) :   0.8573 B(  9-C , 11-H ) :   0.9046 B(  9-C , 12-H ) :   0.8945
B( 13-C , 14-H ) :   0.9059 B( 13-C , 15-H ) :   0.9011 B( 13-C , 16-H ) :   0.8938
B( 17-C , 18-C ) :   1.4008 B( 17-C , 22-C ) :   1.3584 B( 17-C , 28-C ) :   0.9732
B( 18-C , 19-C ) :   1.4376 B( 18-C , 25-H ) :   0.9259 B( 19-C , 20-C ) :   1.4352
B( 19-C , 26-H ) :   0.9206 B( 20-C , 21-C ) :   1.4162 B( 20-C , 23-H ) :   0.9179
B( 21-C , 22-C ) :   1.4101 B( 21-C , 24-H ) :   0.9177 B( 28-C , 29-H ) :   0.8962
B( 28-C , 30-H ) :   0.9057 B( 31-O , 32-C ) :   1.3455 B( 31-O , 33-O ) :   0.1013
B( 32-C , 33-O ) :   1.8474 B( 32-C , 34-C ) :   0.9282 B( 34-C , 35-H ) :   0.9222
B( 34-C , 36-H ) :   0.9204 B( 34-C , 37-H ) :   0.9191

Dispersion correction           -0.026408412
FINAL SINGLE POINT ENERGY      -988.351180966732
Dispersion correction            ... done

DIPOLE MOMENT
-------------
                                X             Y             Z
Electronic contribution:     12.67878       6.22340      -7.67696
Nuclear contribution   :    -13.99739      -3.95278       8.18229
                        -----------------------------------------
Total Dipole Moment    :     -1.31861       2.27062       0.50533
                        -----------------------------------------
Magnitude (a.u.)       :      2.67391
Magnitude (Debye)      :      6.79655

Rotational constants in cm-1:     0.015346     0.008532     0.006239
Rotational constants in MHz :   460.061164   255.794399   187.044142

                             ****ORCA TERMINATED NORMALLY****
TOTAL RUN TIME: 0 days 0 hours 14 minutes 22 seconds 166 msec
