                         Program Version 5.0.3 -  RELEASE  -
|  1> ! EnGrad PBEh-3c
|  2> %output
|  3> xyzfile=True
|  4> end
|  5> %scf
|  6> maxiter 250
|  7> end
|  8> %output
|  9> Print[P_Hirshfeld] = 1
| 10> end
| 11> % maxcore
| 12> 4000
| 13> *xyz 0 1
| 14> Pd   0.25116449   0.11866831  -0.07682821
| 15> O    1.67587116   1.45215398   0.75439042
| 16> C    1.69553609   2.60997554   0.42586763
| 17> O    0.63014673   3.33167149   0.02251035
| 18> C    2.78733484   3.57209012   0.64135052
| 19> H    2.60721854   4.56192063   1.14516597
| 20> H    3.30495741   3.80618607  -0.29465664
| 21> H    3.45025437   3.02142577   1.26775167
| 22> N   -1.27418093  -0.96374998  -0.89039525
| 23> C   -0.85538547  -2.34224861  -1.17384598
| 24> H   -0.02623462  -2.33038289  -1.85378727
| 25> H   -1.69008568  -2.87967089  -1.61175886
| 26> H   -0.54389675  -2.86838205  -0.28080055
| 27> C   -1.75308613  -0.33081970  -2.12169637
| 28> H   -1.92133266   0.73381198  -1.98627916
| 29> H   -2.67965716  -0.80572951  -2.42042201
| 30> H   -1.02103094  -0.47978288  -2.89516013
| 31> C   -1.84049353  -1.15561922   1.46339450
| 32> C   -2.51704333  -1.85116380   2.44683104
| 33> C   -2.09015647  -1.70906715   3.75530397
| 34> C   -1.04348500  -0.85817114   4.07387563
| 35> C   -0.37026375  -0.17067835   3.04596901
| 36> C   -0.70713419  -0.34718353   1.67884609
| 37> H   -0.77964906  -0.70061062   5.12382527
| 38> H    0.38293022   0.57200474   3.30541137
| 39> H   -3.38298236  -2.44736991   2.17111580
| 40> H   -2.60551083  -2.25456681   4.50524132
| 41> H    0.12044165   3.28706928   0.87083682
| 42> C   -2.37838553  -1.02159073   0.09548186
| 43> H   -2.92832358  -0.08929120   0.03242989
| 44> H   -3.08508740  -1.80757797  -0.16086736
| 45> O    1.30527199   0.57926560  -1.83554209
| 46> C    2.09144384  -0.27995593  -2.40002460
| 47> O    2.13307031  -1.47761742  -2.17922555
| 48> C    3.05270489   0.29335276  -3.45855649
| 49> H    3.40271491  -0.51029227  -4.09899885
| 50> H    3.94103370   0.71262381  -2.99252947
| 51> H    2.63254932   1.07001150  -4.09406079
| 52> *
| 53>
| 54>                          ****END OF INPUT****

CARTESIAN COORDINATES (ANGSTROEM)
---------------------------------
  Pd     0.251164    0.118668   -0.076828
  O      1.675871    1.452154    0.754390
  C      1.695536    2.609976    0.425868
  O      0.630147    3.331671    0.022510
  C      2.787335    3.572090    0.641351
  H      2.607219    4.561921    1.145166
  H      3.304957    3.806186   -0.294657
  H      3.450254    3.021426    1.267752
  N     -1.274181   -0.963750   -0.890395
  C     -0.855385   -2.342249   -1.173846
  H     -0.026235   -2.330383   -1.853787
  H     -1.690086   -2.879671   -1.611759
  H     -0.543897   -2.868382   -0.280801
  C     -1.753086   -0.330820   -2.121696
  H     -1.921333    0.733812   -1.986279
  H     -2.679657   -0.805730   -2.420422
  H     -1.021031   -0.479783   -2.895160
  C     -1.840494   -1.155619    1.463394
  C     -2.517043   -1.851164    2.446831
  C     -2.090156   -1.709067    3.755304
  C     -1.043485   -0.858171    4.073876
  C     -0.370264   -0.170678    3.045969
  C     -0.707134   -0.347184    1.678846
  H     -0.779649   -0.700611    5.123825
  H      0.382930    0.572005    3.305411
  H     -3.382982   -2.447370    2.171116
  H     -2.605511   -2.254567    4.505241
  H      0.120442    3.287069    0.870837
  C     -2.378386   -1.021591    0.095482
  H     -2.928324   -0.089291    0.032430
  H     -3.085087   -1.807578   -0.160867
  O      1.305272    0.579266   -1.835542
  C      2.091444   -0.279956   -2.400025
  O      2.133070   -1.477617   -2.179226
  C      3.052705    0.293353   -3.458556
  H      3.402715   -0.510292   -4.098999
  H      3.941034    0.712624   -2.992529
  H      2.632549    1.070011   -4.094061

 Total Charge           Charge          ....    0
 Multiplicity           Mult            ....    1
 Number of Electrons    NEL             ....  154
 Basis Dimension        Dim             ....  339

ORBITAL ENERGIES
----------------

  NO   OCC          E(Eh)            E(eV)
   0   2.0000     -19.565949      -532.4165
   1   2.0000     -19.560300      -532.2628
   2   2.0000     -19.441847      -529.0396
   3   2.0000     -19.412149      -528.2314
   4   2.0000     -14.714736      -400.4083
   5   2.0000     -10.633832      -289.3613
   6   2.0000     -10.514678      -286.1189
   7   2.0000     -10.478673      -285.1392
   8   2.0000     -10.471801      -284.9522
   9   2.0000     -10.471562      -284.9457
  10   2.0000     -10.456509      -284.5361
  11   2.0000     -10.441319      -284.1227
  12   2.0000     -10.440713      -284.1062
  13   2.0000     -10.440060      -284.0885
  14   2.0000     -10.439555      -284.0747
  15   2.0000     -10.438773      -284.0534
  16   2.0000     -10.434458      -283.9360
  17   2.0000     -10.401056      -283.0271
  18   2.0000      -3.642264       -99.1110
  19   2.0000      -2.289051       -62.2883
  20   2.0000      -2.285036       -62.1790
  21   2.0000      -2.254568       -61.3499
  22   2.0000      -1.268208       -34.5097
  23   2.0000      -1.182477       -32.1768
  24   2.0000      -1.123308       -30.5668
  25   2.0000      -1.074205       -29.2306
  26   2.0000      -1.029142       -28.0044
  27   2.0000      -0.945888       -25.7389
  28   2.0000      -0.878124       -23.8950
  29   2.0000      -0.864714       -23.5301
  30   2.0000      -0.820361       -22.3232
  31   2.0000      -0.812337       -22.1048
  32   2.0000      -0.779165       -21.2022
  33   2.0000      -0.776415       -21.1273
  34   2.0000      -0.706918       -19.2362
  35   2.0000      -0.700374       -19.0581
  36   2.0000      -0.670908       -18.2563
  37   2.0000      -0.645858       -17.5747
  38   2.0000      -0.641618       -17.4593
  39   2.0000      -0.588150       -16.0044
  40   2.0000      -0.587685       -15.9917
  41   2.0000      -0.581850       -15.8329
  42   2.0000      -0.566330       -15.4106
  43   2.0000      -0.563504       -15.3337
  44   2.0000      -0.562157       -15.2971
  45   2.0000      -0.535430       -14.5698
  46   2.0000      -0.509672       -13.8689
  47   2.0000      -0.508588       -13.8394
  48   2.0000      -0.498368       -13.5613
  49   2.0000      -0.495318       -13.4783
  50   2.0000      -0.491801       -13.3826
  51   2.0000      -0.477977       -13.0064
  52   2.0000      -0.474009       -12.8984
  53   2.0000      -0.470609       -12.8059
  54   2.0000      -0.462285       -12.5794
  55   2.0000      -0.460517       -12.5313
  56   2.0000      -0.452360       -12.3093
  57   2.0000      -0.443808       -12.0766
  58   2.0000      -0.435793       -11.8585
  59   2.0000      -0.425481       -11.5779
  60   2.0000      -0.423404       -11.5214
  61   2.0000      -0.415088       -11.2951
  62   2.0000      -0.401493       -10.9252
  63   2.0000      -0.401303       -10.9200
  64   2.0000      -0.396096       -10.7783
  65   2.0000      -0.385381       -10.4867
  66   2.0000      -0.379763       -10.3339
  67   2.0000      -0.363962        -9.9039
  68   2.0000      -0.344161        -9.3651
  69   2.0000      -0.337495        -9.1837
  70   2.0000      -0.320853        -8.7309
  71   2.0000      -0.289480        -7.8771
  72   2.0000      -0.286191        -7.7877
  73   2.0000      -0.280861        -7.6426
  74   2.0000      -0.278254        -7.5717
  75   2.0000      -0.265643        -7.2285
  76   2.0000      -0.257920        -7.0184
  77   0.0000      -0.029206        -0.7947
  78   0.0000      -0.013578        -0.3695
  79   0.0000       0.017740         0.4827
  80   0.0000       0.026401         0.7184
  81   0.0000       0.047831         1.3015

MULLIKEN ATOMIC CHARGES
-----------------------
   0 Pd:    0.368820
   1 O :   -0.361708
   2 C :    0.615007
   3 O :   -0.568451
   4 C :   -0.754412
   5 H :    0.261903
   6 H :    0.286861
   7 H :    0.262339
   8 N :   -0.493942
   9 C :   -0.548497
  10 H :    0.317774
  11 H :    0.212529
  12 H :    0.283018
  13 C :   -0.515997
  14 H :    0.270813
  15 H :    0.225280
  16 H :    0.283781
  17 C :    0.068595
  18 C :   -0.256123
  19 C :   -0.242480
  20 C :   -0.202073
  21 C :   -0.326447
  22 C :   -0.081816
  23 H :    0.209994
  24 H :    0.200992
  25 H :    0.203285
  26 H :    0.213411
  27 H :    0.467931
  28 C :   -0.324750
  29 H :    0.267983
  30 H :    0.227057
  31 O :   -0.568443
  32 C :    0.540139
  33 O :   -0.470279
  34 C :   -0.750097
  35 H :    0.234370
  36 H :    0.222533
  37 H :    0.221104
Sum of atomic charges:    0.0000000

LOEWDIN ATOMIC CHARGES
----------------------
   0 Pd:   -0.428604
   1 O :   -0.020975
   2 C :    0.216412
   3 O :   -0.288633
   4 C :   -0.381314
   5 H :    0.162198
   6 H :    0.179155
   7 H :    0.155605
   8 N :   -0.020673
   9 C :   -0.235949
  10 H :    0.171273
  11 H :    0.117132
  12 H :    0.158567
  13 C :   -0.225885
  14 H :    0.153617
  15 H :    0.123218
  16 H :    0.159524
  17 C :   -0.062376
  18 C :   -0.141021
  19 C :   -0.140483
  20 C :   -0.140026
  21 C :   -0.126269
  22 C :   -0.036017
  23 H :    0.134908
  24 H :    0.134162
  25 H :    0.133435
  26 H :    0.131936
  27 H :    0.365965
  28 C :   -0.106211
  29 H :    0.150070
  30 H :    0.125997
  31 O :   -0.255040
  32 C :    0.112744
  33 O :   -0.286250
  34 C :   -0.398183
  35 H :    0.137807
  36 H :    0.138555
  37 H :    0.131624

  Mayer bond orders larger than 0.100000
B(  0-Pd,  1-O ) :   0.3257 B(  0-Pd,  8-N ) :   0.4934 B(  0-Pd, 22-C ) :   0.8475
B(  0-Pd, 31-O ) :   0.4837 B(  1-O ,  2-C ) :   1.8273 B(  2-C ,  3-O ) :   1.1053
B(  2-C ,  4-C ) :   0.9646 B(  3-O , 27-H ) :   0.7319 B(  4-C ,  5-H ) :   0.9054
B(  4-C ,  6-H ) :   0.8853 B(  4-C ,  7-H ) :   0.9026 B(  8-N ,  9-C ) :   0.9094
B(  8-N , 13-C ) :   0.9165 B(  8-N , 28-C ) :   0.8850 B(  9-C , 10-H ) :   0.8587
B(  9-C , 11-H ) :   0.9053 B(  9-C , 12-H ) :   0.8941 B( 13-C , 14-H ) :   0.9025
B( 13-C , 15-H ) :   0.9009 B( 13-C , 16-H ) :   0.8948 B( 17-C , 18-C ) :   1.4154
B( 17-C , 22-C ) :   1.3150 B( 17-C , 28-C ) :   0.9791 B( 18-C , 19-C ) :   1.4198
B( 18-C , 25-H ) :   0.9240 B( 19-C , 20-C ) :   1.4417 B( 19-C , 26-H ) :   0.9189
B( 20-C , 21-C ) :   1.4020 B( 20-C , 23-H ) :   0.9218 B( 21-C , 22-C ) :   1.3980
B( 21-C , 24-H ) :   0.9227 B( 28-C , 29-H ) :   0.8913 B( 28-C , 30-H ) :   0.9049
B( 31-O , 32-C ) :   1.3350 B( 31-O , 33-O ) :   0.1054 B( 32-C , 33-O ) :   1.8599
B( 32-C , 34-C ) :   0.9213 B( 34-C , 35-H ) :   0.9225 B( 34-C , 36-H ) :   0.9220
B( 34-C , 37-H ) :   0.9203

Dispersion correction           -0.026339679
FINAL SINGLE POINT ENERGY      -988.500723050832
Dispersion correction            ... done

DIPOLE MOMENT
-------------
                                X             Y             Z
Electronic contribution:      9.10576       6.61117      -3.67488
Nuclear contribution   :    -10.25656      -4.74505       4.42250
                        -----------------------------------------
Total Dipole Moment    :     -1.15080       1.86612       0.74762
                        -----------------------------------------
Magnitude (a.u.)       :      2.31639
Magnitude (Debye)      :      5.88780

Rotational constants in cm-1:     0.014710     0.008694     0.006435
Rotational constants in MHz :   440.990260   260.648355   192.921983

                             ****ORCA TERMINATED NORMALLY****
TOTAL RUN TIME: 0 days 0 hours 8 minutes 4 seconds 956 msec
