                         Program Version 5.0.3 -  RELEASE  -
|  1> ! EnGrad PBEh-3c
|  2> %output
|  3> xyzfile=True
|  4> end
|  5> %scf
|  6> maxiter 250
|  7> end
|  8> %output
|  9> Print[P_Hirshfeld] = 1
| 10> end
| 11> % maxcore
| 12> 4000
| 13> *xyz 0 1
| 14> Pd   0.24337904   0.14171874  -0.07356569
| 15> O    1.69278787   1.46144780   0.74530592
| 16> C    1.66340578   2.61153659   0.39180206
| 17> O    0.59693504   3.27386913  -0.02739072
| 18> C    2.82196479   3.56299368   0.67368567
| 19> H    2.63320482   4.54543665   1.17619845
| 20> H    3.32391053   3.75617051  -0.27302201
| 21> H    3.50119421   3.01142642   1.28542278
| 22> N   -1.26699207  -0.96915541  -0.88653546
| 23> C   -0.85006798  -2.35110584  -1.16902179
| 24> H   -0.02486683  -2.33771504  -1.85526457
| 25> H   -1.68609523  -2.89547167  -1.60698892
| 26> H   -0.54104071  -2.87330525  -0.27318238
| 27> C   -1.74913426  -0.35649548  -2.12622247
| 28> H   -1.92024490   0.70924200  -2.00992432
| 29> H   -2.68068030  -0.82823910  -2.42109237
| 30> H   -1.01776864  -0.49733628  -2.90315531
| 31> C   -1.84437441  -1.15252876   1.47374446
| 32> C   -2.53400791  -1.82984639   2.46016359
| 33> C   -2.11466774  -1.70104845   3.77367831
| 34> C   -1.06159130  -0.85135743   4.07913357
| 35> C   -0.36015611  -0.16750707   3.08386833
| 36> C   -0.70719229  -0.35753333   1.71709728
| 37> H   -0.79243169  -0.72046118   5.11593299
| 38> H    0.38102762   0.60153615   3.34066976
| 39> H   -3.37671405  -2.43596519   2.18107365
| 40> H   -2.63963249  -2.26219821   4.52296877
| 41> H    0.13026661   3.33710827   0.83890784
| 42> C   -2.37784454  -1.01806839   0.09448511
| 43> H   -2.93830421  -0.08837611   0.00525601
| 44> H   -3.07874057  -1.81858738  -0.15118540
| 45> O    1.30042320   0.58806345  -1.83518858
| 46> C    2.08769473  -0.25787025  -2.41984513
| 47> O    2.13123423  -1.45222723  -2.20243321
| 48> C    3.05144536   0.31332262  -3.48117834
| 49> H    3.41037111  -0.48850564  -4.12466630
| 50> H    3.93611511   0.73057342  -3.00908616
| 51> H    2.63390851   1.09465628  -4.11054280
| 52> *
| 53>
| 54>                          ****END OF INPUT****

CARTESIAN COORDINATES (ANGSTROEM)
---------------------------------
  Pd     0.243379    0.141719   -0.073566
  O      1.692788    1.461448    0.745306
  C      1.663406    2.611537    0.391802
  O      0.596935    3.273869   -0.027391
  C      2.821965    3.562994    0.673686
  H      2.633205    4.545437    1.176198
  H      3.323911    3.756171   -0.273022
  H      3.501194    3.011426    1.285423
  N     -1.266992   -0.969155   -0.886535
  C     -0.850068   -2.351106   -1.169022
  H     -0.024867   -2.337715   -1.855265
  H     -1.686095   -2.895472   -1.606989
  H     -0.541041   -2.873305   -0.273182
  C     -1.749134   -0.356495   -2.126222
  H     -1.920245    0.709242   -2.009924
  H     -2.680680   -0.828239   -2.421092
  H     -1.017769   -0.497336   -2.903155
  C     -1.844374   -1.152529    1.473744
  C     -2.534008   -1.829846    2.460164
  C     -2.114668   -1.701048    3.773678
  C     -1.061591   -0.851357    4.079134
  C     -0.360156   -0.167507    3.083868
  C     -0.707192   -0.357533    1.717097
  H     -0.792432   -0.720461    5.115933
  H      0.381028    0.601536    3.340670
  H     -3.376714   -2.435965    2.181074
  H     -2.639632   -2.262198    4.522969
  H      0.130267    3.337108    0.838908
  C     -2.377845   -1.018068    0.094485
  H     -2.938304   -0.088376    0.005256
  H     -3.078741   -1.818587   -0.151185
  O      1.300423    0.588063   -1.835189
  C      2.087695   -0.257870   -2.419845
  O      2.131234   -1.452227   -2.202433
  C      3.051445    0.313323   -3.481178
  H      3.410371   -0.488506   -4.124666
  H      3.936115    0.730573   -3.009086
  H      2.633909    1.094656   -4.110543

 Total Charge           Charge          ....    0
 Multiplicity           Mult            ....    1
 Number of Electrons    NEL             ....  154
 Basis Dimension        Dim             ....  339

ORBITAL ENERGIES
----------------

  NO   OCC          E(Eh)            E(eV)
   0   2.0000     -19.567560      -532.4604
   1   2.0000     -19.564070      -532.3654
   2   2.0000     -19.440333      -528.9983
   3   2.0000     -19.410422      -528.1844
   4   2.0000     -14.714183      -400.3933
   5   2.0000     -10.635972      -289.4195
   6   2.0000     -10.513707      -286.0925
   7   2.0000     -10.480547      -285.1902
   8   2.0000     -10.472641      -284.9750
   9   2.0000     -10.470774      -284.9242
  10   2.0000     -10.456663      -284.5403
  11   2.0000     -10.441534      -284.1286
  12   2.0000     -10.440975      -284.1134
  13   2.0000     -10.440516      -284.1009
  14   2.0000     -10.438157      -284.0367
  15   2.0000     -10.437515      -284.0192
  16   2.0000     -10.435511      -283.9647
  17   2.0000     -10.401817      -283.0478
  18   2.0000      -3.640357       -99.0591
  19   2.0000      -2.287321       -62.2412
  20   2.0000      -2.282601       -62.1127
  21   2.0000      -2.252656       -61.2979
  22   2.0000      -1.275329       -34.7035
  23   2.0000      -1.189276       -32.3618
  24   2.0000      -1.123432       -30.5701
  25   2.0000      -1.072572       -29.1862
  26   2.0000      -1.027523       -27.9603
  27   2.0000      -0.945308       -25.7231
  28   2.0000      -0.864663       -23.5287
  29   2.0000      -0.863221       -23.4894
  30   2.0000      -0.820120       -22.3166
  31   2.0000      -0.810437       -22.0531
  32   2.0000      -0.778654       -21.1883
  33   2.0000      -0.776114       -21.1191
  34   2.0000      -0.710765       -19.3409
  35   2.0000      -0.705576       -19.1997
  36   2.0000      -0.670289       -18.2395
  37   2.0000      -0.645200       -17.5568
  38   2.0000      -0.640796       -17.4369
  39   2.0000      -0.590725       -16.0744
  40   2.0000      -0.586983       -15.9726
  41   2.0000      -0.581110       -15.8128
  42   2.0000      -0.565619       -15.3913
  43   2.0000      -0.561878       -15.2895
  44   2.0000      -0.560748       -15.2587
  45   2.0000      -0.535256       -14.5651
  46   2.0000      -0.510481       -13.8909
  47   2.0000      -0.507966       -13.8225
  48   2.0000      -0.495816       -13.4918
  49   2.0000      -0.494819       -13.4647
  50   2.0000      -0.491866       -13.3844
  51   2.0000      -0.477587       -12.9958
  52   2.0000      -0.473364       -12.8809
  53   2.0000      -0.469288       -12.7700
  54   2.0000      -0.461327       -12.5533
  55   2.0000      -0.460114       -12.5203
  56   2.0000      -0.452505       -12.3133
  57   2.0000      -0.440709       -11.9923
  58   2.0000      -0.434796       -11.8314
  59   2.0000      -0.425881       -11.5888
  60   2.0000      -0.423031       -11.5112
  61   2.0000      -0.415666       -11.3108
  62   2.0000      -0.408687       -11.1209
  63   2.0000      -0.400752       -10.9050
  64   2.0000      -0.396075       -10.7777
  65   2.0000      -0.384900       -10.4737
  66   2.0000      -0.376594       -10.2476
  67   2.0000      -0.359564        -9.7842
  68   2.0000      -0.343556        -9.3486
  69   2.0000      -0.335197        -9.1212
  70   2.0000      -0.320664        -8.7257
  71   2.0000      -0.288162        -7.8413
  72   2.0000      -0.282602        -7.6900
  73   2.0000      -0.279550        -7.6069
  74   2.0000      -0.278954        -7.5907
  75   2.0000      -0.264704        -7.2030
  76   2.0000      -0.257294        -7.0013
  77   0.0000      -0.026700        -0.7265
  78   0.0000      -0.014566        -0.3964
  79   0.0000       0.017806         0.4845
  80   0.0000       0.026241         0.7140
  81   0.0000       0.046963         1.2779

MULLIKEN ATOMIC CHARGES
-----------------------
   0 Pd:    0.366577
   1 O :   -0.353103
   2 C :    0.598370
   3 O :   -0.552809
   4 C :   -0.750325
   5 H :    0.252523
   6 H :    0.278665
   7 H :    0.270341
   8 N :   -0.491721
   9 C :   -0.545622
  10 H :    0.316812
  11 H :    0.211561
  12 H :    0.281374
  13 C :   -0.519613
  14 H :    0.270585
  15 H :    0.225125
  16 H :    0.284001
  17 C :    0.074893
  18 C :   -0.261501
  19 C :   -0.234316
  20 C :   -0.211644
  21 C :   -0.314543
  22 C :   -0.093226
  23 H :    0.209498
  24 H :    0.201808
  25 H :    0.203396
  26 H :    0.213053
  27 H :    0.474490
  28 C :   -0.322666
  29 H :    0.265840
  30 H :    0.225459
  31 O :   -0.571433
  32 C :    0.536449
  33 O :   -0.466943
  34 C :   -0.749741
  35 H :    0.234615
  36 H :    0.223015
  37 H :    0.220754
Sum of atomic charges:    0.0000000

LOEWDIN ATOMIC CHARGES
----------------------
   0 Pd:   -0.432092
   1 O :   -0.019301
   2 C :    0.211529
   3 O :   -0.266767
   4 C :   -0.384633
   5 H :    0.156173
   6 H :    0.172798
   7 H :    0.155642
   8 N :   -0.021600
   9 C :   -0.235273
  10 H :    0.171006
  11 H :    0.117078
  12 H :    0.157463
  13 C :   -0.227815
  14 H :    0.152567
  15 H :    0.123136
  16 H :    0.159333
  17 C :   -0.066293
  18 C :   -0.138250
  19 C :   -0.143010
  20 C :   -0.137309
  21 C :   -0.129664
  22 C :   -0.031732
  23 H :    0.133205
  24 H :    0.136624
  25 H :    0.132172
  26 H :    0.133318
  27 H :    0.371367
  28 C :   -0.104505
  29 H :    0.149350
  30 H :    0.125854
  31 O :   -0.257134
  32 C :    0.110559
  33 O :   -0.283483
  34 C :   -0.398409
  35 H :    0.138301
  36 H :    0.138607
  37 H :    0.131191

  Mayer bond orders larger than 0.100000
B(  0-Pd,  1-O ) :   0.3378 B(  0-Pd,  8-N ) :   0.4872 B(  0-Pd, 22-C ) :   0.8358
B(  0-Pd, 31-O ) :   0.4815 B(  1-O ,  2-C ) :   1.8198 B(  2-C ,  3-O ) :   1.1210
B(  2-C ,  4-C ) :   0.9502 B(  3-O , 27-H ) :   0.7242 B(  4-C ,  5-H ) :   0.9095
B(  4-C ,  6-H ) :   0.8905 B(  4-C ,  7-H ) :   0.9009 B(  8-N ,  9-C ) :   0.9101
B(  8-N , 13-C ) :   0.9178 B(  8-N , 28-C ) :   0.8846 B(  9-C , 10-H ) :   0.8598
B(  9-C , 11-H ) :   0.9053 B(  9-C , 12-H ) :   0.8951 B( 13-C , 14-H ) :   0.9022
B( 13-C , 15-H ) :   0.9009 B( 13-C , 16-H ) :   0.8950 B( 17-C , 18-C ) :   1.4148
B( 17-C , 22-C ) :   1.3280 B( 17-C , 28-C ) :   0.9777 B( 18-C , 19-C ) :   1.4248
B( 18-C , 25-H ) :   0.9228 B( 19-C , 20-C ) :   1.4348 B( 19-C , 26-H ) :   0.9200
B( 20-C , 21-C ) :   1.4108 B( 20-C , 23-H ) :   0.9218 B( 21-C , 22-C ) :   1.3933
B( 21-C , 24-H ) :   0.9239 B( 28-C , 29-H ) :   0.8915 B( 28-C , 30-H ) :   0.9051
B( 31-O , 32-C ) :   1.3341 B( 31-O , 33-O ) :   0.1041 B( 32-C , 33-O ) :   1.8653
B( 32-C , 34-C ) :   0.9208 B( 34-C , 35-H ) :   0.9228 B( 34-C , 36-H ) :   0.9215
B( 34-C , 37-H ) :   0.9200

Dispersion correction           -0.026264720
FINAL SINGLE POINT ENERGY      -988.504461648649
Dispersion correction            ... done

DIPOLE MOMENT
-------------
                                X             Y             Z
Electronic contribution:      8.70410       7.89977      -3.45733
Nuclear contribution   :     -9.88149      -5.98421       4.20499
                        -----------------------------------------
Total Dipole Moment    :     -1.17740       1.91555       0.74765
                        -----------------------------------------
Magnitude (a.u.)       :      2.36951
Magnitude (Debye)      :      6.02283

Rotational constants in cm-1:     0.014773     0.008642     0.006406
Rotational constants in MHz :   442.876588   259.074109   192.054507

                             ****ORCA TERMINATED NORMALLY****
TOTAL RUN TIME: 0 days 0 hours 8 minutes 24 seconds 121 msec
