                         Program Version 5.0.3 -  RELEASE  -
|  1> ! EnGrad PBEh-3c
|  2> %output
|  3> xyzfile=True
|  4> end
|  5> %scf
|  6> maxiter 250
|  7> end
|  8> %output
|  9> Print[P_Hirshfeld] = 1
| 10> end
| 11> % maxcore
| 12> 4000
| 13> *xyz 0 1
| 14> Pd   0.23851435   0.15603097  -0.07192154
| 15> O    1.70015665   1.45117123   0.74583254
| 16> C    1.65271073   2.63263213   0.36906434
| 17> O    0.56486468   3.24623939  -0.05685882
| 18> C    2.84426692   3.56115036   0.69127585
| 19> H    2.64470571   4.53611539   1.19146280
| 20> H    3.33076857   3.72963634  -0.26108289
| 21> H    3.52868712   3.00780402   1.29421568
| 22> N   -1.26389592  -0.97184847  -0.88225703
| 23> C   -0.84892815  -2.35369432  -1.16770048
| 24> H   -0.02382323  -2.34046386  -1.85847197
| 25> H   -1.68575478  -2.90327464  -1.60599693
| 26> H   -0.53993217  -2.87620222  -0.26961966
| 27> C   -1.74676521  -0.36837376  -2.12667680
| 28> H   -1.91983808   0.69801141  -2.02138722
| 29> H   -2.68350294  -0.83808355  -2.42127477
| 30> H   -1.01594674  -0.50385904  -2.90806397
| 31> C   -1.84422602  -1.15142416   1.47708669
| 32> C   -2.54023279  -1.81783099   2.46716572
| 33> C   -2.12620096  -1.69805088   3.78110472
| 34> C   -1.06956762  -0.84593435   4.08004427
| 35> C   -0.35270048  -0.16498682   3.10077454
| 36> C   -0.70898270  -0.36755280   1.74516109
| 37> H   -0.79959498  -0.73135968   5.10795252
| 38> H    0.37959163   0.62040338   3.35841278
| 39> H   -3.37149886  -2.43191904   2.18593429
| 40> H   -2.65824484  -2.27072261   4.53484156
| 41> H    0.13915100   3.35732892   0.82476629
| 42> C   -2.37628076  -1.01669220   0.09271524
| 43> H   -2.94473991  -0.08593132  -0.00847668
| 44> H   -3.07637730  -1.82514230  -0.14673638
| 45> O    1.29848962   0.58882111  -1.83400616
| 46> C    2.08667890  -0.24295907  -2.43125527
| 47> O    2.13044627  -1.44190979  -2.21207874
| 48> C    3.05058843   0.32048096  -3.49187369
| 49> H    3.41582415  -0.47976436  -4.13716886
| 50> H    3.93532530   0.73846073  -3.01655841
| 51> H    2.63558552   1.10571610  -4.11847765
| 52> *
| 53>
| 54>                          ****END OF INPUT****

CARTESIAN COORDINATES (ANGSTROEM)
---------------------------------
  Pd     0.238514    0.156031   -0.071922
  O      1.700157    1.451171    0.745833
  C      1.652711    2.632632    0.369064
  O      0.564865    3.246239   -0.056859
  C      2.844267    3.561150    0.691276
  H      2.644706    4.536115    1.191463
  H      3.330769    3.729636   -0.261083
  H      3.528687    3.007804    1.294216
  N     -1.263896   -0.971848   -0.882257
  C     -0.848928   -2.353694   -1.167700
  H     -0.023823   -2.340464   -1.858472
  H     -1.685755   -2.903275   -1.605997
  H     -0.539932   -2.876202   -0.269620
  C     -1.746765   -0.368374   -2.126677
  H     -1.919838    0.698011   -2.021387
  H     -2.683503   -0.838084   -2.421275
  H     -1.015947   -0.503859   -2.908064
  C     -1.844226   -1.151424    1.477087
  C     -2.540233   -1.817831    2.467166
  C     -2.126201   -1.698051    3.781105
  C     -1.069568   -0.845934    4.080044
  C     -0.352700   -0.164987    3.100775
  C     -0.708983   -0.367553    1.745161
  H     -0.799595   -0.731360    5.107953
  H      0.379592    0.620403    3.358413
  H     -3.371499   -2.431919    2.185934
  H     -2.658245   -2.270723    4.534842
  H      0.139151    3.357329    0.824766
  C     -2.376281   -1.016692    0.092715
  H     -2.944740   -0.085931   -0.008477
  H     -3.076377   -1.825142   -0.146736
  O      1.298490    0.588821   -1.834006
  C      2.086679   -0.242959   -2.431255
  O      2.130446   -1.441910   -2.212079
  C      3.050588    0.320481   -3.491874
  H      3.415824   -0.479764   -4.137169
  H      3.935325    0.738461   -3.016558
  H      2.635586    1.105716   -4.118478

 Total Charge           Charge          ....    0
 Multiplicity           Mult            ....    1
 Number of Electrons    NEL             ....  154
 Basis Dimension        Dim             ....  339

ORBITAL ENERGIES
----------------

  NO   OCC          E(Eh)            E(eV)
   0   2.0000     -19.575830      -532.6854
   1   2.0000     -19.562433      -532.3209
   2   2.0000     -19.438865      -528.9584
   3   2.0000     -19.406896      -528.0885
   4   2.0000     -14.712457      -400.3463
   5   2.0000     -10.643089      -289.6132
   6   2.0000     -10.512202      -286.0516
   7   2.0000     -10.481175      -285.2073
   8   2.0000     -10.477715      -285.1131
   9   2.0000     -10.469937      -284.9015
  10   2.0000     -10.455927      -284.5202
  11   2.0000     -10.440690      -284.1056
  12   2.0000     -10.440040      -284.0879
  13   2.0000     -10.439498      -284.0732
  14   2.0000     -10.436489      -283.9913
  15   2.0000     -10.436120      -283.9813
  16   2.0000     -10.435618      -283.9676
  17   2.0000     -10.402516      -283.0668
  18   2.0000      -3.637418       -98.9792
  19   2.0000      -2.284583       -62.1667
  20   2.0000      -2.279234       -62.0211
  21   2.0000      -2.249709       -61.2177
  22   2.0000      -1.271620       -34.6025
  23   2.0000      -1.178645       -32.0726
  24   2.0000      -1.120786       -30.4981
  25   2.0000      -1.071394       -29.1541
  26   2.0000      -1.024008       -27.8647
  27   2.0000      -0.945057       -25.7163
  28   2.0000      -0.865048       -23.5391
  29   2.0000      -0.861620       -23.4459
  30   2.0000      -0.820049       -22.3147
  31   2.0000      -0.808036       -21.9878
  32   2.0000      -0.778138       -21.1742
  33   2.0000      -0.775944       -21.1145
  34   2.0000      -0.715433       -19.4679
  35   2.0000      -0.704123       -19.1601
  36   2.0000      -0.668945       -18.2029
  37   2.0000      -0.644274       -17.5316
  38   2.0000      -0.638092       -17.3634
  39   2.0000      -0.589775       -16.0486
  40   2.0000      -0.583688       -15.8830
  41   2.0000      -0.579770       -15.7763
  42   2.0000      -0.564953       -15.3731
  43   2.0000      -0.559860       -15.2346
  44   2.0000      -0.559150       -15.2152
  45   2.0000      -0.534367       -14.5409
  46   2.0000      -0.514312       -13.9951
  47   2.0000      -0.506537       -13.7836
  48   2.0000      -0.497318       -13.5327
  49   2.0000      -0.494562       -13.4577
  50   2.0000      -0.490956       -13.3596
  51   2.0000      -0.475938       -12.9509
  52   2.0000      -0.471402       -12.8275
  53   2.0000      -0.466818       -12.7028
  54   2.0000      -0.459812       -12.5121
  55   2.0000      -0.456349       -12.4179
  56   2.0000      -0.451185       -12.2774
  57   2.0000      -0.438062       -11.9203
  58   2.0000      -0.432418       -11.7667
  59   2.0000      -0.425140       -11.5686
  60   2.0000      -0.422006       -11.4834
  61   2.0000      -0.417069       -11.3490
  62   2.0000      -0.414675       -11.2839
  63   2.0000      -0.399852       -10.8805
  64   2.0000      -0.394063       -10.7230
  65   2.0000      -0.384908       -10.4739
  66   2.0000      -0.373166       -10.1544
  67   2.0000      -0.354549        -9.6478
  68   2.0000      -0.340676        -9.2703
  69   2.0000      -0.331896        -9.0314
  70   2.0000      -0.318569        -8.6687
  71   2.0000      -0.286093        -7.7850
  72   2.0000      -0.279559        -7.6072
  73   2.0000      -0.278622        -7.5817
  74   2.0000      -0.275538        -7.4978
  75   2.0000      -0.262740        -7.1495
  76   2.0000      -0.255727        -6.9587
  77   0.0000      -0.034368        -0.9352
  78   0.0000      -0.014463        -0.3935
  79   0.0000       0.018542         0.5046
  80   0.0000       0.027021         0.7353
  81   0.0000       0.045083         1.2268

MULLIKEN ATOMIC CHARGES
-----------------------
   0 Pd:    0.368041
   1 O :   -0.374638
   2 C :    0.597383
   3 O :   -0.542242
   4 C :   -0.742785
   5 H :    0.250955
   6 H :    0.278191
   7 H :    0.280097
   8 N :   -0.489904
   9 C :   -0.544252
  10 H :    0.316558
  11 H :    0.210260
  12 H :    0.279750
  13 C :   -0.521759
  14 H :    0.270123
  15 H :    0.224132
  16 H :    0.284011
  17 C :    0.082187
  18 C :   -0.265956
  19 C :   -0.228592
  20 C :   -0.221192
  21 C :   -0.306356
  22 C :   -0.097614
  23 H :    0.209483
  24 H :    0.202043
  25 H :    0.202772
  26 H :    0.212100
  27 H :    0.478637
  28 C :   -0.321472
  29 H :    0.263749
  30 H :    0.224305
  31 O :   -0.570699
  32 C :    0.536134
  33 O :   -0.472763
  34 C :   -0.749021
  35 H :    0.235998
  36 H :    0.222486
  37 H :    0.219853
Sum of atomic charges:    0.0000000

LOEWDIN ATOMIC CHARGES
----------------------
   0 Pd:   -0.437467
   1 O :   -0.046821
   2 C :    0.233829
   3 O :   -0.256756
   4 C :   -0.382535
   5 H :    0.155088
   6 H :    0.172302
   7 H :    0.159742
   8 N :   -0.022651
   9 C :   -0.235409
  10 H :    0.171312
  11 H :    0.116602
  12 H :    0.156701
  13 C :   -0.228801
  14 H :    0.151668
  15 H :    0.122747
  16 H :    0.159264
  17 C :   -0.068632
  18 C :   -0.136364
  19 C :   -0.144976
  20 C :   -0.135408
  21 C :   -0.131687
  22 C :   -0.029171
  23 H :    0.131981
  24 H :    0.138404
  25 H :    0.131125
  26 H :    0.134026
  27 H :    0.374820
  28 C :   -0.103729
  29 H :    0.148930
  30 H :    0.125659
  31 O :   -0.254714
  32 C :    0.110501
  33 O :   -0.290674
  34 C :   -0.397385
  35 H :    0.139200
  36 H :    0.138580
  37 H :    0.130698

  Mayer bond orders larger than 0.100000
B(  0-Pd,  1-O ) :   0.3554 B(  0-Pd,  8-N ) :   0.4791 B(  0-Pd, 22-C ) :   0.8283
B(  0-Pd, 31-O ) :   0.4761 B(  1-O ,  2-C ) :   1.7746 B(  2-C ,  3-O ) :   1.1333
B(  2-C ,  4-C ) :   0.9500 B(  3-O , 27-H ) :   0.7198 B(  4-C ,  5-H ) :   0.9092
B(  4-C ,  6-H ) :   0.8895 B(  4-C ,  7-H ) :   0.8971 B(  8-N ,  9-C ) :   0.9110
B(  8-N , 13-C ) :   0.9188 B(  8-N , 28-C ) :   0.8856 B(  9-C , 10-H ) :   0.8599
B(  9-C , 11-H ) :   0.9053 B(  9-C , 12-H ) :   0.8959 B( 13-C , 14-H ) :   0.9020
B( 13-C , 15-H ) :   0.9012 B( 13-C , 16-H ) :   0.8952 B( 17-C , 18-C ) :   1.4136
B( 17-C , 22-C ) :   1.3347 B( 17-C , 28-C ) :   0.9757 B( 18-C , 19-C ) :   1.4277
B( 18-C , 25-H ) :   0.9223 B( 19-C , 20-C ) :   1.4306 B( 19-C , 26-H ) :   0.9210
B( 20-C , 21-C ) :   1.4130 B( 20-C , 23-H ) :   0.9215 B( 21-C , 22-C ) :   1.3930
B( 21-C , 24-H ) :   0.9246 B( 28-C , 29-H ) :   0.8920 B( 28-C , 30-H ) :   0.9052
B( 31-O , 32-C ) :   1.3412 B( 31-O , 33-O ) :   0.1037 B( 32-C , 33-O ) :   1.8578
B( 32-C , 34-C ) :   0.9217 B( 34-C , 35-H ) :   0.9226 B( 34-C , 36-H ) :   0.9214
B( 34-C , 37-H ) :   0.9197

Dispersion correction           -0.026215050
FINAL SINGLE POINT ENERGY      -988.500620813531
Dispersion correction            ... done

DIPOLE MOMENT
-------------
                                X             Y             Z
Electronic contribution:      8.52173       8.83453      -3.34882
Nuclear contribution   :     -9.65057      -6.76005       4.09936
                        -----------------------------------------
Total Dipole Moment    :     -1.12885       2.07448       0.75054
                        -----------------------------------------
Magnitude (a.u.)       :      2.47812
Magnitude (Debye)      :      6.29888

Rotational constants in cm-1:     0.014788     0.008613     0.006393
Rotational constants in MHz :   443.333645   258.213643   191.647379

                             ****ORCA TERMINATED NORMALLY****
TOTAL RUN TIME: 0 days 0 hours 8 minutes 54 seconds 156 msec
