                         Program Version 5.0.3 -  RELEASE  -
|  1> ! EnGrad PBEh-3c
|  2> %output
|  3> xyzfile=True
|  4> end
|  5> %scf
|  6> maxiter 250
|  7> end
|  8> %output
|  9> Print[P_Hirshfeld] = 1
| 10> end
| 11> % maxcore
| 12> 4000
| 13> *xyz 0 1
| 14> Pd   0.21198407   0.18292172   0.09906796
| 15> O    1.70912356   1.53297747   0.60635182
| 16> C    1.61593080   2.72829932   0.47485953
| 17> O    0.51787979   3.05555410  -0.09137540
| 18> C    2.92190305   3.48447381   0.73155211
| 19> H    2.64500128   4.41432480   1.18909896
| 20> H    3.39597041   3.66982995  -0.24266950
| 21> H    3.69675826   2.97678027   1.36175580
| 22> N   -1.27719393  -0.99517315  -0.86950396
| 23> C   -0.83428431  -2.38786275  -1.18017077
| 24> H    0.00288878  -2.35578817  -1.89273892
| 25> H   -1.69778984  -2.92970782  -1.61394286
| 26> H   -0.53401068  -2.87312767  -0.24871420
| 27> C   -1.74947094  -0.40477465  -2.15619264
| 28> H   -1.92196937   0.66753662  -2.04309728
| 29> H   -2.70571382  -0.88468899  -2.43118523
| 30> H   -0.99894459  -0.52975299  -2.94533758
| 31> C   -1.83533278  -1.06305058   1.49796646
| 32> C   -2.53847549  -1.78454820   2.47494633
| 33> C   -2.16619830  -1.70396173   3.81238020
| 34> C   -1.10721465  -0.83879342   4.09707950
| 35> C   -0.38638862  -0.12667408   3.09306376
| 36> C   -0.64207045  -0.32332703   1.73300742
| 37> H   -0.80763198  -0.76038490   5.14435365
| 38> H    0.34135738   0.62546105   3.44437090
| 39> H   -3.37403422  -2.44468664   2.21897750
| 40> H   -2.69402122  -2.28242054   4.58846004
| 41> H    0.05283746   3.48746389   0.70845169
| 42> C   -2.39226783  -1.01806788   0.10470419
| 43> H   -2.95611273  -0.08806115  -0.04733197
| 44> H   -3.05754761  -1.85917511  -0.14950071
| 45> O    1.31486334   0.64479121  -1.87443552
| 46> C    2.06782411  -0.21538954  -2.47099096
| 47> O    2.12840081  -1.42030382  -2.24364984
| 48> C    3.05573679   0.35240350  -3.52884236
| 49> H    3.42498213  -0.45170737  -4.17681853
| 50> H    3.93471271   0.77317983  -3.02654381
| 51> H    2.63120421   1.15310550  -4.14636048
| 52> *
| 53>
| 54>                          ****END OF INPUT****

CARTESIAN COORDINATES (ANGSTROEM)
---------------------------------
  Pd     0.211984    0.182922    0.099068
  O      1.709124    1.532977    0.606352
  C      1.615931    2.728299    0.474860
  O      0.517880    3.055554   -0.091375
  C      2.921903    3.484474    0.731552
  H      2.645001    4.414325    1.189099
  H      3.395970    3.669830   -0.242670
  H      3.696758    2.976780    1.361756
  N     -1.277194   -0.995173   -0.869504
  C     -0.834284   -2.387863   -1.180171
  H      0.002889   -2.355788   -1.892739
  H     -1.697790   -2.929708   -1.613943
  H     -0.534011   -2.873128   -0.248714
  C     -1.749471   -0.404775   -2.156193
  H     -1.921969    0.667537   -2.043097
  H     -2.705714   -0.884689   -2.431185
  H     -0.998945   -0.529753   -2.945338
  C     -1.835333   -1.063051    1.497966
  C     -2.538475   -1.784548    2.474946
  C     -2.166198   -1.703962    3.812380
  C     -1.107215   -0.838793    4.097080
  C     -0.386389   -0.126674    3.093064
  C     -0.642070   -0.323327    1.733007
  H     -0.807632   -0.760385    5.144354
  H      0.341357    0.625461    3.444371
  H     -3.374034   -2.444687    2.218977
  H     -2.694021   -2.282421    4.588460
  H      0.052837    3.487464    0.708452
  C     -2.392268   -1.018068    0.104704
  H     -2.956113   -0.088061   -0.047332
  H     -3.057548   -1.859175   -0.149501
  O      1.314863    0.644791   -1.874436
  C      2.067824   -0.215390   -2.470991
  O      2.128401   -1.420304   -2.243650
  C      3.055737    0.352403   -3.528842
  H      3.424982   -0.451707   -4.176819
  H      3.934713    0.773180   -3.026544
  H      2.631204    1.153105   -4.146360

 Total Charge           Charge          ....    0
 Multiplicity           Mult            ....    1
 Number of Electrons    NEL             ....  154
 Basis Dimension        Dim             ....  339

ORBITAL ENERGIES
----------------

  NO   OCC          E(Eh)            E(eV)
   0   2.0000     -19.584565      -532.9231
   1   2.0000     -19.541187      -531.7427
   2   2.0000     -19.419214      -528.4237
   3   2.0000     -19.393923      -527.7355
   4   2.0000     -14.705861      -400.1668
   5   2.0000     -10.626222      -289.1542
   6   2.0000     -10.498622      -285.6820
   7   2.0000     -10.489778      -285.4414
   8   2.0000     -10.482353      -285.2393
   9   2.0000     -10.471662      -284.9484
  10   2.0000     -10.458606      -284.5931
  11   2.0000     -10.450809      -284.3810
  12   2.0000     -10.448624      -284.3215
  13   2.0000     -10.445524      -284.2372
  14   2.0000     -10.443903      -284.1931
  15   2.0000     -10.443494      -284.1819
  16   2.0000     -10.441724      -284.1338
  17   2.0000     -10.393752      -282.8284
  18   2.0000      -3.643363       -99.1409
  19   2.0000      -2.291068       -62.3431
  20   2.0000      -2.285871       -62.2017
  21   2.0000      -2.255804       -61.3835
  22   2.0000      -1.297840       -35.3160
  23   2.0000      -1.173132       -31.9226
  24   2.0000      -1.099409       -29.9165
  25   2.0000      -1.055738       -28.7281
  26   2.0000      -1.005555       -27.3625
  27   2.0000      -0.942998       -25.6603
  28   2.0000      -0.870245       -23.6806
  29   2.0000      -0.855754       -23.2863
  30   2.0000      -0.825533       -22.4639
  31   2.0000      -0.795375       -21.6433
  32   2.0000      -0.774239       -21.0681
  33   2.0000      -0.759660       -20.6714
  34   2.0000      -0.719786       -19.5864
  35   2.0000      -0.695933       -18.9373
  36   2.0000      -0.669242       -18.2110
  37   2.0000      -0.644916       -17.5490
  38   2.0000      -0.642054       -17.4712
  39   2.0000      -0.601535       -16.3686
  40   2.0000      -0.591639       -16.0993
  41   2.0000      -0.574914       -15.6442
  42   2.0000      -0.552425       -15.0322
  43   2.0000      -0.550683       -14.9848
  44   2.0000      -0.540970       -14.7205
  45   2.0000      -0.527223       -14.3465
  46   2.0000      -0.516381       -14.0514
  47   2.0000      -0.505955       -13.7677
  48   2.0000      -0.499040       -13.5796
  49   2.0000      -0.495344       -13.4790
  50   2.0000      -0.472214       -12.8496
  51   2.0000      -0.466446       -12.6926
  52   2.0000      -0.460598       -12.5335
  53   2.0000      -0.454685       -12.3726
  54   2.0000      -0.453513       -12.3407
  55   2.0000      -0.448500       -12.2043
  56   2.0000      -0.446324       -12.1451
  57   2.0000      -0.437769       -11.9123
  58   2.0000      -0.435632       -11.8541
  59   2.0000      -0.429953       -11.6996
  60   2.0000      -0.422137       -11.4869
  61   2.0000      -0.406266       -11.0551
  62   2.0000      -0.403514       -10.9802
  63   2.0000      -0.399641       -10.8748
  64   2.0000      -0.389230       -10.5915
  65   2.0000      -0.376670       -10.2497
  66   2.0000      -0.370489       -10.0815
  67   2.0000      -0.362694        -9.8694
  68   2.0000      -0.348250        -9.4764
  69   2.0000      -0.335504        -9.1295
  70   2.0000      -0.318488        -8.6665
  71   2.0000      -0.284006        -7.7282
  72   2.0000      -0.274648        -7.4736
  73   2.0000      -0.271150        -7.3784
  74   2.0000      -0.267644        -7.2830
  75   2.0000      -0.259132        -7.0514
  76   2.0000      -0.246746        -6.7143
  77   0.0000      -0.028866        -0.7855
  78   0.0000      -0.010833        -0.2948
  79   0.0000       0.010185         0.2772
  80   0.0000       0.022596         0.6149
  81   0.0000       0.029952         0.8150

MULLIKEN ATOMIC CHARGES
-----------------------
   0 Pd:    0.378090
   1 O :   -0.349172
   2 C :    0.544283
   3 O :   -0.500254
   4 C :   -0.726813
   5 H :    0.230775
   6 H :    0.288058
   7 H :    0.288833
   8 N :   -0.475717
   9 C :   -0.529085
  10 H :    0.316474
  11 H :    0.201445
  12 H :    0.268005
  13 C :   -0.512789
  14 H :    0.261618
  15 H :    0.216450
  16 H :    0.282996
  17 C :    0.076946
  18 C :   -0.270970
  19 C :   -0.223901
  20 C :   -0.221266
  21 C :   -0.319826
  22 C :   -0.069067
  23 H :    0.209527
  24 H :    0.202195
  25 H :    0.204838
  26 H :    0.217750
  27 H :    0.462138
  28 C :   -0.319292
  29 H :    0.257839
  30 H :    0.224576
  31 O :   -0.559061
  32 C :    0.525573
  33 O :   -0.492346
  34 C :   -0.738941
  35 H :    0.225866
  36 H :    0.214402
  37 H :    0.209823
Sum of atomic charges:    0.0000000

LOEWDIN ATOMIC CHARGES
----------------------
   0 Pd:   -0.384133
   1 O :   -0.019350
   2 C :    0.161344
   3 O :   -0.199073
   4 C :   -0.367903
   5 H :    0.141526
   6 H :    0.178210
   7 H :    0.173744
   8 N :   -0.044071
   9 C :   -0.234259
  10 H :    0.175082
  11 H :    0.113793
  12 H :    0.152504
  13 C :   -0.229574
  14 H :    0.147154
  15 H :    0.121202
  16 H :    0.160717
  17 C :   -0.049882
  18 C :   -0.137832
  19 C :   -0.148071
  20 C :   -0.135833
  21 C :   -0.127835
  22 C :   -0.015922
  23 H :    0.132230
  24 H :    0.138309
  25 H :    0.133071
  26 H :    0.136229
  27 H :    0.372287
  28 C :   -0.104859
  29 H :    0.147858
  30 H :    0.126690
  31 O :   -0.291681
  32 C :    0.099584
  33 O :   -0.313920
  34 C :   -0.401768
  35 H :    0.133670
  36 H :    0.134586
  37 H :    0.126176

  Mayer bond orders larger than 0.100000
B(  0-Pd,  1-O ) :   0.3644 B(  0-Pd,  8-N ) :   0.4546 B(  0-Pd, 22-C ) :   0.9562
B(  0-Pd, 31-O ) :   0.4113 B(  1-O ,  2-C ) :   1.7524 B(  2-C ,  3-O ) :   1.1759
B(  2-C ,  4-C ) :   0.9499 B(  3-O , 27-H ) :   0.7318 B(  4-C ,  5-H ) :   0.9070
B(  4-C ,  6-H ) :   0.8851 B(  4-C ,  7-H ) :   0.8997 B(  8-N ,  9-C ) :   0.9074
B(  8-N , 13-C ) :   0.9183 B(  8-N , 28-C ) :   0.8838 B(  9-C , 10-H ) :   0.8569
B(  9-C , 11-H ) :   0.9062 B(  9-C , 12-H ) :   0.9006 B( 13-C , 14-H ) :   0.9051
B( 13-C , 15-H ) :   0.9026 B( 13-C , 16-H ) :   0.8966 B( 17-C , 18-C ) :   1.4133
B( 17-C , 22-C ) :   1.2879 B( 17-C , 28-C ) :   0.9725 B( 18-C , 19-C ) :   1.4091
B( 18-C , 25-H ) :   0.9248 B( 19-C , 20-C ) :   1.4479 B( 19-C , 26-H ) :   0.9173
B( 20-C , 21-C ) :   1.3955 B( 20-C , 23-H ) :   0.9213 B( 21-C , 22-C ) :   1.3741
B( 21-C , 24-H ) :   0.9242 B( 28-C , 29-H ) :   0.8939 B( 28-C , 30-H ) :   0.9047
B( 31-O , 32-C ) :   1.4094 B( 31-O , 33-O ) :   0.1104 B( 32-C , 33-O ) :   1.8293
B( 32-C , 34-C ) :   0.9097 B( 34-C , 35-H ) :   0.9245 B( 34-C , 36-H ) :   0.9254
B( 34-C , 37-H ) :   0.9236

Dispersion correction           -0.026223511
FINAL SINGLE POINT ENERGY      -988.466872735313
Dispersion correction            ... done

DIPOLE MOMENT
-------------
                                X             Y             Z
Electronic contribution:      6.98120      10.58144       6.45277
Nuclear contribution   :     -8.26911      -8.14226      -5.19357
                        -----------------------------------------
Total Dipole Moment    :     -1.28791       2.43918       1.25919
                        -----------------------------------------
Magnitude (a.u.)       :      3.03214
Magnitude (Debye)      :      7.70709

Rotational constants in cm-1:     0.014874     0.008587     0.006356
Rotational constants in MHz :   445.919721   257.435132   190.545396

                             ****ORCA TERMINATED NORMALLY****
TOTAL RUN TIME: 0 days 0 hours 8 minutes 57 seconds 388 msec
