                         Program Version 5.0.3 -  RELEASE  -
|  1> ! EnGrad PBEh-3c
|  2> %output
|  3> xyzfile=True
|  4> end
|  5> %scf
|  6> maxiter 250
|  7> end
|  8> %output
|  9> Print[P_Hirshfeld] = 1
| 10> end
| 11> % maxcore
| 12> 4000
| 13> *xyz 0 1
| 14> Pd   0.17926203   0.20200327   0.13434867
| 15> O    1.62225349   1.62400591   0.56998394
| 16> C    1.51819936   2.84751474   0.43875345
| 17> O    0.53180444   3.00710786  -0.14367500
| 18> C    2.86559738   3.53848562   0.71087140
| 19> H    2.61474648   4.46381544   1.18527270
| 20> H    3.35112887   3.70277745  -0.26753437
| 21> H    3.65645417   3.01546541   1.33774787
| 22> N   -1.29106356  -0.97065430  -0.85587496
| 23> C   -0.85873928  -2.36107169  -1.21875637
| 24> H   -0.02473093  -2.30820612  -1.94914181
| 25> H   -1.74302542  -2.88621098  -1.65101249
| 26> H   -0.55101679  -2.88008986  -0.29993260
| 27> C   -1.76630314  -0.34636872  -2.13268310
| 28> H   -1.92882538   0.72782863  -2.00437706
| 29> H   -2.74255102  -0.80767651  -2.40383306
| 30> H   -1.01725981  -0.44903933  -2.93644398
| 31> C   -1.80032314  -1.09576690   1.49418929
| 32> C   -2.49900180  -1.82385115   2.46381964
| 33> C   -2.12951443  -1.75586321   3.80418559
| 34> C   -1.09574284  -0.84096181   4.07132509
| 35> C   -0.36073153  -0.10542620   3.07517927
| 36> C   -0.61099720  -0.36030295   1.74510022
| 37> H   -0.80748220  -0.76599664   5.11952498
| 38> H    0.30147562   0.75137690   3.42214256
| 39> H   -3.31471831  -2.51803409   2.19564116
| 40> H   -2.65306951  -2.37318768   4.57997926
| 41> H    0.17423244   3.31899602   0.87068333
| 42> C   -2.39273222  -1.01683571   0.11039071
| 43> H   -2.96215330  -0.07834495  -0.01992192
| 44> H   -3.06011225  -1.85916717  -0.15736552
| 45> O    1.32619066   0.59654986  -1.85998722
| 46> C    2.08671562  -0.26140539  -2.44518565
| 47> O    2.15318537  -1.46155366  -2.20561967
| 48> C    3.09135582   0.28445723  -3.50121043
| 49> H    3.46707586  -0.53416804  -4.13445554
| 50> H    3.97780437   0.70805664  -3.00506973
| 51> H    2.68092612   1.08404289  -4.13516785
| 52> *
| 53>
| 54>                          ****END OF INPUT****

CARTESIAN COORDINATES (ANGSTROEM)
---------------------------------
  Pd     0.179262    0.202003    0.134349
  O      1.622253    1.624006    0.569984
  C      1.518199    2.847515    0.438753
  O      0.531804    3.007108   -0.143675
  C      2.865597    3.538486    0.710871
  H      2.614746    4.463815    1.185273
  H      3.351129    3.702777   -0.267534
  H      3.656454    3.015465    1.337748
  N     -1.291064   -0.970654   -0.855875
  C     -0.858739   -2.361072   -1.218756
  H     -0.024731   -2.308206   -1.949142
  H     -1.743025   -2.886211   -1.651012
  H     -0.551017   -2.880090   -0.299933
  C     -1.766303   -0.346369   -2.132683
  H     -1.928825    0.727829   -2.004377
  H     -2.742551   -0.807677   -2.403833
  H     -1.017260   -0.449039   -2.936444
  C     -1.800323   -1.095767    1.494189
  C     -2.499002   -1.823851    2.463820
  C     -2.129514   -1.755863    3.804186
  C     -1.095743   -0.840962    4.071325
  C     -0.360732   -0.105426    3.075179
  C     -0.610997   -0.360303    1.745100
  H     -0.807482   -0.765997    5.119525
  H      0.301476    0.751377    3.422143
  H     -3.314718   -2.518034    2.195641
  H     -2.653070   -2.373188    4.579979
  H      0.174232    3.318996    0.870683
  C     -2.392732   -1.016836    0.110391
  H     -2.962153   -0.078345   -0.019922
  H     -3.060112   -1.859167   -0.157366
  O      1.326191    0.596550   -1.859987
  C      2.086716   -0.261405   -2.445186
  O      2.153185   -1.461554   -2.205620
  C      3.091356    0.284457   -3.501210
  H      3.467076   -0.534168   -4.134456
  H      3.977804    0.708057   -3.005070
  H      2.680926    1.084043   -4.135168

 Total Charge           Charge          ....    0
 Multiplicity           Mult            ....    1
 Number of Electrons    NEL             ....  154
 Basis Dimension        Dim             ....  339

ORBITAL ENERGIES
----------------

  NO   OCC          E(Eh)            E(eV)
   0   2.0000     -19.606190      -533.5116
   1   2.0000     -19.508738      -530.8597
   2   2.0000     -19.412556      -528.2425
   3   2.0000     -19.388077      -527.5764
   4   2.0000     -14.704302      -400.1244
   5   2.0000     -10.624989      -289.1207
   6   2.0000     -10.496591      -285.6268
   7   2.0000     -10.493685      -285.5477
   8   2.0000     -10.484028      -285.2849
   9   2.0000     -10.473578      -285.0005
  10   2.0000     -10.460530      -284.6455
  11   2.0000     -10.451581      -284.4020
  12   2.0000     -10.451089      -284.3886
  13   2.0000     -10.448936      -284.3300
  14   2.0000     -10.447123      -284.2807
  15   2.0000     -10.445948      -284.2487
  16   2.0000     -10.444387      -284.2062
  17   2.0000     -10.391688      -282.7722
  18   2.0000      -3.642202       -99.1094
  19   2.0000      -2.290719       -62.3336
  20   2.0000      -2.283938       -62.1491
  21   2.0000      -2.255277       -61.3692
  22   2.0000      -1.372701       -37.3531
  23   2.0000      -1.147794       -31.2331
  24   2.0000      -1.094953       -29.7952
  25   2.0000      -1.056483       -28.7484
  26   2.0000      -1.000354       -27.2210
  27   2.0000      -0.944813       -25.7097
  28   2.0000      -0.871843       -23.7241
  29   2.0000      -0.853626       -23.2283
  30   2.0000      -0.829575       -22.5739
  31   2.0000      -0.792190       -21.5566
  32   2.0000      -0.773694       -21.0533
  33   2.0000      -0.754821       -20.5397
  34   2.0000      -0.715627       -19.4732
  35   2.0000      -0.694506       -18.8985
  36   2.0000      -0.675369       -18.3777
  37   2.0000      -0.668415       -18.1885
  38   2.0000      -0.645012       -17.5517
  39   2.0000      -0.621192       -16.9035
  40   2.0000      -0.603406       -16.4195
  41   2.0000      -0.574264       -15.6265
  42   2.0000      -0.551120       -14.9967
  43   2.0000      -0.549715       -14.9585
  44   2.0000      -0.536570       -14.6008
  45   2.0000      -0.526486       -14.3264
  46   2.0000      -0.524795       -14.2804
  47   2.0000      -0.505487       -13.7550
  48   2.0000      -0.497038       -13.5251
  49   2.0000      -0.494893       -13.4667
  50   2.0000      -0.469551       -12.7771
  51   2.0000      -0.466485       -12.6937
  52   2.0000      -0.458161       -12.4672
  53   2.0000      -0.453616       -12.3435
  54   2.0000      -0.449125       -12.2213
  55   2.0000      -0.442044       -12.0286
  56   2.0000      -0.435880       -11.8609
  57   2.0000      -0.433763       -11.8033
  58   2.0000      -0.429294       -11.6817
  59   2.0000      -0.423854       -11.5337
  60   2.0000      -0.419571       -11.4171
  61   2.0000      -0.406825       -11.0703
  62   2.0000      -0.396723       -10.7954
  63   2.0000      -0.389767       -10.6061
  64   2.0000      -0.383431       -10.4337
  65   2.0000      -0.371572       -10.1110
  66   2.0000      -0.369250       -10.0478
  67   2.0000      -0.361606        -9.8398
  68   2.0000      -0.348880        -9.4935
  69   2.0000      -0.331364        -9.0169
  70   2.0000      -0.309239        -8.4148
  71   2.0000      -0.283573        -7.7164
  72   2.0000      -0.274561        -7.4712
  73   2.0000      -0.265007        -7.2112
  74   2.0000      -0.262677        -7.1478
  75   2.0000      -0.256601        -6.9825
  76   2.0000      -0.241529        -6.5723
  77   0.0000      -0.031965        -0.8698
  78   0.0000      -0.027818        -0.7570
  79   0.0000      -0.000043        -0.0012
  80   0.0000       0.015224         0.4143
  81   0.0000       0.021135         0.5751

MULLIKEN ATOMIC CHARGES
-----------------------
   0 Pd:    0.378671
   1 O :   -0.393381
   2 C :    0.413400
   3 O :   -0.336284
   4 C :   -0.709687
   5 H :    0.224636
   6 H :    0.287737
   7 H :    0.296194
   8 N :   -0.475406
   9 C :   -0.522624
  10 H :    0.314715
  11 H :    0.198257
  12 H :    0.266064
  13 C :   -0.514270
  14 H :    0.259755
  15 H :    0.215046
  16 H :    0.283851
  17 C :    0.088284
  18 C :   -0.278163
  19 C :   -0.216359
  20 C :   -0.238472
  21 C :   -0.313141
  22 C :   -0.060105
  23 H :    0.208574
  24 H :    0.199064
  25 H :    0.204866
  26 H :    0.219165
  27 H :    0.469020
  28 C :   -0.318450
  29 H :    0.256188
  30 H :    0.223422
  31 O :   -0.562713
  32 C :    0.522880
  33 O :   -0.493712
  34 C :   -0.738957
  35 H :    0.224368
  36 H :    0.212713
  37 H :    0.204850
Sum of atomic charges:    0.0000000

LOEWDIN ATOMIC CHARGES
----------------------
   0 Pd:   -0.394313
   1 O :   -0.084541
   2 C :    0.053414
   3 O :   -0.062692
   4 C :   -0.360534
   5 H :    0.137363
   6 H :    0.178936
   7 H :    0.179638
   8 N :   -0.046439
   9 C :   -0.232172
  10 H :    0.176430
  11 H :    0.112768
  12 H :    0.151997
  13 C :   -0.230142
  14 H :    0.145563
  15 H :    0.121290
  16 H :    0.161897
  17 C :   -0.048513
  18 C :   -0.136025
  19 C :   -0.150632
  20 C :   -0.132201
  21 C :   -0.126619
  22 C :   -0.010392
  23 H :    0.131064
  24 H :    0.142213
  25 H :    0.132517
  26 H :    0.138640
  27 H :    0.416177
  28 C :   -0.104779
  29 H :    0.147433
  30 H :    0.126342
  31 O :   -0.298985
  32 C :    0.094443
  33 O :   -0.315911
  34 C :   -0.403155
  35 H :    0.133144
  36 H :    0.133318
  37 H :    0.123459

  Mayer bond orders larger than 0.100000
B(  0-Pd,  1-O ) :   0.3916 B(  0-Pd,  8-N ) :   0.4416 B(  0-Pd, 22-C ) :   0.9823
B(  0-Pd, 31-O ) :   0.3917 B(  1-O ,  2-C ) :   1.6468 B(  2-C ,  3-O ) :   1.3339
B(  2-C ,  4-C ) :   0.9424 B(  3-O , 27-H ) :   0.6888 B(  4-C ,  5-H ) :   0.9055
B(  4-C ,  6-H ) :   0.8846 B(  4-C ,  7-H ) :   0.8984 B(  8-N ,  9-C ) :   0.9052
B(  8-N , 13-C ) :   0.9179 B(  8-N , 28-C ) :   0.8859 B(  9-C , 10-H ) :   0.8583
B(  9-C , 11-H ) :   0.9058 B(  9-C , 12-H ) :   0.9013 B( 13-C , 14-H ) :   0.9044
B( 13-C , 15-H ) :   0.9029 B( 13-C , 16-H ) :   0.8958 B( 17-C , 18-C ) :   1.4234
B( 17-C , 22-C ) :   1.2748 B( 17-C , 28-C ) :   0.9685 B( 18-C , 19-C ) :   1.3939
B( 18-C , 25-H ) :   0.9244 B( 19-C , 20-C ) :   1.4549 B( 19-C , 26-H ) :   0.9175
B( 20-C , 21-C ) :   1.3743 B( 20-C , 23-H ) :   0.9217 B( 21-C , 22-C ) :   1.3785
B( 21-C , 24-H ) :   0.9264 B( 28-C , 29-H ) :   0.8940 B( 28-C , 30-H ) :   0.9040
B( 31-O , 32-C ) :   1.4265 B( 31-O , 33-O ) :   0.1107 B( 32-C , 33-O ) :   1.8270
B( 32-C , 34-C ) :   0.9064 B( 34-C , 35-H ) :   0.9252 B( 34-C , 36-H ) :   0.9260
B( 34-C , 37-H ) :   0.9245

Dispersion correction           -0.026194496
FINAL SINGLE POINT ENERGY      -988.334003361351
Dispersion correction            ... done

DIPOLE MOMENT
-------------
                                X             Y             Z
Electronic contribution:      5.12702      11.85117       8.46472
Nuclear contribution   :     -6.56592      -9.18066      -7.13302
                        -----------------------------------------
Total Dipole Moment    :     -1.43890       2.67051       1.33170
                        -----------------------------------------
Magnitude (a.u.)       :      3.31293
Magnitude (Debye)      :      8.42080

Rotational constants in cm-1:     0.014815     0.008622     0.006398
Rotational constants in MHz :   444.130120   258.484660   191.817473

                             ****ORCA TERMINATED NORMALLY****
TOTAL RUN TIME: 0 days 0 hours 8 minutes 54 seconds 159 msec
