                         Program Version 5.0.3 -  RELEASE  -
|  1> ! EnGrad PBEh-3c
|  2> %output
|  3> xyzfile=True
|  4> end
|  5> %scf
|  6> maxiter 250
|  7> end
|  8> %output
|  9> Print[P_Hirshfeld] = 1
| 10> end
| 11> % maxcore
| 12> 4000
| 13> *xyz 0 1
| 14> Pd   0.23367528   0.17320411  -0.03257079
| 15> O    1.69999050   1.45430562   0.71171657
| 16> C    1.69379047   2.66660500   0.40153920
| 17> O    0.49163856   3.19638445  -0.09448481
| 18> C    2.87027263   3.54208915   0.70861351
| 19> H    2.65226085   4.49805775   1.19871450
| 20> H    3.35019148   3.69820507  -0.24810714
| 21> H    3.58746407   2.99551495   1.31736210
| 22> N   -1.26648866  -0.98084028  -0.87455612
| 23> C   -0.84651099  -2.36142993  -1.16905976
| 24> H   -0.01414035  -2.34689099  -1.86902299
| 25> H   -1.68810385  -2.91585430  -1.60703969
| 26> H   -0.53708929  -2.87771068  -0.25988782
| 27> C   -1.74466492  -0.38431737  -2.13184485
| 28> H   -1.92004765   0.68259147  -2.03432118
| 29> H   -2.69181013  -0.85713376  -2.42522883
| 30> H   -1.00922806  -0.51514008  -2.92173100
| 31> C   -1.84163157  -1.12941055   1.48321220
| 32> C   -2.54002796  -1.79669079   2.46995942
| 33> C   -2.14260473  -1.69685424   3.79265526
| 34> C   -1.08274258  -0.83880773   4.08201815
| 35> C   -0.35025105  -0.15116456   3.10673415
| 36> C   -0.70232952  -0.36821393   1.77174767
| 37> H   -0.80608682  -0.74456547   5.10965026
| 38> H    0.36827735   0.62797647   3.38886008
| 39> H   -3.37083006  -2.43201128   2.19706383
| 40> H   -2.68058865  -2.27932681   4.55814398
| 41> H    0.12266526   3.40376790   0.78240116
| 42> C   -2.37700022  -1.01709030   0.09209185
| 43> H   -2.95252922  -0.08314139  -0.02666917
| 44> H   -3.07139744  -1.83814366  -0.14509538
| 45> O    1.30213811   0.60064788  -1.84402094
| 46> C    2.08157292  -0.22828670  -2.44865713
| 47> O    2.12787700  -1.42492913  -2.22573264
| 48> C    3.04833912   0.33197501  -3.50755997
| 49> H    3.42038441  -0.46644177  -4.15458042
| 50> H    3.93526653   0.75345050  -3.02270681
| 51> H    2.63422850   1.12482001  -4.12935039
| 52> *
| 53>
| 54>                          ****END OF INPUT****

CARTESIAN COORDINATES (ANGSTROEM)
---------------------------------
  Pd     0.233675    0.173204   -0.032571
  O      1.699990    1.454306    0.711717
  C      1.693790    2.666605    0.401539
  O      0.491639    3.196384   -0.094485
  C      2.870273    3.542089    0.708614
  H      2.652261    4.498058    1.198714
  H      3.350191    3.698205   -0.248107
  H      3.587464    2.995515    1.317362
  N     -1.266489   -0.980840   -0.874556
  C     -0.846511   -2.361430   -1.169060
  H     -0.014140   -2.346891   -1.869023
  H     -1.688104   -2.915854   -1.607040
  H     -0.537089   -2.877711   -0.259888
  C     -1.744665   -0.384317   -2.131845
  H     -1.920048    0.682591   -2.034321
  H     -2.691810   -0.857134   -2.425229
  H     -1.009228   -0.515140   -2.921731
  C     -1.841632   -1.129411    1.483212
  C     -2.540028   -1.796691    2.469959
  C     -2.142605   -1.696854    3.792655
  C     -1.082743   -0.838808    4.082018
  C     -0.350251   -0.151165    3.106734
  C     -0.702330   -0.368214    1.771748
  H     -0.806087   -0.744565    5.109650
  H      0.368277    0.627976    3.388860
  H     -3.370830   -2.432011    2.197064
  H     -2.680589   -2.279327    4.558144
  H      0.122665    3.403768    0.782401
  C     -2.377000   -1.017090    0.092092
  H     -2.952529   -0.083141   -0.026669
  H     -3.071397   -1.838144   -0.145095
  O      1.302138    0.600648   -1.844021
  C      2.081573   -0.228287   -2.448657
  O      2.127877   -1.424929   -2.225733
  C      3.048339    0.331975   -3.507560
  H      3.420384   -0.466442   -4.154580
  H      3.935267    0.753450   -3.022707
  H      2.634228    1.124820   -4.129350

 Total Charge           Charge          ....    0
 Multiplicity           Mult            ....    1
 Number of Electrons    NEL             ....  154
 Basis Dimension        Dim             ....  339

ORBITAL ENERGIES
----------------

  NO   OCC          E(Eh)            E(eV)
   0   2.0000     -19.566636      -532.4352
   1   2.0000     -19.565745      -532.4110
   2   2.0000     -19.431921      -528.7694
   3   2.0000     -19.401397      -527.9389
   4   2.0000     -14.709330      -400.2612
   5   2.0000     -10.646566      -289.7078
   6   2.0000     -10.506732      -285.9027
   7   2.0000     -10.490267      -285.4547
   8   2.0000     -10.481811      -285.2246
   9   2.0000     -10.469428      -284.8876
  10   2.0000     -10.456260      -284.5293
  11   2.0000     -10.441475      -284.1270
  12   2.0000     -10.439715      -284.0791
  13   2.0000     -10.439058      -284.0612
  14   2.0000     -10.438185      -284.0375
  15   2.0000     -10.436969      -284.0044
  16   2.0000     -10.436763      -283.9988
  17   2.0000     -10.400976      -283.0249
  18   2.0000      -3.635184       -98.9184
  19   2.0000      -2.282365       -62.1063
  20   2.0000      -2.277154       -61.9645
  21   2.0000      -2.247228       -61.1502
  22   2.0000      -1.247014       -33.9330
  23   2.0000      -1.162342       -31.6289
  24   2.0000      -1.116273       -30.3753
  25   2.0000      -1.067882       -29.0585
  26   2.0000      -1.018297       -27.7093
  27   2.0000      -0.945606       -25.7312
  28   2.0000      -0.885456       -24.0945
  29   2.0000      -0.859087       -23.3769
  30   2.0000      -0.821556       -22.3557
  31   2.0000      -0.802700       -21.8426
  32   2.0000      -0.776686       -21.1347
  33   2.0000      -0.772722       -21.0268
  34   2.0000      -0.701557       -19.0903
  35   2.0000      -0.697139       -18.9701
  36   2.0000      -0.668582       -18.1931
  37   2.0000      -0.643450       -17.5092
  38   2.0000      -0.634118       -17.2552
  39   2.0000      -0.584785       -15.9128
  40   2.0000      -0.580638       -15.8000
  41   2.0000      -0.577072       -15.7029
  42   2.0000      -0.559435       -15.2230
  43   2.0000      -0.556187       -15.1346
  44   2.0000      -0.554185       -15.0801
  45   2.0000      -0.531409       -14.4604
  46   2.0000      -0.523441       -14.2435
  47   2.0000      -0.505592       -13.7579
  48   2.0000      -0.500436       -13.6176
  49   2.0000      -0.495008       -13.4699
  50   2.0000      -0.486297       -13.2328
  51   2.0000      -0.472008       -12.8440
  52   2.0000      -0.467772       -12.7287
  53   2.0000      -0.462835       -12.5944
  54   2.0000      -0.458386       -12.4733
  55   2.0000      -0.455039       -12.3823
  56   2.0000      -0.449338       -12.2271
  57   2.0000      -0.435404       -11.8479
  58   2.0000      -0.431928       -11.7534
  59   2.0000      -0.429044       -11.6749
  60   2.0000      -0.424267       -11.5449
  61   2.0000      -0.412083       -11.2133
  62   2.0000      -0.410383       -11.1671
  63   2.0000      -0.399904       -10.8819
  64   2.0000      -0.388988       -10.5849
  65   2.0000      -0.386322       -10.5124
  66   2.0000      -0.368650       -10.0315
  67   2.0000      -0.349500        -9.5104
  68   2.0000      -0.338509        -9.2113
  69   2.0000      -0.331452        -9.0193
  70   2.0000      -0.316119        -8.6020
  71   2.0000      -0.282851        -7.6968
  72   2.0000      -0.278577        -7.5805
  73   2.0000      -0.275217        -7.4890
  74   2.0000      -0.271284        -7.3820
  75   2.0000      -0.261083        -7.1044
  76   2.0000      -0.253105        -6.8873
  77   0.0000      -0.038617        -1.0508
  78   0.0000      -0.015563        -0.4235
  79   0.0000       0.019330         0.5260
  80   0.0000       0.026904         0.7321
  81   0.0000       0.044831         1.2199

MULLIKEN ATOMIC CHARGES
-----------------------
   0 Pd:    0.377147
   1 O :   -0.372982
   2 C :    0.606673
   3 O :   -0.573729
   4 C :   -0.742634
   5 H :    0.260028
   6 H :    0.290193
   7 H :    0.288563
   8 N :   -0.482149
   9 C :   -0.540384
  10 H :    0.315772
  11 H :    0.207467
  12 H :    0.274859
  13 C :   -0.521410
  14 H :    0.270600
  15 H :    0.220297
  16 H :    0.282772
  17 C :    0.101819
  18 C :   -0.278936
  19 C :   -0.219980
  20 C :   -0.235392
  21 C :   -0.299325
  22 C :   -0.095927
  23 H :    0.208592
  24 H :    0.203410
  25 H :    0.201626
  26 H :    0.212948
  27 H :    0.462728
  28 C :   -0.320506
  29 H :    0.261464
  30 H :    0.223504
  31 O :   -0.565079
  32 C :    0.531209
  33 O :   -0.476236
  34 C :   -0.746689
  35 H :    0.234308
  36 H :    0.217348
  37 H :    0.218030
Sum of atomic charges:    0.0000000

LOEWDIN ATOMIC CHARGES
----------------------
   0 Pd:   -0.427149
   1 O :   -0.038550
   2 C :    0.268652
   3 O :   -0.304818
   4 C :   -0.374037
   5 H :    0.159985
   6 H :    0.181647
   7 H :    0.170278
   8 N :   -0.027443
   9 C :   -0.236026
  10 H :    0.172562
  11 H :    0.115462
  12 H :    0.154885
  13 C :   -0.229471
  14 H :    0.150990
  15 H :    0.121699
  16 H :    0.159520
  17 C :   -0.066842
  18 C :   -0.133601
  19 C :   -0.147845
  20 C :   -0.132278
  21 C :   -0.133484
  22 C :   -0.022936
  23 H :    0.130495
  24 H :    0.139918
  25 H :    0.130317
  26 H :    0.135315
  27 H :    0.356822
  28 C :   -0.103270
  29 H :    0.149130
  30 H :    0.125699
  31 O :   -0.260127
  32 C :    0.102169
  33 O :   -0.294695
  34 C :   -0.397542
  35 H :    0.138173
  36 H :    0.136710
  37 H :    0.129684

  Mayer bond orders larger than 0.100000
B(  0-Pd,  1-O ) :   0.3560 B(  0-Pd,  8-N ) :   0.4691 B(  0-Pd, 22-C ) :   0.8430
B(  0-Pd, 31-O ) :   0.4611 B(  1-O ,  2-C ) :   1.7766 B(  2-C ,  3-O ) :   1.0769
B(  2-C ,  4-C ) :   0.9591 B(  3-O , 27-H ) :   0.7379 B(  4-C ,  5-H ) :   0.9027
B(  4-C ,  6-H ) :   0.8797 B(  4-C ,  7-H ) :   0.8927 B(  8-N ,  9-C ) :   0.9121
B(  8-N , 13-C ) :   0.9190 B(  8-N , 28-C ) :   0.8870 B(  9-C , 10-H ) :   0.8599
B(  9-C , 11-H ) :   0.9050 B(  9-C , 12-H ) :   0.8980 B( 13-C , 14-H ) :   0.9014
B( 13-C , 15-H ) :   0.9020 B( 13-C , 16-H ) :   0.8961 B( 17-C , 18-C ) :   1.4160
B( 17-C , 22-C ) :   1.3268 B( 17-C , 28-C ) :   0.9713 B( 18-C , 19-C ) :   1.4193
B( 18-C , 25-H ) :   0.9230 B( 19-C , 20-C ) :   1.4368 B( 19-C , 26-H ) :   0.9209
B( 20-C , 21-C ) :   1.4049 B( 20-C , 23-H ) :   0.9213 B( 21-C , 22-C ) :   1.3986
B( 21-C , 24-H ) :   0.9250 B( 28-C , 29-H ) :   0.8930 B( 28-C , 30-H ) :   0.9051
B( 31-O , 32-C ) :   1.3619 B( 31-O , 33-O ) :   0.1046 B( 32-C , 33-O ) :   1.8529
B( 32-C , 34-C ) :   0.9187 B( 34-C , 35-H ) :   0.9229 B( 34-C , 36-H ) :   0.9234
B( 34-C , 37-H ) :   0.9201

Dispersion correction           -0.026149611
FINAL SINGLE POINT ENERGY      -988.500385992545
Dispersion correction            ... done

DIPOLE MOMENT
-------------
                                X             Y             Z
Electronic contribution:      8.53519       9.87342      -0.99811
Nuclear contribution   :     -9.44503      -7.66248       1.94526
                        -----------------------------------------
Total Dipole Moment    :     -0.90984       2.21094       0.94715
                        -----------------------------------------
Magnitude (a.u.)       :      2.57161
Magnitude (Debye)      :      6.53650

Rotational constants in cm-1:     0.014805     0.008589     0.006379
Rotational constants in MHz :   443.828028   257.480492   191.245326

                             ****ORCA TERMINATED NORMALLY****
TOTAL RUN TIME: 0 days 0 hours 9 minutes 30 seconds 363 msec
