                         Program Version 5.0.3 -  RELEASE  -
|  1> ! EnGrad PBEh-3c
|  2> %output
|  3> xyzfile=True
|  4> end
|  5> %scf
|  6> maxiter 250
|  7> end
|  8> %output
|  9> Print[P_Hirshfeld] = 1
| 10> end
| 11> % maxcore
| 12> 4000
| 13> *xyz 0 1
| 14> Pd   0.25067197   0.11615708  -0.03887916
| 15> O    1.67853550   1.46669039   0.72997978
| 16> C    1.69092236   2.63220746   0.46549237
| 17> O    0.62547828   3.31075888   0.05715914
| 18> C    2.81726640   3.56275393   0.64180575
| 19> H    2.58858392   4.52953166   1.12255133
| 20> H    3.30943271   3.81486133  -0.29957157
| 21> H    3.47534418   3.01866833   1.27745293
| 22> N   -1.28081383  -0.96837074  -0.88588147
| 23> C   -0.85373102  -2.34569671  -1.17771887
| 24> H   -0.01537626  -2.33354962  -1.85970747
| 25> H   -1.69444707  -2.88255118  -1.61576951
| 26> H   -0.54320842  -2.86369853  -0.27415718
| 27> C   -1.75325541  -0.33038815  -2.12526311
| 28> H   -1.92198794   0.73652996  -1.98024015
| 29> H   -2.68528839  -0.80948396  -2.42629466
| 30> H   -1.01554140  -0.47956703  -2.90277089
| 31> C   -1.83682958  -1.13321096   1.45777027
| 32> C   -2.50809063  -1.84787305   2.43876485
| 33> C   -2.08506729  -1.71052097   3.75130977
| 34> C   -1.04096201  -0.85364976   4.06897510
| 35> C   -0.38272157  -0.16546648   3.02166506
| 36> C   -0.69846136  -0.33674968   1.66984514
| 37> H   -0.77478507  -0.69637833   5.12911908
| 38> H    0.38129051   0.54732999   3.30676232
| 39> H   -3.38716131  -2.45015385   2.17686829
| 40> H   -2.60164810  -2.25216143   4.51683837
| 41> H    0.08343111   3.30166436   0.84161957
| 42> C   -2.38157974  -1.02400726   0.09369181
| 43> H   -2.92728778  -0.08693721   0.03596659
| 44> H   -3.08638063  -1.81242479  -0.16846472
| 45> O    1.31192804   0.58513622  -1.84478631
| 46> C    2.08798783  -0.27895580  -2.40304345
| 47> O    2.13003058  -1.48203443  -2.17320095
| 48> C    3.05066076   0.29189778  -3.45533330
| 49> H    3.39800511  -0.51210070  -4.09710950
| 50> H    3.94098381   0.71557666  -2.98487087
| 51> H    2.62539268   1.07191031  -4.08972580
| 52> *
| 53>
| 54>                          ****END OF INPUT****

CARTESIAN COORDINATES (ANGSTROEM)
---------------------------------
  Pd     0.250672    0.116157   -0.038879
  O      1.678535    1.466690    0.729980
  C      1.690922    2.632207    0.465492
  O      0.625478    3.310759    0.057159
  C      2.817266    3.562754    0.641806
  H      2.588584    4.529532    1.122551
  H      3.309433    3.814861   -0.299572
  H      3.475344    3.018668    1.277453
  N     -1.280814   -0.968371   -0.885881
  C     -0.853731   -2.345697   -1.177719
  H     -0.015376   -2.333550   -1.859707
  H     -1.694447   -2.882551   -1.615770
  H     -0.543208   -2.863699   -0.274157
  C     -1.753255   -0.330388   -2.125263
  H     -1.921988    0.736530   -1.980240
  H     -2.685288   -0.809484   -2.426295
  H     -1.015541   -0.479567   -2.902771
  C     -1.836830   -1.133211    1.457770
  C     -2.508091   -1.847873    2.438765
  C     -2.085067   -1.710521    3.751310
  C     -1.040962   -0.853650    4.068975
  C     -0.382722   -0.165466    3.021665
  C     -0.698461   -0.336750    1.669845
  H     -0.774785   -0.696378    5.129119
  H      0.381291    0.547330    3.306762
  H     -3.387161   -2.450154    2.176868
  H     -2.601648   -2.252161    4.516838
  H      0.083431    3.301664    0.841620
  C     -2.381580   -1.024007    0.093692
  H     -2.927288   -0.086937    0.035967
  H     -3.086381   -1.812425   -0.168465
  O      1.311928    0.585136   -1.844786
  C      2.087988   -0.278956   -2.403043
  O      2.130031   -1.482034   -2.173201
  C      3.050661    0.291898   -3.455333
  H      3.398005   -0.512101   -4.097110
  H      3.940984    0.715577   -2.984871
  H      2.625393    1.071910   -4.089726

 Total Charge           Charge          ....    0
 Multiplicity           Mult            ....    1
 Number of Electrons    NEL             ....  154
 Basis Dimension        Dim             ....  339

ORBITAL ENERGIES
----------------

  NO   OCC          E(Eh)            E(eV)
   0   2.0000     -19.562013      -532.3094
   1   2.0000     -19.557820      -532.1953
   2   2.0000     -19.437690      -528.9264
   3   2.0000     -19.407981      -528.1180
   4   2.0000     -14.713596      -400.3773
   5   2.0000     -10.629509      -289.2436
   6   2.0000     -10.510974      -286.0181
   7   2.0000     -10.478738      -285.1409
   8   2.0000     -10.473209      -284.9905
   9   2.0000     -10.469711      -284.8953
  10   2.0000     -10.457617      -284.5662
  11   2.0000     -10.443240      -284.1750
  12   2.0000     -10.442787      -284.1627
  13   2.0000     -10.441031      -284.1149
  14   2.0000     -10.439699      -284.0787
  15   2.0000     -10.438998      -284.0596
  16   2.0000     -10.436429      -283.9897
  17   2.0000     -10.399171      -282.9758
  18   2.0000      -3.643445       -99.1432
  19   2.0000      -2.289820       -62.3092
  20   2.0000      -2.286778       -62.2264
  21   2.0000      -2.255826       -61.3841
  22   2.0000      -1.277106       -34.7518
  23   2.0000      -1.188235       -32.3335
  24   2.0000      -1.117931       -30.4204
  25   2.0000      -1.072733       -29.1906
  26   2.0000      -1.024188       -27.8696
  27   2.0000      -0.947466       -25.7819
  28   2.0000      -0.881176       -23.9780
  29   2.0000      -0.864821       -23.5330
  30   2.0000      -0.823030       -22.3958
  31   2.0000      -0.809542       -22.0288
  32   2.0000      -0.779263       -21.2048
  33   2.0000      -0.773878       -21.0583
  34   2.0000      -0.716394       -19.4941
  35   2.0000      -0.704825       -19.1793
  36   2.0000      -0.671670       -18.2771
  37   2.0000      -0.646789       -17.6000
  38   2.0000      -0.644050       -17.5255
  39   2.0000      -0.590380       -16.0651
  40   2.0000      -0.589381       -16.0379
  41   2.0000      -0.581520       -15.8240
  42   2.0000      -0.563450       -15.3322
  43   2.0000      -0.562059       -15.2944
  44   2.0000      -0.559413       -15.2224
  45   2.0000      -0.533887       -14.5278
  46   2.0000      -0.510996       -13.9049
  47   2.0000      -0.508929       -13.8487
  48   2.0000      -0.501975       -13.6594
  49   2.0000      -0.494971       -13.4689
  50   2.0000      -0.488065       -13.2809
  51   2.0000      -0.476017       -12.9531
  52   2.0000      -0.471198       -12.8220
  53   2.0000      -0.468070       -12.7368
  54   2.0000      -0.460723       -12.5369
  55   2.0000      -0.460095       -12.5198
  56   2.0000      -0.451290       -12.2802
  57   2.0000      -0.443912       -12.0795
  58   2.0000      -0.435139       -11.8407
  59   2.0000      -0.426357       -11.6018
  60   2.0000      -0.421693       -11.4748
  61   2.0000      -0.412113       -11.2142
  62   2.0000      -0.408198       -11.1076
  63   2.0000      -0.402968       -10.9653
  64   2.0000      -0.392741       -10.6870
  65   2.0000      -0.386931       -10.5289
  66   2.0000      -0.378373       -10.2961
  67   2.0000      -0.365437        -9.9440
  68   2.0000      -0.344275        -9.3682
  69   2.0000      -0.340619        -9.2687
  70   2.0000      -0.320730        -8.7275
  71   2.0000      -0.288345        -7.8463
  72   2.0000      -0.285584        -7.7711
  73   2.0000      -0.279737        -7.6120
  74   2.0000      -0.277820        -7.5599
  75   2.0000      -0.263378        -7.1669
  76   2.0000      -0.258215        -7.0264
  77   0.0000      -0.023968        -0.6522
  78   0.0000      -0.012280        -0.3342
  79   0.0000       0.016845         0.4584
  80   0.0000       0.026119         0.7107
  81   0.0000       0.049157         1.3376

MULLIKEN ATOMIC CHARGES
-----------------------
   0 Pd:    0.364448
   1 O :   -0.358616
   2 C :    0.608215
   3 O :   -0.570301
   4 C :   -0.749947
   5 H :    0.256833
   6 H :    0.289490
   7 H :    0.264160
   8 N :   -0.489341
   9 C :   -0.546546
  10 H :    0.318992
  11 H :    0.210235
  12 H :    0.280158
  13 C :   -0.512239
  14 H :    0.268109
  15 H :    0.222822
  16 H :    0.283345
  17 C :    0.071136
  18 C :   -0.258668
  19 C :   -0.243529
  20 C :   -0.202321
  21 C :   -0.331633
  22 C :   -0.068902
  23 H :    0.210992
  24 H :    0.201258
  25 H :    0.203404
  26 H :    0.213605
  27 H :    0.471987
  28 C :   -0.324959
  29 H :    0.266919
  30 H :    0.228219
  31 O :   -0.560886
  32 C :    0.540166
  33 O :   -0.481334
  34 C :   -0.747241
  35 H :    0.232635
  36 H :    0.220662
  37 H :    0.218678
Sum of atomic charges:   -0.0000000

LOEWDIN ATOMIC CHARGES
----------------------
   0 Pd:   -0.415609
   1 O :   -0.013470
   2 C :    0.201943
   3 O :   -0.275187
   4 C :   -0.377096
   5 H :    0.158379
   6 H :    0.180045
   7 H :    0.158133
   8 N :   -0.024321
   9 C :   -0.236301
  10 H :    0.173033
  11 H :    0.116328
  12 H :    0.157845
  13 C :   -0.225117
  14 H :    0.152640
  15 H :    0.122708
  16 H :    0.159990
  17 C :   -0.056773
  18 C :   -0.141813
  19 C :   -0.139848
  20 C :   -0.140764
  21 C :   -0.124250
  22 C :   -0.035538
  23 H :    0.135565
  24 H :    0.133928
  25 H :    0.133986
  26 H :    0.131723
  27 H :    0.359497
  28 C :   -0.107589
  29 H :    0.150519
  30 H :    0.126699
  31 O :   -0.258734
  32 C :    0.109196
  33 O :   -0.298216
  34 C :   -0.397400
  35 H :    0.136794
  36 H :    0.138202
  37 H :    0.130873

  Mayer bond orders larger than 0.100000
B(  0-Pd,  1-O ) :   0.3280 B(  0-Pd,  8-N ) :   0.4881 B(  0-Pd, 22-C ) :   0.8792
B(  0-Pd, 31-O ) :   0.4699 B(  1-O ,  2-C ) :   1.8297 B(  2-C ,  3-O ) :   1.1172
B(  2-C ,  4-C ) :   0.9650 B(  3-O , 27-H ) :   0.7291 B(  4-C ,  5-H ) :   0.9053
B(  4-C ,  6-H ) :   0.8865 B(  4-C ,  7-H ) :   0.9046 B(  8-N ,  9-C ) :   0.9084
B(  8-N , 13-C ) :   0.9157 B(  8-N , 28-C ) :   0.8866 B(  9-C , 10-H ) :   0.8565
B(  9-C , 11-H ) :   0.9054 B(  9-C , 12-H ) :   0.8949 B( 13-C , 14-H ) :   0.9034
B( 13-C , 15-H ) :   0.9012 B( 13-C , 16-H ) :   0.8951 B( 17-C , 18-C ) :   1.4169
B( 17-C , 22-C ) :   1.2999 B( 17-C , 28-C ) :   0.9771 B( 18-C , 19-C ) :   1.4136
B( 18-C , 25-H ) :   0.9250 B( 19-C , 20-C ) :   1.4492 B( 19-C , 26-H ) :   0.9182
B( 20-C , 21-C ) :   1.3939 B( 20-C , 23-H ) :   0.9213 B( 21-C , 22-C ) :   1.3988
B( 21-C , 24-H ) :   0.9220 B( 28-C , 29-H ) :   0.8921 B( 28-C , 30-H ) :   0.9047
B( 31-O , 32-C ) :   1.3567 B( 31-O , 33-O ) :   0.1071 B( 32-C , 33-O ) :   1.8442
B( 32-C , 34-C ) :   0.9202 B( 34-C , 35-H ) :   0.9226 B( 34-C , 36-H ) :   0.9229
B( 34-C , 37-H ) :   0.9212

Dispersion correction           -0.026335718
FINAL SINGLE POINT ENERGY      -988.511973707985
Dispersion correction            ... done

DIPOLE MOMENT
-------------
                                X             Y             Z
Electronic contribution:      8.97914       6.52537      -1.54496
Nuclear contribution   :    -10.21509      -4.58730       2.40435
                        -----------------------------------------
Total Dipole Moment    :     -1.23595       1.93808       0.85940
                        -----------------------------------------
Magnitude (a.u.)       :      2.45404
Magnitude (Debye)      :      6.23766

Rotational constants in cm-1:     0.014695     0.008727     0.006444
Rotational constants in MHz :   440.552329   261.632960   193.198090

                             ****ORCA TERMINATED NORMALLY****
TOTAL RUN TIME: 0 days 0 hours 8 minutes 10 seconds 88 msec
