                         Program Version 5.0.3 -  RELEASE  -
|  1> ! EnGrad PBEh-3c
|  2> %output
|  3> xyzfile=True
|  4> end
|  5> %scf
|  6> maxiter 250
|  7> end
|  8> %output
|  9> Print[P_Hirshfeld] = 1
| 10> end
| 11> % maxcore
| 12> 4000
| 13> *xyz 0 1
| 14> Pd   0.23146122   0.17983028  -0.00661149
| 15> O    1.69826859   1.46175328   0.68904484
| 16> C    1.71514426   2.68524402   0.42533438
| 17> O    0.45295461   3.17862632  -0.08716446
| 18> C    2.87430791   3.52964914   0.71285898
| 19> H    2.65326295   4.47809312   1.19886219
| 20> H    3.36054139   3.68745313  -0.24462701
| 21> H    3.61691301   2.98921856   1.32989768
| 22> N   -1.26928201  -0.98512246  -0.87139211
| 23> C   -0.84549788  -2.36573494  -1.17152971
| 24> H   -0.00945947  -2.34911416  -1.87590734
| 25> H   -1.69048829  -2.92013397  -1.60882849
| 26> H   -0.53605882  -2.87769114  -0.25644817
| 27> C   -1.74480525  -0.38936838  -2.13538445
| 28> H   -1.92046388   0.67748528  -2.03803972
| 29> H   -2.69660577  -0.86449138  -2.42686381
| 30> H   -1.00633682  -0.51867953  -2.92845727
| 31> C   -1.83853626  -1.11477062   1.48578334
| 32> C   -2.53708321  -1.78912859   2.47231543
| 33> C   -2.14924698  -1.69833675   3.79643446
| 34> C   -1.08970168  -0.83779888   4.08490836
| 35> C   -0.35214954  -0.14215287   3.10282553
| 36> C   -0.69545011  -0.36442267   1.77834546
| 37> H   -0.80782440  -0.74977219   5.11412390
| 38> H    0.36021480   0.62975090   3.40323728
| 39> H   -3.37120410  -2.43554091   2.20212134
| 40> H   -2.68722803  -2.28335341   4.56832978
| 41> H    0.11985630   3.41677137   0.74260086
| 42> C   -2.37857565  -1.01794107   0.09322201
| 43> H   -2.95529943  -0.08253745  -0.03334949
| 44> H   -3.06852058  -1.84413640  -0.14546397
| 45> O    1.30560238   0.60753181  -1.85103485
| 46> C    2.07836198  -0.22137324  -2.45525517
| 47> O    2.12748014  -1.42168925  -2.23045547
| 48> C    3.04867278   0.33576741  -3.51394716
| 49> H    3.42264566  -0.46232780  -4.16102006
| 50> H    3.93621971   0.75897579  -3.02399677
| 51> H    2.63415939   1.13218334  -4.13399179
| 52> *
| 53>
| 54>                          ****END OF INPUT****

CARTESIAN COORDINATES (ANGSTROEM)
---------------------------------
  Pd     0.231461    0.179830   -0.006611
  O      1.698269    1.461753    0.689045
  C      1.715144    2.685244    0.425334
  O      0.452955    3.178626   -0.087164
  C      2.874308    3.529649    0.712859
  H      2.653263    4.478093    1.198862
  H      3.360541    3.687453   -0.244627
  H      3.616913    2.989219    1.329898
  N     -1.269282   -0.985122   -0.871392
  C     -0.845498   -2.365735   -1.171530
  H     -0.009459   -2.349114   -1.875907
  H     -1.690488   -2.920134   -1.608828
  H     -0.536059   -2.877691   -0.256448
  C     -1.744805   -0.389368   -2.135384
  H     -1.920464    0.677485   -2.038040
  H     -2.696606   -0.864491   -2.426864
  H     -1.006337   -0.518680   -2.928457
  C     -1.838536   -1.114771    1.485783
  C     -2.537083   -1.789129    2.472315
  C     -2.149247   -1.698337    3.796434
  C     -1.089702   -0.837799    4.084908
  C     -0.352150   -0.142153    3.102826
  C     -0.695450   -0.364423    1.778345
  H     -0.807824   -0.749772    5.114124
  H      0.360215    0.629751    3.403237
  H     -3.371204   -2.435541    2.202121
  H     -2.687228   -2.283353    4.568330
  H      0.119856    3.416771    0.742601
  C     -2.378576   -1.017941    0.093222
  H     -2.955299   -0.082537   -0.033349
  H     -3.068521   -1.844136   -0.145464
  O      1.305602    0.607532   -1.851035
  C      2.078362   -0.221373   -2.455255
  O      2.127480   -1.421689   -2.230455
  C      3.048673    0.335767   -3.513947
  H      3.422646   -0.462328   -4.161020
  H      3.936220    0.758976   -3.023997
  H      2.634159    1.132183   -4.133992

 Total Charge           Charge          ....    0
 Multiplicity           Mult            ....    1
 Number of Electrons    NEL             ....  154
 Basis Dimension        Dim             ....  339

ORBITAL ENERGIES
----------------

  NO   OCC          E(Eh)            E(eV)
   0   2.0000     -19.567696      -532.4641
   1   2.0000     -19.557091      -532.1755
   2   2.0000     -19.429072      -528.6919
   3   2.0000     -19.398124      -527.8498
   4   2.0000     -14.707969      -400.2242
   5   2.0000     -10.647469      -289.7324
   6   2.0000     -10.504171      -285.8330
   7   2.0000     -10.495808      -285.6055
   8   2.0000     -10.482178      -285.2346
   9   2.0000     -10.469509      -284.8898
  10   2.0000     -10.456552      -284.5373
  11   2.0000     -10.442868      -284.1649
  12   2.0000     -10.440221      -284.0929
  13   2.0000     -10.439554      -284.0747
  14   2.0000     -10.439270      -284.0670
  15   2.0000     -10.438492      -284.0458
  16   2.0000     -10.438040      -284.0335
  17   2.0000     -10.399868      -282.9948
  18   2.0000      -3.635222       -98.9194
  19   2.0000      -2.282309       -62.1048
  20   2.0000      -2.277515       -61.9743
  21   2.0000      -2.247166       -61.1485
  22   2.0000      -1.243090       -33.8262
  23   2.0000      -1.160204       -31.5708
  24   2.0000      -1.112683       -30.2776
  25   2.0000      -1.065727       -28.9999
  26   2.0000      -1.015026       -27.6203
  27   2.0000      -0.946093       -25.7445
  28   2.0000      -0.898351       -24.4454
  29   2.0000      -0.857886       -23.3443
  30   2.0000      -0.823313       -22.4035
  31   2.0000      -0.800198       -21.7745
  32   2.0000      -0.776286       -21.1238
  33   2.0000      -0.770248       -20.9595
  34   2.0000      -0.700535       -19.0625
  35   2.0000      -0.695837       -18.9347
  36   2.0000      -0.668864       -18.2007
  37   2.0000      -0.643359       -17.5067
  38   2.0000      -0.634756       -17.2726
  39   2.0000      -0.586200       -15.9513
  40   2.0000      -0.582111       -15.8400
  41   2.0000      -0.576705       -15.6929
  42   2.0000      -0.556731       -15.1494
  43   2.0000      -0.554579       -15.0909
  44   2.0000      -0.551590       -15.0095
  45   2.0000      -0.530208       -14.4277
  46   2.0000      -0.526914       -14.3381
  47   2.0000      -0.505795       -13.7634
  48   2.0000      -0.500198       -13.6111
  49   2.0000      -0.495033       -13.4705
  50   2.0000      -0.483413       -13.1543
  51   2.0000      -0.470162       -12.7938
  52   2.0000      -0.466023       -12.6811
  53   2.0000      -0.460706       -12.5365
  54   2.0000      -0.458001       -12.4628
  55   2.0000      -0.454112       -12.3570
  56   2.0000      -0.448735       -12.2107
  57   2.0000      -0.437222       -11.8974
  58   2.0000      -0.434702       -11.8288
  59   2.0000      -0.428611       -11.6631
  60   2.0000      -0.423153       -11.5146
  61   2.0000      -0.410084       -11.1590
  62   2.0000      -0.405225       -11.0267
  63   2.0000      -0.400362       -10.8944
  64   2.0000      -0.388598       -10.5743
  65   2.0000      -0.385311       -10.4848
  66   2.0000      -0.366796        -9.9810
  67   2.0000      -0.348524        -9.4838
  68   2.0000      -0.338209        -9.2031
  69   2.0000      -0.332564        -9.0495
  70   2.0000      -0.315584        -8.5875
  71   2.0000      -0.282086        -7.6760
  72   2.0000      -0.277677        -7.5560
  73   2.0000      -0.273213        -7.4345
  74   2.0000      -0.270331        -7.3561
  75   2.0000      -0.261055        -7.1037
  76   2.0000      -0.251061        -6.8317
  77   0.0000      -0.041713        -1.1351
  78   0.0000      -0.017236        -0.4690
  79   0.0000       0.019466         0.5297
  80   0.0000       0.026398         0.7183
  81   0.0000       0.048053         1.3076

MULLIKEN ATOMIC CHARGES
-----------------------
   0 Pd:    0.380953
   1 O :   -0.370058
   2 C :    0.612738
   3 O :   -0.589336
   4 C :   -0.750667
   5 H :    0.265184
   6 H :    0.297219
   7 H :    0.291667
   8 N :   -0.478561
   9 C :   -0.538228
  10 H :    0.315788
  11 H :    0.206000
  12 H :    0.272277
  13 C :   -0.520430
  14 H :    0.270524
  15 H :    0.218435
  16 H :    0.282236
  17 C :    0.108004
  18 C :   -0.282844
  19 C :   -0.216260
  20 C :   -0.240460
  21 C :   -0.300332
  22 C :   -0.089770
  23 H :    0.208599
  24 H :    0.204249
  25 H :    0.201132
  26 H :    0.213675
  27 H :    0.457603
  28 C :   -0.320017
  29 H :    0.260665
  30 H :    0.223722
  31 O :   -0.559727
  32 C :    0.529335
  33 O :   -0.483078
  34 C :   -0.744823
  35 H :    0.233554
  36 H :    0.214593
  37 H :    0.216439
Sum of atomic charges:    0.0000000

LOEWDIN ATOMIC CHARGES
----------------------
   0 Pd:   -0.418073
   1 O :   -0.029953
   2 C :    0.283244
   3 O :   -0.324783
   4 C :   -0.372073
   5 H :    0.163005
   6 H :    0.187574
   7 H :    0.176269
   8 N :   -0.030685
   9 C :   -0.236339
  10 H :    0.173433
  11 H :    0.114869
  12 H :    0.153984
  13 C :   -0.229608
  14 H :    0.150616
  15 H :    0.121272
  16 H :    0.159758
  17 C :   -0.063939
  18 C :   -0.132640
  19 C :   -0.148839
  20 C :   -0.130990
  21 C :   -0.133098
  22 C :   -0.020316
  23 H :    0.130172
  24 H :    0.140409
  25 H :    0.130242
  26 H :    0.135894
  27 H :    0.339190
  28 C :   -0.103281
  29 H :    0.149311
  30 H :    0.125948
  31 O :   -0.261785
  32 C :    0.099413
  33 O :   -0.302553
  34 C :   -0.397768
  35 H :    0.137598
  36 H :    0.135606
  37 H :    0.128915

  Mayer bond orders larger than 0.100000
B(  0-Pd,  1-O ) :   0.3529 B(  0-Pd,  8-N ) :   0.4652 B(  0-Pd, 22-C ) :   0.8573
B(  0-Pd, 31-O ) :   0.4491 B(  1-O ,  2-C ) :   1.7827 B(  2-C ,  3-O ) :   1.0516
B(  2-C ,  4-C ) :   0.9660 B(  3-O , 27-H ) :   0.7458 B(  4-C ,  5-H ) :   0.8985
B(  4-C ,  6-H ) :   0.8735 B(  4-C ,  7-H ) :   0.8908 B(  8-N ,  9-C ) :   0.9120
B(  8-N , 13-C ) :   0.9188 B(  8-N , 28-C ) :   0.8872 B(  9-C , 10-H ) :   0.8592
B(  9-C , 11-H ) :   0.9049 B(  9-C , 12-H ) :   0.8990 B( 13-C , 14-H ) :   0.9013
B( 13-C , 15-H ) :   0.9024 B( 13-C , 16-H ) :   0.8965 B( 17-C , 18-C ) :   1.4164
B( 17-C , 22-C ) :   1.3205 B( 17-C , 28-C ) :   0.9696 B( 18-C , 19-C ) :   1.4144
B( 18-C , 25-H ) :   0.9236 B( 19-C , 20-C ) :   1.4418 B( 19-C , 26-H ) :   0.9205
B( 20-C , 21-C ) :   1.3984 B( 20-C , 23-H ) :   0.9212 B( 21-C , 22-C ) :   1.4014
B( 21-C , 24-H ) :   0.9249 B( 28-C , 29-H ) :   0.8933 B( 28-C , 30-H ) :   0.9049
B( 31-O , 32-C ) :   1.3786 B( 31-O , 33-O ) :   0.1058 B( 32-C , 33-O ) :   1.8432
B( 32-C , 34-C ) :   0.9169 B( 34-C , 35-H ) :   0.9230 B( 34-C , 36-H ) :   0.9245
B( 34-C , 37-H ) :   0.9205

Dispersion correction           -0.026152031
FINAL SINGLE POINT ENERGY      -988.490926446341
Dispersion correction            ... done

DIPOLE MOMENT
-------------
                                X             Y             Z
Electronic contribution:      8.53997      10.26141       0.50931
Nuclear contribution   :     -9.35772      -7.99848       0.55213
                        -----------------------------------------
Total Dipole Moment    :     -0.81775       2.26294       1.06144
                        -----------------------------------------
Magnitude (a.u.)       :      2.62988
Magnitude (Debye)      :      6.68462

Rotational constants in cm-1:     0.014795     0.008584     0.006374
Rotational constants in MHz :   443.544351   257.346314   191.098544

                             ****ORCA TERMINATED NORMALLY****
TOTAL RUN TIME: 0 days 0 hours 8 minutes 32 seconds 99 msec
