                         Program Version 5.0.3 -  RELEASE  -
|  1> ! EnGrad PBEh-3c
|  2> %output
|  3> xyzfile=True
|  4> end
|  5> %scf
|  6> maxiter 250
|  7> end
|  8> %output
|  9> Print[P_Hirshfeld] = 1
| 10> end
| 11> % maxcore
| 12> 4000
| 13> *xyz 0 1
| 14> Pd   0.20954196   0.19322804   0.06089683
| 15> O    1.66737722   1.59197154   0.62629974
| 16> C    1.66114168   2.68451053   0.45035920
| 17> O    0.43605071   3.13146128  -0.11148664
| 18> C    2.86936842   3.53712127   0.71191022
| 19> H    2.63622221   4.47107968   1.19253040
| 20> H    3.35602462   3.69407604  -0.25472681
| 21> H    3.63752087   3.00095788   1.33470105
| 22> N   -1.28010021  -0.97947901  -0.86548300
| 23> C   -0.85229334  -2.36385216  -1.19482312
| 24> H   -0.01736141  -2.32989770  -1.91177992
| 25> H   -1.71559815  -2.90370891  -1.62956587
| 26> H   -0.54321140  -2.87867879  -0.27742718
| 27> C   -1.75538582  -0.36866013  -2.13459686
| 28> H   -1.92434312   0.70144111  -2.02219310
| 29> H   -2.71893077  -0.83706553  -2.41574062
| 30> H   -1.01205883  -0.48536928  -2.93288310
| 31> C   -1.82053370  -1.10490429   1.49077583
| 32> C   -2.51787682  -1.80669878   2.46986207
| 33> C   -2.14148885  -1.72673071   3.79959308
| 34> C   -1.09222751  -0.84056251   4.08068908
| 35> C   -0.35705404  -0.12305731   3.09099022
| 36> C   -0.65521013  -0.36162555   1.76398952
| 37> H   -0.80800118  -0.75854039   5.11691423
| 38> H    0.33027834   0.68794855   3.41370462
| 39> H   -3.34465148  -2.47599670   2.19984969
| 40> H   -2.67138447  -2.32688731   4.57459035
| 41> H    0.15282798   3.35925927   0.78421331
| 42> C   -2.38560495  -1.01752201   0.10255595
| 43> H   -2.95885198  -0.08015724  -0.02690487
| 44> H   -3.06442763  -1.85109844  -0.15087856
| 45> O    1.31637523   0.60311806  -1.85774058
| 46> C    2.08230366  -0.23738835  -2.45035249
| 47> O    2.14052003  -1.44349316  -2.21803986
| 48> C    3.06987446   0.31088632  -3.50932355
| 49> H    3.44470192  -0.49691925  -4.14888364
| 50> H    3.95659042   0.73429898  -3.01502512
| 51> H    2.65739982   1.10905740  -4.13548298
| 52> *
| 53>
| 54>                          ****END OF INPUT****

CARTESIAN COORDINATES (ANGSTROEM)
---------------------------------
  Pd     0.209542    0.193228    0.060897
  O      1.667377    1.591972    0.626300
  C      1.661142    2.684511    0.450359
  O      0.436051    3.131461   -0.111487
  C      2.869368    3.537121    0.711910
  H      2.636222    4.471080    1.192530
  H      3.356025    3.694076   -0.254727
  H      3.637521    3.000958    1.334701
  N     -1.280100   -0.979479   -0.865483
  C     -0.852293   -2.363852   -1.194823
  H     -0.017361   -2.329898   -1.911780
  H     -1.715598   -2.903709   -1.629566
  H     -0.543211   -2.878679   -0.277427
  C     -1.755386   -0.368660   -2.134597
  H     -1.924343    0.701441   -2.022193
  H     -2.718931   -0.837066   -2.415741
  H     -1.012059   -0.485369   -2.932883
  C     -1.820534   -1.104904    1.490776
  C     -2.517877   -1.806699    2.469862
  C     -2.141489   -1.726731    3.799593
  C     -1.092228   -0.840563    4.080689
  C     -0.357054   -0.123057    3.090990
  C     -0.655210   -0.361626    1.763990
  H     -0.808001   -0.758540    5.116914
  H      0.330278    0.687949    3.413705
  H     -3.344651   -2.475997    2.199850
  H     -2.671384   -2.326887    4.574590
  H      0.152828    3.359259    0.784213
  C     -2.385605   -1.017522    0.102556
  H     -2.958852   -0.080157   -0.026905
  H     -3.064428   -1.851098   -0.150879
  O      1.316375    0.603118   -1.857741
  C      2.082304   -0.237388   -2.450352
  O      2.140520   -1.443493   -2.218040
  C      3.069874    0.310886   -3.509324
  H      3.444702   -0.496919   -4.148884
  H      3.956590    0.734299   -3.015025
  H      2.657400    1.109057   -4.135483

 Total Charge           Charge          ....    0
 Multiplicity           Mult            ....    1
 Number of Electrons    NEL             ....  154
 Basis Dimension        Dim             ....  339

ORBITAL ENERGIES
----------------

  NO   OCC          E(Eh)            E(eV)
   0   2.0000     -19.563201      -532.3418
   1   2.0000     -19.547953      -531.9268
   2   2.0000     -19.426072      -528.6103
   3   2.0000     -19.395777      -527.7859
   4   2.0000     -14.711252      -400.3135
   5   2.0000     -10.622510      -289.0532
   6   2.0000     -10.502701      -285.7930
   7   2.0000     -10.488140      -285.3968
   8   2.0000     -10.486477      -285.3515
   9   2.0000     -10.473675      -285.0032
  10   2.0000     -10.461483      -284.6714
  11   2.0000     -10.451122      -284.3895
  12   2.0000     -10.449631      -284.3489
  13   2.0000     -10.448872      -284.3283
  14   2.0000     -10.446568      -284.2656
  15   2.0000     -10.445868      -284.2465
  16   2.0000     -10.444569      -284.2112
  17   2.0000     -10.398020      -282.9445
  18   2.0000      -3.643501       -99.1447
  19   2.0000      -2.290135       -62.3177
  20   2.0000      -2.287134       -62.2361
  21   2.0000      -2.255866       -61.3852
  22   2.0000      -1.313708       -35.7478
  23   2.0000      -1.170435       -31.8492
  24   2.0000      -1.106633       -30.1130
  25   2.0000      -1.064859       -28.9763
  26   2.0000      -1.010983       -27.5103
  27   2.0000      -0.949288       -25.8314
  28   2.0000      -0.878073       -23.8936
  29   2.0000      -0.859302       -23.3828
  30   2.0000      -0.830536       -22.6000
  31   2.0000      -0.799472       -21.7547
  32   2.0000      -0.778472       -21.1833
  33   2.0000      -0.765065       -20.8185
  34   2.0000      -0.700368       -19.0580
  35   2.0000      -0.682097       -18.5608
  36   2.0000      -0.672527       -18.3004
  37   2.0000      -0.648951       -17.6589
  38   2.0000      -0.646100       -17.5813
  39   2.0000      -0.607260       -16.5244
  40   2.0000      -0.595114       -16.1939
  41   2.0000      -0.579492       -15.7688
  42   2.0000      -0.556186       -15.1346
  43   2.0000      -0.555641       -15.1198
  44   2.0000      -0.547858       -14.9080
  45   2.0000      -0.531349       -14.4588
  46   2.0000      -0.522772       -14.2253
  47   2.0000      -0.509237       -13.8570
  48   2.0000      -0.501068       -13.6347
  49   2.0000      -0.498325       -13.5601
  50   2.0000      -0.482957       -13.1419
  51   2.0000      -0.474510       -12.9121
  52   2.0000      -0.469608       -12.7787
  53   2.0000      -0.460668       -12.5354
  54   2.0000      -0.458914       -12.4877
  55   2.0000      -0.456913       -12.4332
  56   2.0000      -0.450350       -12.2547
  57   2.0000      -0.437836       -11.9141
  58   2.0000      -0.432355       -11.7650
  59   2.0000      -0.428129       -11.6500
  60   2.0000      -0.424365       -11.5476
  61   2.0000      -0.409119       -11.1327
  62   2.0000      -0.403939       -10.9918
  63   2.0000      -0.398625       -10.8471
  64   2.0000      -0.393911       -10.7189
  65   2.0000      -0.382592       -10.4109
  66   2.0000      -0.370956       -10.0942
  67   2.0000      -0.360337        -9.8053
  68   2.0000      -0.348345        -9.4789
  69   2.0000      -0.341937        -9.3046
  70   2.0000      -0.322287        -8.7699
  71   2.0000      -0.287460        -7.8222
  72   2.0000      -0.279956        -7.6180
  73   2.0000      -0.273942        -7.4543
  74   2.0000      -0.272159        -7.4058
  75   2.0000      -0.263579        -7.1723
  76   2.0000      -0.249439        -6.7876
  77   0.0000      -0.029962        -0.8153
  78   0.0000       0.004446         0.1210
  79   0.0000       0.011812         0.3214
  80   0.0000       0.020047         0.5455
  81   0.0000       0.042506         1.1566

MULLIKEN ATOMIC CHARGES
-----------------------
   0 Pd:    0.377986
   1 O :   -0.238267
   2 C :    0.508731
   3 O :   -0.579663
   4 C :   -0.750219
   5 H :    0.253469
   6 H :    0.291126
   7 H :    0.275126
   8 N :   -0.473018
   9 C :   -0.531275
  10 H :    0.316229
  11 H :    0.204309
  12 H :    0.269119
  13 C :   -0.519570
  14 H :    0.270384
  15 H :    0.218183
  16 H :    0.283350
  17 C :    0.102493
  18 C :   -0.279815
  19 C :   -0.215516
  20 C :   -0.239628
  21 C :   -0.306610
  22 C :   -0.073994
  23 H :    0.211058
  24 H :    0.202288
  25 H :    0.204544
  26 H :    0.218124
  27 H :    0.443579
  28 C :   -0.320725
  29 H :    0.261664
  30 H :    0.225246
  31 O :   -0.557342
  32 C :    0.525174
  33 O :   -0.493376
  34 C :   -0.740896
  35 H :    0.230661
  36 H :    0.213668
  37 H :    0.213403
Sum of atomic charges:   -0.0000000

LOEWDIN ATOMIC CHARGES
----------------------
   0 Pd:   -0.388435
   1 O :    0.079103
   2 C :    0.165760
   3 O :   -0.320485
   4 C :   -0.373166
   5 H :    0.152990
   6 H :    0.181342
   7 H :    0.168207
   8 N :   -0.034641
   9 C :   -0.234589
  10 H :    0.175273
  11 H :    0.114945
  12 H :    0.152981
  13 C :   -0.230036
  14 H :    0.150585
  15 H :    0.122217
  16 H :    0.161146
  17 C :   -0.055153
  18 C :   -0.133018
  19 C :   -0.147778
  20 C :   -0.130019
  21 C :   -0.130350
  22 C :   -0.013008
  23 H :    0.131655
  24 H :    0.141248
  25 H :    0.132173
  26 H :    0.138094
  27 H :    0.343878
  28 C :   -0.103682
  29 H :    0.150036
  30 H :    0.126976
  31 O :   -0.275963
  32 C :    0.098341
  33 O :   -0.315436
  34 C :   -0.399759
  35 H :    0.136210
  36 H :    0.134756
  37 H :    0.127603

  Mayer bond orders larger than 0.100000
B(  0-Pd,  1-O ) :   0.3080 B(  0-Pd,  8-N ) :   0.4701 B(  0-Pd, 22-C ) :   0.9106
B(  0-Pd, 31-O ) :   0.4224 B(  1-O ,  2-C ) :   1.9408 B(  2-C ,  3-O ) :   1.0396
B(  2-C ,  4-C ) :   0.9334 B(  3-O , 27-H ) :   0.7562 B(  4-C ,  5-H ) :   0.9056
B(  4-C ,  6-H ) :   0.8848 B(  4-C ,  7-H ) :   0.9015 B(  8-N ,  9-C ) :   0.9080
B(  8-N , 13-C ) :   0.9163 B(  8-N , 28-C ) :   0.8848 B(  9-C , 10-H ) :   0.8580
B(  9-C , 11-H ) :   0.9047 B(  9-C , 12-H ) :   0.9001 B( 13-C , 14-H ) :   0.9009
B( 13-C , 15-H ) :   0.9021 B( 13-C , 16-H ) :   0.8961 B( 17-C , 18-C ) :   1.4186
B( 17-C , 22-C ) :   1.3033 B( 17-C , 28-C ) :   0.9687 B( 18-C , 19-C ) :   1.4058
B( 18-C , 25-H ) :   0.9237 B( 19-C , 20-C ) :   1.4475 B( 19-C , 26-H ) :   0.9184
B( 20-C , 21-C ) :   1.3899 B( 20-C , 23-H ) :   0.9207 B( 21-C , 22-C ) :   1.3890
B( 21-C , 24-H ) :   0.9260 B( 28-C , 29-H ) :   0.8924 B( 28-C , 30-H ) :   0.9041
B( 31-O , 32-C ) :   1.4049 B( 31-O , 33-O ) :   0.1083 B( 32-C , 33-O ) :   1.8280
B( 32-C , 34-C ) :   0.9127 B( 34-C , 35-H ) :   0.9235 B( 34-C , 36-H ) :   0.9250
B( 34-C , 37-H ) :   0.9215

Dispersion correction           -0.026247522
FINAL SINGLE POINT ENERGY      -988.458518799213
Dispersion correction            ... done

DIPOLE MOMENT
-------------
                                X             Y             Z
Electronic contribution:      7.15511      10.61094       4.41066
Nuclear contribution   :     -8.21604      -8.65936      -3.12177
                        -----------------------------------------
Total Dipole Moment    :     -1.06093       1.95158       1.28889
                        -----------------------------------------
Magnitude (a.u.)       :      2.56817
Magnitude (Debye)      :      6.52777

Rotational constants in cm-1:     0.014770     0.008595     0.006384
Rotational constants in MHz :   442.796831   257.684647   191.381118

                             ****ORCA TERMINATED NORMALLY****
TOTAL RUN TIME: 0 days 0 hours 9 minutes 16 seconds 734 msec
