                         Program Version 5.0.3 -  RELEASE  -
|  1> ! EnGrad PBEh-3c
|  2> %output
|  3> xyzfile=True
|  4> end
|  5> %scf
|  6> maxiter 250
|  7> end
|  8> %output
|  9> Print[P_Hirshfeld] = 1
| 10> end
| 11> % maxcore
| 12> 4000
| 13> *xyz 0 1
| 14> Pd   0.23616539   0.16882062   0.07299581
| 15> O    1.77331980   1.46570823   0.63322737
| 16> C    1.68815350   2.64020014   0.50154162
| 17> O    0.50758959   3.09135546  -0.05272644
| 18> C    2.96351246   3.44455955   0.74683498
| 19> H    2.66735933   4.37775164   1.19192653
| 20> H    3.42910792   3.64548202  -0.22429457
| 21> H    3.72654263   2.94819229   1.37949746
| 22> N   -1.26694439  -1.01329237  -0.87957568
| 23> C   -0.81621230  -2.40766112  -1.15165635
| 24> H    0.02329951  -2.39095090  -1.85105767
| 25> H   -1.66436113  -2.96185161  -1.58654873
| 26> H   -0.52144332  -2.86798268  -0.21086425
| 27> C   -1.73703208  -0.44793614  -2.17356599
| 28> H   -1.91690284   0.62298135  -2.07171119
| 29> H   -2.67849145  -0.94160056  -2.45139825
| 30> H   -0.98540979  -0.58939970  -2.95190987
| 31> C   -1.86120461  -1.03887351   1.50075776
| 32> C   -2.56764621  -1.75550366   2.48316886
| 33> C   -2.19330736  -1.66560697   3.81843594
| 34> C   -1.11569222  -0.83719100   4.11611179
| 35> C   -0.40534899  -0.14237609   3.10628024
| 36> C   -0.66503332  -0.29600214   1.72407094
| 37> H   -0.80774266  -0.75623788   5.16270183
| 38> H    0.37082966   0.53241032   3.46079746
| 39> H   -3.41786817  -2.39048350   2.23622286
| 40> H   -2.72428418  -2.21534440   4.59472726
| 41> H   -0.03687239   3.61196021   0.58856389
| 42> C   -2.39192464  -1.01897844   0.10050190
| 43> H   -2.95164880  -0.09524133  -0.06758777
| 44> H   -3.05565236  -1.85918098  -0.14368868
| 45> O    1.30649255   0.68044116  -1.88511270
| 46> C    2.05386343  -0.18138421  -2.49006086
| 47> O    2.11008523  -1.38982055  -2.27175380
| 48> C    3.02941463   0.40261521  -3.54926212
| 49> H    3.39387522  -0.39076965  -4.20812442
| 50> H    3.90286835   0.82130531  -3.04241296
| 51> H    2.59446015   1.20414217  -4.15463175
| 52> *
| 53>
| 54>                          ****END OF INPUT****

CARTESIAN COORDINATES (ANGSTROEM)
---------------------------------
  Pd     0.236165    0.168821    0.072996
  O      1.773320    1.465708    0.633227
  C      1.688154    2.640200    0.501542
  O      0.507590    3.091355   -0.052726
  C      2.963512    3.444560    0.746835
  H      2.667359    4.377752    1.191927
  H      3.429108    3.645482   -0.224295
  H      3.726543    2.948192    1.379497
  N     -1.266944   -1.013292   -0.879576
  C     -0.816212   -2.407661   -1.151656
  H      0.023300   -2.390951   -1.851058
  H     -1.664361   -2.961852   -1.586549
  H     -0.521443   -2.867983   -0.210864
  C     -1.737032   -0.447936   -2.173566
  H     -1.916903    0.622981   -2.071711
  H     -2.678491   -0.941601   -2.451398
  H     -0.985410   -0.589400   -2.951910
  C     -1.861205   -1.038874    1.500758
  C     -2.567646   -1.755504    2.483169
  C     -2.193307   -1.665607    3.818436
  C     -1.115692   -0.837191    4.116112
  C     -0.405349   -0.142376    3.106280
  C     -0.665033   -0.296002    1.724071
  H     -0.807743   -0.756238    5.162702
  H      0.370830    0.532410    3.460797
  H     -3.417868   -2.390483    2.236223
  H     -2.724284   -2.215344    4.594727
  H     -0.036872    3.611960    0.588564
  C     -2.391925   -1.018978    0.100502
  H     -2.951649   -0.095241   -0.067588
  H     -3.055652   -1.859181   -0.143689
  O      1.306493    0.680441   -1.885113
  C      2.053863   -0.181384   -2.490061
  O      2.110085   -1.389821   -2.271754
  C      3.029415    0.402615   -3.549262
  H      3.393875   -0.390770   -4.208124
  H      3.902868    0.821305   -3.042413
  H      2.594460    1.204142   -4.154632

 Total Charge           Charge          ....    0
 Multiplicity           Mult            ....    1
 Number of Electrons    NEL             ....  154
 Basis Dimension        Dim             ....  339

ORBITAL ENERGIES
----------------

  NO   OCC          E(Eh)            E(eV)
   0   2.0000     -19.567367      -532.4551
   1   2.0000     -19.557716      -532.1925
   2   2.0000     -19.423574      -528.5423
   3   2.0000     -19.397899      -527.8437
   4   2.0000     -14.707038      -400.1989
   5   2.0000     -10.632648      -289.3291
   6   2.0000     -10.501889      -285.7709
   7   2.0000     -10.486587      -285.3546
   8   2.0000     -10.481197      -285.2079
   9   2.0000     -10.470356      -284.9129
  10   2.0000     -10.457441      -284.5614
  11   2.0000     -10.450426      -284.3705
  12   2.0000     -10.448783      -284.3258
  13   2.0000     -10.442787      -284.1627
  14   2.0000     -10.442535      -284.1558
  15   2.0000     -10.441698      -284.1330
  16   2.0000     -10.438989      -284.0593
  17   2.0000     -10.395055      -282.8638
  18   2.0000      -3.643777       -99.1522
  19   2.0000      -2.291026       -62.3420
  20   2.0000      -2.286719       -62.2248
  21   2.0000      -2.255843       -61.3846
  22   2.0000      -1.267020       -34.4774
  23   2.0000      -1.168771       -31.8039
  24   2.0000      -1.102201       -29.9924
  25   2.0000      -1.054905       -28.7054
  26   2.0000      -1.008881       -27.4530
  27   2.0000      -0.941661       -25.6239
  28   2.0000      -0.870600       -23.6902
  29   2.0000      -0.857094       -23.3227
  30   2.0000      -0.822371       -22.3779
  31   2.0000      -0.797514       -21.7015
  32   2.0000      -0.774421       -21.0731
  33   2.0000      -0.762825       -20.7575
  34   2.0000      -0.719665       -19.5831
  35   2.0000      -0.696935       -18.9646
  36   2.0000      -0.669482       -18.2175
  37   2.0000      -0.643400       -17.5078
  38   2.0000      -0.640236       -17.4217
  39   2.0000      -0.584085       -15.8938
  40   2.0000      -0.579101       -15.7581
  41   2.0000      -0.574824       -15.6417
  42   2.0000      -0.553301       -15.0561
  43   2.0000      -0.551144       -14.9974
  44   2.0000      -0.543097       -14.7784
  45   2.0000      -0.527877       -14.3643
  46   2.0000      -0.508997       -13.8505
  47   2.0000      -0.505821       -13.7641
  48   2.0000      -0.498763       -13.5720
  49   2.0000      -0.495089       -13.4720
  50   2.0000      -0.473935       -12.8964
  51   2.0000      -0.467765       -12.7285
  52   2.0000      -0.463082       -12.6011
  53   2.0000      -0.457124       -12.4390
  54   2.0000      -0.453835       -12.3495
  55   2.0000      -0.452147       -12.3036
  56   2.0000      -0.448242       -12.1973
  57   2.0000      -0.438144       -11.9225
  58   2.0000      -0.431671       -11.7464
  59   2.0000      -0.429420       -11.6851
  60   2.0000      -0.423642       -11.5279
  61   2.0000      -0.410427       -11.1683
  62   2.0000      -0.405990       -11.0475
  63   2.0000      -0.400528       -10.8989
  64   2.0000      -0.387983       -10.5576
  65   2.0000      -0.379526       -10.3274
  66   2.0000      -0.370618       -10.0850
  67   2.0000      -0.362492        -9.8639
  68   2.0000      -0.346709        -9.4344
  69   2.0000      -0.337686        -9.1889
  70   2.0000      -0.322308        -8.7704
  71   2.0000      -0.284047        -7.7293
  72   2.0000      -0.275710        -7.5024
  73   2.0000      -0.274734        -7.4759
  74   2.0000      -0.270784        -7.3684
  75   2.0000      -0.259686        -7.0664
  76   2.0000      -0.250160        -6.8072
  77   0.0000      -0.028561        -0.7772
  78   0.0000      -0.013865        -0.3773
  79   0.0000       0.014186         0.3860
  80   0.0000       0.024154         0.6573
  81   0.0000       0.042672         1.1612

MULLIKEN ATOMIC CHARGES
-----------------------
   0 Pd:    0.374823
   1 O :   -0.325328
   2 C :    0.607075
   3 O :   -0.589386
   4 C :   -0.732737
   5 H :    0.236769
   6 H :    0.288462
   7 H :    0.283534
   8 N :   -0.475319
   9 C :   -0.533441
  10 H :    0.317647
  11 H :    0.203768
  12 H :    0.269455
  13 C :   -0.511841
  14 H :    0.262755
  15 H :    0.217462
  16 H :    0.282504
  17 C :    0.067152
  18 C :   -0.264018
  19 C :   -0.230277
  20 C :   -0.208976
  21 C :   -0.322819
  22 C :   -0.073444
  23 H :    0.210650
  24 H :    0.202775
  25 H :    0.204859
  26 H :    0.216896
  27 H :    0.460447
  28 C :   -0.319947
  29 H :    0.259095
  30 H :    0.225308
  31 O :   -0.556485
  32 C :    0.527887
  33 O :   -0.491736
  34 C :   -0.738874
  35 H :    0.226701
  36 H :    0.215469
  37 H :    0.213138
Sum of atomic charges:   -0.0000000

LOEWDIN ATOMIC CHARGES
----------------------
   0 Pd:   -0.378730
   1 O :    0.011163
   2 C :    0.223075
   3 O :   -0.284361
   4 C :   -0.369517
   5 H :    0.145182
   6 H :    0.177975
   7 H :    0.169996
   8 N :   -0.042264
   9 C :   -0.235541
  10 H :    0.174117
  11 H :    0.114565
  12 H :    0.152991
  13 C :   -0.229358
  14 H :    0.148239
  15 H :    0.121121
  16 H :    0.159930
  17 C :   -0.050973
  18 C :   -0.139494
  19 C :   -0.145975
  20 C :   -0.138873
  21 C :   -0.127450
  22 C :   -0.019040
  23 H :    0.133127
  24 H :    0.135616
  25 H :    0.133488
  26 H :    0.134629
  27 H :    0.355423
  28 C :   -0.104876
  29 H :    0.148216
  30 H :    0.126902
  31 O :   -0.286489
  32 C :    0.103378
  33 O :   -0.312678
  34 C :   -0.400851
  35 H :    0.133926
  36 H :    0.135413
  37 H :    0.127997

  Mayer bond orders larger than 0.100000
B(  0-Pd,  1-O ) :   0.3455 B(  0-Pd,  8-N ) :   0.4644 B(  0-Pd, 22-C ) :   0.9349
B(  0-Pd, 31-O ) :   0.4250 B(  1-O ,  2-C ) :   1.8124 B(  2-C ,  3-O ) :   1.0640
B(  2-C ,  4-C ) :   0.9504 B(  3-O , 27-H ) :   0.7378 B(  4-C ,  5-H ) :   0.9073
B(  4-C ,  6-H ) :   0.8855 B(  4-C ,  7-H ) :   0.8996 B(  8-N ,  9-C ) :   0.9087
B(  8-N , 13-C ) :   0.9185 B(  8-N , 28-C ) :   0.8822 B(  9-C , 10-H ) :   0.8563
B(  9-C , 11-H ) :   0.9064 B(  9-C , 12-H ) :   0.9001 B( 13-C , 14-H ) :   0.9056
B( 13-C , 15-H ) :   0.9023 B( 13-C , 16-H ) :   0.8969 B( 17-C , 18-C ) :   1.4039
B( 17-C , 22-C ) :   1.2969 B( 17-C , 28-C ) :   0.9754 B( 18-C , 19-C ) :   1.4212
B( 18-C , 25-H ) :   0.9250 B( 19-C , 20-C ) :   1.4409 B( 19-C , 26-H ) :   0.9169
B( 20-C , 21-C ) :   1.4101 B( 20-C , 23-H ) :   0.9206 B( 21-C , 22-C ) :   1.3681
B( 21-C , 24-H ) :   0.9229 B( 28-C , 29-H ) :   0.8937 B( 28-C , 30-H ) :   0.9051
B( 31-O , 32-C ) :   1.3978 B( 31-O , 33-O ) :   0.1102 B( 32-C , 33-O ) :   1.8302
B( 32-C , 34-C ) :   0.9120 B( 34-C , 35-H ) :   0.9241 B( 34-C , 36-H ) :   0.9250
B( 34-C , 37-H ) :   0.9229

Dispersion correction           -0.026168383
FINAL SINGLE POINT ENERGY      -988.497311245376
Dispersion correction            ... done

DIPOLE MOMENT
-------------
                                X             Y             Z
Electronic contribution:      8.34724       9.66451       4.95399
Nuclear contribution   :     -9.52775      -7.37489      -3.76034
                        -----------------------------------------
Total Dipole Moment    :     -1.18051       2.28962       1.19365
                        -----------------------------------------
Magnitude (a.u.)       :      2.83915
Magnitude (Debye)      :      7.21654

Rotational constants in cm-1:     0.014896     0.008555     0.006323
Rotational constants in MHz :   446.556187   256.468698   189.550815

                             ****ORCA TERMINATED NORMALLY****
TOTAL RUN TIME: 0 days 0 hours 8 minutes 48 seconds 679 msec
