                         Program Version 5.0.3 -  RELEASE  -
|  1> ! EnGrad PBEh-3c
|  2> %output
|  3> xyzfile=True
|  4> end
|  5> %scf
|  6> maxiter 250
|  7> end
|  8> %output
|  9> Print[P_Hirshfeld] = 1
| 10> end
| 11> % maxcore
| 12> 4000
| 13> *xyz 0 1
| 14> Pd   0.30638931   0.12047696  -0.06834161
| 15> O    1.88816649   1.24684343   0.73725242
| 16> C    1.86882492   2.46780513   0.56268350
| 17> O    0.68137487   3.03125380  -0.03024540
| 18> C    3.03519934   3.34261139   0.79491446
| 19> H    2.74895439   4.30129305   1.21414565
| 20> H    3.50980602   3.56784491  -0.17312609
| 21> H    3.76116894   2.85979979   1.41210521
| 22> N   -1.22723390  -1.05933071  -0.89562897
| 23> C   -0.76147559  -2.45636568  -1.04336470
| 24> H    0.09105693  -2.49580999  -1.69877234
| 25> H   -1.55348647  -3.06662076  -1.48611422
| 26> H   -0.48152394  -2.85996728  -0.08099418
| 27> C   -1.68840435  -0.58487175  -2.21016322
| 28> H   -1.89876029   0.47965008  -2.16829232
| 29> H   -2.58706719  -1.11919122  -2.51301428
| 30> H   -0.93452171  -0.77616080  -2.96023092
| 31> C   -1.94151122  -1.01062412   1.49598507
| 32> C   -2.67589845  -1.64220854   2.49525099
| 33> C   -2.27160931  -1.52860331   3.83241888
| 34> C   -1.13758832  -0.81700874   4.14309279
| 35> C   -0.39748998  -0.21518961   3.14903336
| 36> C   -0.76590512  -0.26795749   1.74377131
| 37> H   -0.81124594  -0.73338826   5.18184777
| 38> H    0.49985929   0.25212097   3.46568310
| 39> H   -3.55744882  -2.19818454   2.27384347
| 40> H   -2.83559190  -2.00640897   4.60745030
| 41> H   -0.28350473   4.04895890   0.36617217
| 42> C   -2.38463706  -1.01827614   0.07025424
| 43> H   -2.93860482  -0.10903951  -0.13338412
| 44> H   -3.05892919  -1.85263424  -0.12769029
| 45> O    1.26811959   0.75462962  -1.88879041
| 46> C    2.00221523  -0.07818366  -2.54720629
| 47> O    2.04724758  -1.27924556  -2.36140202
| 48> C    2.93206544   0.55991994  -3.60201732
| 49> H    3.28646287  -0.19473172  -4.29745924
| 50> H    3.79858861   0.97562260  -3.09492548
| 51> H    2.46731556   1.36092163  -4.16462109
| 52> *
| 53>
| 54>                          ****END OF INPUT****

CARTESIAN COORDINATES (ANGSTROEM)
---------------------------------
  Pd     0.306389    0.120477   -0.068342
  O      1.888166    1.246843    0.737252
  C      1.868825    2.467805    0.562684
  O      0.681375    3.031254   -0.030245
  C      3.035199    3.342611    0.794914
  H      2.748954    4.301293    1.214146
  H      3.509806    3.567845   -0.173126
  H      3.761169    2.859800    1.412105
  N     -1.227234   -1.059331   -0.895629
  C     -0.761476   -2.456366   -1.043365
  H      0.091057   -2.495810   -1.698772
  H     -1.553486   -3.066621   -1.486114
  H     -0.481524   -2.859967   -0.080994
  C     -1.688404   -0.584872   -2.210163
  H     -1.898760    0.479650   -2.168292
  H     -2.587067   -1.119191   -2.513014
  H     -0.934522   -0.776161   -2.960231
  C     -1.941511   -1.010624    1.495985
  C     -2.675898   -1.642209    2.495251
  C     -2.271609   -1.528603    3.832419
  C     -1.137588   -0.817009    4.143093
  C     -0.397490   -0.215190    3.149033
  C     -0.765905   -0.267957    1.743771
  H     -0.811246   -0.733388    5.181848
  H      0.499859    0.252121    3.465683
  H     -3.557449   -2.198185    2.273843
  H     -2.835592   -2.006409    4.607450
  H     -0.283505    4.048959    0.366172
  C     -2.384637   -1.018276    0.070254
  H     -2.938605   -0.109040   -0.133384
  H     -3.058929   -1.852634   -0.127690
  O      1.268120    0.754630   -1.888790
  C      2.002215   -0.078184   -2.547206
  O      2.047248   -1.279246   -2.361402
  C      2.932065    0.559920   -3.602017
  H      3.286463   -0.194732   -4.297459
  H      3.798589    0.975623   -3.094925
  H      2.467316    1.360922   -4.164621

 Total Charge           Charge          ....    0
 Multiplicity           Mult            ....    1
 Number of Electrons    NEL             ....  154
 Basis Dimension        Dim             ....  339

ORBITAL ENERGIES
----------------

  NO   OCC          E(Eh)            E(eV)
   0   2.0000     -19.561903      -532.3065
   1   2.0000     -19.559825      -532.2499
   2   2.0000     -19.432083      -528.7739
   3   2.0000     -19.405313      -528.0454
   4   2.0000     -14.706919      -400.1956
   5   2.0000     -10.635087      -289.3954
   6   2.0000     -10.506079      -285.8850
   7   2.0000     -10.478386      -285.1314
   8   2.0000     -10.476067      -285.0683
   9   2.0000     -10.464857      -284.7632
  10   2.0000     -10.452533      -284.4279
  11   2.0000     -10.440263      -284.0940
  12   2.0000     -10.439008      -284.0599
  13   2.0000     -10.434512      -283.9375
  14   2.0000     -10.430065      -283.8165
  15   2.0000     -10.429217      -283.7934
  16   2.0000     -10.428603      -283.7767
  17   2.0000     -10.397827      -282.9393
  18   2.0000      -3.631548       -98.8194
  19   2.0000      -2.278417       -61.9989
  20   2.0000      -2.273543       -61.8662
  21   2.0000      -2.243013       -61.0355
  22   2.0000      -1.220821       -33.2202
  23   2.0000      -1.117059       -30.3967
  24   2.0000      -1.093582       -29.7579
  25   2.0000      -1.054528       -28.6952
  26   2.0000      -1.019784       -27.7497
  27   2.0000      -0.936355       -25.4795
  28   2.0000      -0.877012       -23.8647
  29   2.0000      -0.857579       -23.3359
  30   2.0000      -0.808829       -22.0094
  31   2.0000      -0.800724       -21.7888
  32   2.0000      -0.773713       -21.0538
  33   2.0000      -0.771099       -20.9827
  34   2.0000      -0.697776       -18.9875
  35   2.0000      -0.667824       -18.1724
  36   2.0000      -0.666938       -18.1483
  37   2.0000      -0.632509       -17.2114
  38   2.0000      -0.601329       -16.3630
  39   2.0000      -0.572217       -15.5708
  40   2.0000      -0.568651       -15.4738
  41   2.0000      -0.559570       -15.2267
  42   2.0000      -0.552892       -15.0450
  43   2.0000      -0.551377       -15.0037
  44   2.0000      -0.545104       -14.8330
  45   2.0000      -0.527213       -14.3462
  46   2.0000      -0.504160       -13.7189
  47   2.0000      -0.500641       -13.6231
  48   2.0000      -0.490596       -13.3498
  49   2.0000      -0.482790       -13.1374
  50   2.0000      -0.471760       -12.8372
  51   2.0000      -0.467227       -12.7139
  52   2.0000      -0.465238       -12.6598
  53   2.0000      -0.461353       -12.5541
  54   2.0000      -0.452898       -12.3240
  55   2.0000      -0.443655       -12.0725
  56   2.0000      -0.435303       -11.8452
  57   2.0000      -0.430899       -11.7254
  58   2.0000      -0.428194       -11.6517
  59   2.0000      -0.419618       -11.4184
  60   2.0000      -0.411290       -11.1918
  61   2.0000      -0.404763       -11.0142
  62   2.0000      -0.394744       -10.7415
  63   2.0000      -0.391673       -10.6580
  64   2.0000      -0.385909       -10.5011
  65   2.0000      -0.373557       -10.1650
  66   2.0000      -0.360342        -9.8054
  67   2.0000      -0.350842        -9.5469
  68   2.0000      -0.334317        -9.0972
  69   2.0000      -0.320445        -8.7198
  70   2.0000      -0.313623        -8.5341
  71   2.0000      -0.279584        -7.6079
  72   2.0000      -0.278375        -7.5750
  73   2.0000      -0.274584        -7.4718
  74   2.0000      -0.270972        -7.3735
  75   2.0000      -0.256587        -6.9821
  76   2.0000      -0.253821        -6.9068
  77   0.0000      -0.100211        -2.7269
  78   0.0000      -0.020560        -0.5595
  79   0.0000      -0.004756        -0.1294
  80   0.0000       0.027266         0.7420
  81   0.0000       0.033844         0.9210

MULLIKEN ATOMIC CHARGES
-----------------------
   0 Pd:    0.375950
   1 O :   -0.372771
   2 C :    0.678442
   3 O :   -0.546597
   4 C :   -0.748981
   5 H :    0.252546
   6 H :    0.287556
   7 H :    0.280043
   8 N :   -0.481346
   9 C :   -0.549235
  10 H :    0.319663
  11 H :    0.209649
  12 H :    0.277299
  13 C :   -0.513946
  14 H :    0.263309
  15 H :    0.219692
  16 H :    0.281727
  17 C :    0.055277
  18 C :   -0.258645
  19 C :   -0.241557
  20 C :   -0.190573
  21 C :   -0.320260
  22 C :   -0.097355
  23 H :    0.207019
  24 H :    0.210730
  25 H :    0.201236
  26 H :    0.210913
  27 H :    0.389250
  28 C :   -0.313839
  29 H :    0.260163
  30 H :    0.224504
  31 O :   -0.553835
  32 C :    0.532884
  33 O :   -0.474980
  34 C :   -0.744488
  35 H :    0.229881
  36 H :    0.219516
  37 H :    0.221160
Sum of atomic charges:    0.0000000

LOEWDIN ATOMIC CHARGES
----------------------
   0 Pd:   -0.410352
   1 O :   -0.027621
   2 C :    0.273784
   3 O :   -0.311358
   4 C :   -0.371722
   5 H :    0.155999
   6 H :    0.181603
   7 H :    0.164205
   8 N :   -0.031844
   9 C :   -0.238264
  10 H :    0.171300
  11 H :    0.116092
  12 H :    0.155654
  13 C :   -0.229791
  14 H :    0.149200
  15 H :    0.119968
  16 H :    0.157890
  17 C :   -0.067042
  18 C :   -0.141601
  19 C :   -0.143016
  20 C :   -0.144650
  21 C :   -0.129738
  22 C :   -0.032454
  23 H :    0.131645
  24 H :    0.134654
  25 H :    0.131289
  26 H :    0.130970
  27 H :    0.363661
  28 C :   -0.103464
  29 H :    0.148326
  30 H :    0.126825
  31 O :   -0.253362
  32 C :    0.104065
  33 O :   -0.289401
  34 C :   -0.397118
  35 H :    0.135388
  36 H :    0.138315
  37 H :    0.131965

  Mayer bond orders larger than 0.100000
B(  0-Pd,  1-O ) :   0.3500 B(  0-Pd,  8-N ) :   0.4730 B(  0-Pd, 22-C ) :   0.8167
B(  0-Pd, 31-O ) :   0.4806 B(  1-O ,  2-C ) :   1.7446 B(  2-C ,  3-O ) :   1.0662
B(  2-C ,  4-C ) :   0.9683 B(  3-O , 27-H ) :   0.7432 B(  4-C ,  5-H ) :   0.9041
B(  4-C ,  6-H ) :   0.8837 B(  4-C ,  7-H ) :   0.8945 B(  8-N ,  9-C ) :   0.9122
B(  8-N , 13-C ) :   0.9221 B(  8-N , 28-C ) :   0.8835 B(  9-C , 10-H ) :   0.8582
B(  9-C , 11-H ) :   0.9067 B(  9-C , 12-H ) :   0.8965 B( 13-C , 14-H ) :   0.9069
B( 13-C , 15-H ) :   0.9019 B( 13-C , 16-H ) :   0.8963 B( 17-C , 18-C ) :   1.3948
B( 17-C , 22-C ) :   1.3405 B( 17-C , 28-C ) :   0.9796 B( 18-C , 19-C ) :   1.4408
B( 18-C , 25-H ) :   0.9250 B( 19-C , 20-C ) :   1.4253 B( 19-C , 26-H ) :   0.9191
B( 20-C , 21-C ) :   1.4362 B( 20-C , 23-H ) :   0.9206 B( 21-C , 22-C ) :   1.3751
B( 21-C , 24-H ) :   0.9198 B( 28-C , 29-H ) :   0.8950 B( 28-C , 30-H ) :   0.9069
B( 31-O , 32-C ) :   1.3532 B( 31-O , 33-O ) :   0.1057 B( 32-C , 33-O ) :   1.8542
B( 32-C , 34-C ) :   0.9201 B( 34-C , 35-H ) :   0.9233 B( 34-C , 36-H ) :   0.9236
B( 34-C , 37-H ) :   0.9207

Dispersion correction           -0.026378311
FINAL SINGLE POINT ENERGY      -988.401625465634
Dispersion correction            ... done

DIPOLE MOMENT
-------------
                                X             Y             Z
Electronic contribution:     12.12313       7.35565      -3.10711
Nuclear contribution   :    -13.10790      -4.92181       3.85656
                        -----------------------------------------
Total Dipole Moment    :     -0.98477       2.43384       0.74945
                        -----------------------------------------
Magnitude (a.u.)       :      2.73039
Magnitude (Debye)      :      6.94010

Rotational constants in cm-1:     0.015159     0.008509     0.006247
Rotational constants in MHz :   454.469733   255.079623   187.280459

                             ****ORCA TERMINATED NORMALLY****
TOTAL RUN TIME: 0 days 0 hours 9 minutes 22 seconds 621 msec
