                         Program Version 5.0.3 -  RELEASE  -
|  1> ! EnGrad PBEh-3c
|  2> %output
|  3> xyzfile=True
|  4> end
|  5> %scf
|  6> maxiter 250
|  7> end
|  8> %output
|  9> Print[P_Hirshfeld] = 1
| 10> end
| 11> % maxcore
| 12> 4000
| 13> *xyz 0 1
| 14> Pd   0.23499886   0.15626486  -0.02428956
| 15> O    1.68465513   1.44212081   0.77958742
| 16> C    1.68297158   2.64344608   0.57028397
| 17> O    0.62433882   3.35738926   0.16552915
| 18> C    2.91921535   3.48800853   0.69219582
| 19> H    2.61302572   4.42891738   1.13045084
| 20> H    3.35863780   3.69967533  -0.28075637
| 21> H    3.71973696   3.05393847   1.27315555
| 22> N   -1.27085796  -0.98761989  -0.90013890
| 23> C   -0.82452645  -2.36967938  -1.15639800
| 24> H    0.03760045  -2.38026422  -1.81845047
| 25> H   -1.63988137  -2.94668911  -1.60938348
| 26> H   -0.54375042  -2.84027951  -0.21783711
| 27> C   -1.72738639  -0.38701647  -2.16252069
| 28> H   -1.92185978   0.67184921  -2.00878881
| 29> H   -2.65821764  -0.86843814  -2.48899170
| 30> H   -0.97387291  -0.49177809  -2.94093114
| 31> C   -1.87729285  -1.07792355   1.44616184
| 32> C   -2.54617097  -1.76857711   2.44947384
| 33> C   -2.11829582  -1.63871093   3.76733268
| 34> C   -1.03670901  -0.80627145   4.03008822
| 35> C   -0.32892378  -0.17501390   3.00410607
| 36> C   -0.71322485  -0.32282902   1.67173855
| 37> H   -0.72685991  -0.66389251   5.05935789
| 38> H    0.53064741   0.41446213   3.29892048
| 39> H   -3.40062313  -2.40343499   2.21410958
| 40> H   -2.60861117  -2.19590774   4.57060556
| 41> H   -0.22296141   3.30064117   0.62693547
| 42> C   -2.40053384  -1.01490098   0.05460036
| 43> H   -2.95962068  -0.08265049  -0.06737271
| 44> H   -3.09048933  -1.82549714  -0.21305687
| 45> O    1.28693030   0.62467511  -1.80567020
| 46> C    2.04263816  -0.24004924  -2.38938101
| 47> O    2.07694324  -1.43890446  -2.15704730
| 48> C    2.98886501   0.32869025  -3.44624353
| 49> H    3.35357808  -0.45109357  -4.11636191
| 50> H    3.86542885   0.75999447  -2.95682156
| 51> H    2.53625165   1.12499219  -4.03572661
| 52> *
| 53>
| 54>                          ****END OF INPUT****

CARTESIAN COORDINATES (ANGSTROEM)
---------------------------------
  Pd     0.234999    0.156265   -0.024290
  O      1.684655    1.442121    0.779587
  C      1.682972    2.643446    0.570284
  O      0.624339    3.357389    0.165529
  C      2.919215    3.488009    0.692196
  H      2.613026    4.428917    1.130451
  H      3.358638    3.699675   -0.280756
  H      3.719737    3.053938    1.273156
  N     -1.270858   -0.987620   -0.900139
  C     -0.824526   -2.369679   -1.156398
  H      0.037600   -2.380264   -1.818450
  H     -1.639881   -2.946689   -1.609383
  H     -0.543750   -2.840280   -0.217837
  C     -1.727386   -0.387016   -2.162521
  H     -1.921860    0.671849   -2.008789
  H     -2.658218   -0.868438   -2.488992
  H     -0.973873   -0.491778   -2.940931
  C     -1.877293   -1.077924    1.446162
  C     -2.546171   -1.768577    2.449474
  C     -2.118296   -1.638711    3.767333
  C     -1.036709   -0.806271    4.030088
  C     -0.328924   -0.175014    3.004106
  C     -0.713225   -0.322829    1.671739
  H     -0.726860   -0.663893    5.059358
  H      0.530647    0.414462    3.298920
  H     -3.400623   -2.403435    2.214110
  H     -2.608611   -2.195908    4.570606
  H     -0.222961    3.300641    0.626935
  C     -2.400534   -1.014901    0.054600
  H     -2.959621   -0.082650   -0.067373
  H     -3.090489   -1.825497   -0.213057
  O      1.286930    0.624675   -1.805670
  C      2.042638   -0.240049   -2.389381
  O      2.076943   -1.438904   -2.157047
  C      2.988865    0.328690   -3.446244
  H      3.353578   -0.451094   -4.116362
  H      3.865429    0.759994   -2.956822
  H      2.536252    1.124992   -4.035727

 Total Charge           Charge          ....    0
 Multiplicity           Mult            ....    1
 Number of Electrons    NEL             ....  154
 Basis Dimension        Dim             ....  339

ORBITAL ENERGIES
----------------

  NO   OCC          E(Eh)            E(eV)
   0   2.0000     -19.568426      -532.4840
   1   2.0000     -19.554389      -532.1020
   2   2.0000     -19.435421      -528.8647
   3   2.0000     -19.406543      -528.0789
   4   2.0000     -14.711025      -400.3073
   5   2.0000     -10.635994      -289.4201
   6   2.0000     -10.509106      -285.9673
   7   2.0000     -10.482377      -285.2400
   8   2.0000     -10.472597      -284.9738
   9   2.0000     -10.470006      -284.9033
  10   2.0000     -10.456063      -284.5239
  11   2.0000     -10.444940      -284.2213
  12   2.0000     -10.441675      -284.1324
  13   2.0000     -10.438710      -284.0517
  14   2.0000     -10.438136      -284.0361
  15   2.0000     -10.437466      -284.0179
  16   2.0000     -10.435188      -283.9559
  17   2.0000     -10.399472      -282.9840
  18   2.0000      -3.640620       -99.0663
  19   2.0000      -2.286582       -62.2211
  20   2.0000      -2.283672       -62.1419
  21   2.0000      -2.253536       -61.3218
  22   2.0000      -1.255513       -34.1643
  23   2.0000      -1.174472       -31.9590
  24   2.0000      -1.119099       -30.4522
  25   2.0000      -1.067930       -29.0598
  26   2.0000      -1.023754       -27.8578
  27   2.0000      -0.945955       -25.7407
  28   2.0000      -0.875447       -23.8221
  29   2.0000      -0.861488       -23.4423
  30   2.0000      -0.822313       -22.3763
  31   2.0000      -0.806446       -21.9445
  32   2.0000      -0.778128       -21.1739
  33   2.0000      -0.775088       -21.0912
  34   2.0000      -0.740659       -20.1543
  35   2.0000      -0.701248       -19.0819
  36   2.0000      -0.670613       -18.2483
  37   2.0000      -0.644589       -17.5402
  38   2.0000      -0.635066       -17.2810
  39   2.0000      -0.582388       -15.8476
  40   2.0000      -0.580185       -15.7876
  41   2.0000      -0.574170       -15.6240
  42   2.0000      -0.561247       -15.2723
  43   2.0000      -0.559008       -15.2114
  44   2.0000      -0.555275       -15.1098
  45   2.0000      -0.532408       -14.4876
  46   2.0000      -0.508433       -13.8352
  47   2.0000      -0.496993       -13.5239
  48   2.0000      -0.494385       -13.4529
  49   2.0000      -0.490035       -13.3345
  50   2.0000      -0.487746       -13.2722
  51   2.0000      -0.474728       -12.9180
  52   2.0000      -0.470053       -12.7908
  53   2.0000      -0.468244       -12.7416
  54   2.0000      -0.460324       -12.5260
  55   2.0000      -0.459438       -12.5019
  56   2.0000      -0.450846       -12.2681
  57   2.0000      -0.439707       -11.9650
  58   2.0000      -0.432321       -11.7641
  59   2.0000      -0.425941       -11.5904
  60   2.0000      -0.423476       -11.5234
  61   2.0000      -0.415028       -11.2935
  62   2.0000      -0.412836       -11.2338
  63   2.0000      -0.403802       -10.9880
  64   2.0000      -0.390689       -10.6312
  65   2.0000      -0.385446       -10.4885
  66   2.0000      -0.371205       -10.1010
  67   2.0000      -0.363446        -9.8899
  68   2.0000      -0.342317        -9.3149
  69   2.0000      -0.337366        -9.1802
  70   2.0000      -0.319962        -8.7066
  71   2.0000      -0.287672        -7.8279
  72   2.0000      -0.283290        -7.7087
  73   2.0000      -0.279064        -7.5937
  74   2.0000      -0.277636        -7.5548
  75   2.0000      -0.262330        -7.1384
  76   2.0000      -0.257200        -6.9988
  77   0.0000      -0.022352        -0.6082
  78   0.0000      -0.007052        -0.1919
  79   0.0000       0.017028         0.4634
  80   0.0000       0.027092         0.7372
  81   0.0000       0.045978         1.2511

MULLIKEN ATOMIC CHARGES
-----------------------
   0 Pd:    0.354215
   1 O :   -0.381682
   2 C :    0.645253
   3 O :   -0.597158
   4 C :   -0.743324
   5 H :    0.251813
   6 H :    0.286439
   7 H :    0.277282
   8 N :   -0.480668
   9 C :   -0.546099
  10 H :    0.321950
  11 H :    0.207773
  12 H :    0.275262
  13 C :   -0.513717
  14 H :    0.260143
  15 H :    0.220674
  16 H :    0.284008
  17 C :    0.083656
  18 C :   -0.275746
  19 C :   -0.236623
  20 C :   -0.210826
  21 C :   -0.308735
  22 C :   -0.089469
  23 H :    0.209936
  24 H :    0.212978
  25 H :    0.202687
  26 H :    0.213319
  27 H :    0.487490
  28 C :   -0.320535
  29 H :    0.258606
  30 H :    0.228531
  31 O :   -0.564086
  32 C :    0.539742
  33 O :   -0.479649
  34 C :   -0.744797
  35 H :    0.230764
  36 H :    0.221288
  37 H :    0.219307
Sum of atomic charges:    0.0000000

LOEWDIN ATOMIC CHARGES
----------------------
   0 Pd:   -0.428356
   1 O :   -0.037745
   2 C :    0.236900
   3 O :   -0.277684
   4 C :   -0.372024
   5 H :    0.155476
   6 H :    0.176614
   7 H :    0.160868
   8 N :   -0.028898
   9 C :   -0.238928
  10 H :    0.174327
  11 H :    0.115176
  12 H :    0.155602
  13 C :   -0.227669
  14 H :    0.147597
  15 H :    0.121375
  16 H :    0.159792
  17 C :   -0.060213
  18 C :   -0.136138
  19 C :   -0.144408
  20 C :   -0.135784
  21 C :   -0.128288
  22 C :   -0.031040
  23 H :    0.132016
  24 H :    0.140526
  25 H :    0.132559
  26 H :    0.133919
  27 H :    0.365775
  28 C :   -0.104212
  29 H :    0.147689
  30 H :    0.127385
  31 O :   -0.255556
  32 C :    0.105806
  33 O :   -0.295242
  34 C :   -0.394572
  35 H :    0.136111
  36 H :    0.139431
  37 H :    0.131811

  Mayer bond orders larger than 0.100000
B(  0-Pd,  1-O ) :   0.3519 B(  0-Pd,  8-N ) :   0.4720 B(  0-Pd, 22-C ) :   0.8885
B(  0-Pd, 31-O ) :   0.4737 B(  1-O ,  2-C ) :   1.7690 B(  2-C ,  3-O ) :   1.1253
B(  2-C ,  4-C ) :   0.9626 B(  3-O , 27-H ) :   0.7090 B(  4-C ,  5-H ) :   0.9042
B(  4-C ,  6-H ) :   0.8872 B(  4-C ,  7-H ) :   0.9023 B(  8-N ,  9-C ) :   0.9097
B(  8-N , 13-C ) :   0.9198 B(  8-N , 28-C ) :   0.8866 B(  9-C , 10-H ) :   0.8522
B(  9-C , 11-H ) :   0.9058 B(  9-C , 12-H ) :   0.8965 B( 13-C , 14-H ) :   0.9057
B( 13-C , 15-H ) :   0.9016 B( 13-C , 16-H ) :   0.8956 B( 17-C , 18-C ) :   1.4145
B( 17-C , 22-C ) :   1.3151 B( 17-C , 28-C ) :   0.9733 B( 18-C , 19-C ) :   1.4150
B( 18-C , 25-H ) :   0.9259 B( 19-C , 20-C ) :   1.4417 B( 19-C , 26-H ) :   0.9198
B( 20-C , 21-C ) :   1.4108 B( 20-C , 23-H ) :   0.9204 B( 21-C , 22-C ) :   1.3918
B( 21-C , 24-H ) :   0.9183 B( 28-C , 29-H ) :   0.8949 B( 28-C , 30-H ) :   0.9046
B( 31-O , 32-C ) :   1.3505 B( 31-O , 33-O ) :   0.1056 B( 32-C , 33-O ) :   1.8465
B( 32-C , 34-C ) :   0.9235 B( 34-C , 35-H ) :   0.9235 B( 34-C , 36-H ) :   0.9223
B( 34-C , 37-H ) :   0.9210

Dispersion correction           -0.026316864
FINAL SINGLE POINT ENERGY      -988.535784898955
Dispersion correction            ... done

DIPOLE MOMENT
-------------
                                X             Y             Z
Electronic contribution:      8.20514       8.32342      -1.17643
Nuclear contribution   :     -9.48518      -6.43352       1.90556
                        -----------------------------------------
Total Dipole Moment    :     -1.28003       1.88990       0.72913
                        -----------------------------------------
Magnitude (a.u.)       :      2.39621
Magnitude (Debye)      :      6.09069

Rotational constants in cm-1:     0.014576     0.008860     0.006467
Rotational constants in MHz :   436.971904   265.622429   193.862959

                             ****ORCA TERMINATED NORMALLY****
TOTAL RUN TIME: 0 days 0 hours 8 minutes 0 seconds 832 msec
