                         Program Version 5.0.3 -  RELEASE  -
|  1> ! EnGrad PBEh-3c
|  2> %output
|  3> xyzfile=True
|  4> end
|  5> %scf
|  6> maxiter 250
|  7> end
|  8> %output
|  9> Print[P_Hirshfeld] = 1
| 10> end
| 11> % maxcore
| 12> 4000
| 13> *xyz 0 1
| 14> Pd   0.25895140   0.14708772  -0.00778001
| 15> O    1.73644341   1.47606207   0.73580153
| 16> C    1.69864756   2.65977370   0.51617428
| 17> O    0.57456468   3.29195928   0.10850499
| 18> C    2.92722029   3.51308038   0.67330952
| 19> H    2.54521240   4.43786798   1.08665571
| 20> H    3.33561860   3.78605968  -0.30717244
| 21> H    3.65348216   3.00884660   1.32472767
| 22> N   -1.27041248  -0.97946257  -0.89139338
| 23> C   -0.83733417  -2.36482705  -1.17422879
| 24> H    0.01964267  -2.35784287  -1.84848974
| 25> H   -1.68134366  -2.91610701  -1.61705331
| 26> H   -0.54263585  -2.84373781  -0.24053024
| 27> C   -1.74120002  -0.36240663  -2.13940986
| 28> H   -1.91894877   0.70161662  -1.98315415
| 29> H   -2.68191749  -0.83619606  -2.45657452
| 30> H   -0.99654623  -0.48857674  -2.92024347
| 31> C   -1.86355381  -1.11066812   1.43722154
| 32> C   -2.51263195  -1.80228153   2.44048205
| 33> C   -2.09099202  -1.69332431   3.75562120
| 34> C   -1.05607305  -0.82576774   4.03922314
| 35> C   -0.37158134  -0.16896736   3.02348474
| 36> C   -0.72177061  -0.33967577   1.68890354
| 37> H   -0.76198381  -0.68163327   5.06243566
| 38> H    0.45045237   0.46718285   3.30887119
| 39> H   -3.37180912  -2.40804919   2.20555375
| 40> H   -2.60479012  -2.22359438   4.55672394
| 41> H   -0.13976499   3.37577149   0.75022438
| 42> C   -2.39965517  -1.02015782   0.06078437
| 43> H   -2.94142187  -0.06880439   0.00980521
| 44> H   -3.09636653  -1.83363971  -0.19168450
| 45> O    1.30166325   0.59390283  -1.83149822
| 46> C    2.07048197  -0.25866046  -2.41092661
| 47> O    2.10383585  -1.45526327  -2.16344242
| 48> C    3.03215484   0.30872699  -3.45965911
| 49> H    3.37634498  -0.49314047  -4.11132345
| 50> H    3.90884121   0.74121448  -2.96621821
| 51> H    2.57866862   1.09625572  -4.06000174
| 52> *
| 53>
| 54>                          ****END OF INPUT****

CARTESIAN COORDINATES (ANGSTROEM)
---------------------------------
  Pd     0.258951    0.147088   -0.007780
  O      1.736443    1.476062    0.735802
  C      1.698648    2.659774    0.516174
  O      0.574565    3.291959    0.108505
  C      2.927220    3.513080    0.673310
  H      2.545212    4.437868    1.086656
  H      3.335619    3.786060   -0.307172
  H      3.653482    3.008847    1.324728
  N     -1.270412   -0.979463   -0.891393
  C     -0.837334   -2.364827   -1.174229
  H      0.019643   -2.357843   -1.848490
  H     -1.681344   -2.916107   -1.617053
  H     -0.542636   -2.843738   -0.240530
  C     -1.741200   -0.362407   -2.139410
  H     -1.918949    0.701617   -1.983154
  H     -2.681917   -0.836196   -2.456575
  H     -0.996546   -0.488577   -2.920243
  C     -1.863554   -1.110668    1.437222
  C     -2.512632   -1.802282    2.440482
  C     -2.090992   -1.693324    3.755621
  C     -1.056073   -0.825768    4.039223
  C     -0.371581   -0.168967    3.023485
  C     -0.721771   -0.339676    1.688904
  H     -0.761984   -0.681633    5.062436
  H      0.450452    0.467183    3.308871
  H     -3.371809   -2.408049    2.205554
  H     -2.604790   -2.223594    4.556724
  H     -0.139765    3.375771    0.750224
  C     -2.399655   -1.020158    0.060784
  H     -2.941422   -0.068804    0.009805
  H     -3.096367   -1.833640   -0.191685
  O      1.301663    0.593903   -1.831498
  C      2.070482   -0.258660   -2.410927
  O      2.103836   -1.455263   -2.163442
  C      3.032155    0.308727   -3.459659
  H      3.376345   -0.493140   -4.111323
  H      3.908841    0.741214   -2.966218
  H      2.578669    1.096256   -4.060002

 Total Charge           Charge          ....    0
 Multiplicity           Mult            ....    1
 Number of Electrons    NEL             ....  154
 Basis Dimension        Dim             ....  339

ORBITAL ENERGIES
----------------

  NO   OCC          E(Eh)            E(eV)
   0   2.0000     -19.560204      -532.2602
   1   2.0000     -19.555719      -532.1382
   2   2.0000     -19.431719      -528.7640
   3   2.0000     -19.403161      -527.9868
   4   2.0000     -14.710551      -400.2944
   5   2.0000     -10.632182      -289.3164
   6   2.0000     -10.506285      -285.8905
   7   2.0000     -10.482216      -285.2356
   8   2.0000     -10.476060      -285.0681
   9   2.0000     -10.471113      -284.9335
  10   2.0000     -10.457912      -284.5743
  11   2.0000     -10.442277      -284.1488
  12   2.0000     -10.437782      -284.0265
  13   2.0000     -10.437508      -284.0190
  14   2.0000     -10.436130      -283.9815
  15   2.0000     -10.434695      -283.9425
  16   2.0000     -10.433277      -283.9039
  17   2.0000     -10.399335      -282.9803
  18   2.0000      -3.638630       -99.0122
  19   2.0000      -2.284642       -62.1683
  20   2.0000      -2.281688       -62.0879
  21   2.0000      -2.251378       -61.2631
  22   2.0000      -1.257725       -34.2244
  23   2.0000      -1.173447       -31.9311
  24   2.0000      -1.116565       -30.3833
  25   2.0000      -1.067715       -29.0540
  26   2.0000      -1.019127       -27.7319
  27   2.0000      -0.949796       -25.8453
  28   2.0000      -0.874457       -23.7952
  29   2.0000      -0.864682       -23.5292
  30   2.0000      -0.823280       -22.4026
  31   2.0000      -0.804686       -21.8966
  32   2.0000      -0.778748       -21.1908
  33   2.0000      -0.774130       -21.0651
  34   2.0000      -0.730671       -19.8826
  35   2.0000      -0.700988       -19.0748
  36   2.0000      -0.671984       -18.2856
  37   2.0000      -0.644832       -17.5468
  38   2.0000      -0.634837       -17.2748
  39   2.0000      -0.581601       -15.8262
  40   2.0000      -0.576452       -15.6861
  41   2.0000      -0.574521       -15.6335
  42   2.0000      -0.559800       -15.2329
  43   2.0000      -0.558455       -15.1963
  44   2.0000      -0.554043       -15.0763
  45   2.0000      -0.532995       -14.5035
  46   2.0000      -0.511517       -13.9191
  47   2.0000      -0.509514       -13.8646
  48   2.0000      -0.494434       -13.4542
  49   2.0000      -0.488294       -13.2872
  50   2.0000      -0.485513       -13.2115
  51   2.0000      -0.473676       -12.8894
  52   2.0000      -0.468480       -12.7480
  53   2.0000      -0.465245       -12.6600
  54   2.0000      -0.460652       -12.5350
  55   2.0000      -0.457516       -12.4496
  56   2.0000      -0.450101       -12.2479
  57   2.0000      -0.440913       -11.9979
  58   2.0000      -0.431636       -11.7454
  59   2.0000      -0.424836       -11.5604
  60   2.0000      -0.418461       -11.3869
  61   2.0000      -0.412308       -11.2195
  62   2.0000      -0.411676       -11.2023
  63   2.0000      -0.404896       -11.0178
  64   2.0000      -0.390411       -10.6236
  65   2.0000      -0.385869       -10.5000
  66   2.0000      -0.371139       -10.0992
  67   2.0000      -0.359541        -9.7836
  68   2.0000      -0.341799        -9.3008
  69   2.0000      -0.336397        -9.1538
  70   2.0000      -0.318270        -8.6606
  71   2.0000      -0.285381        -7.7656
  72   2.0000      -0.281800        -7.6682
  73   2.0000      -0.278687        -7.5835
  74   2.0000      -0.274969        -7.4823
  75   2.0000      -0.261877        -7.1260
  76   2.0000      -0.255147        -6.9429
  77   0.0000      -0.023556        -0.6410
  78   0.0000      -0.011841        -0.3222
  79   0.0000       0.018329         0.4988
  80   0.0000       0.029256         0.7961
  81   0.0000       0.048005         1.3063

MULLIKEN ATOMIC CHARGES
-----------------------
   0 Pd:    0.357219
   1 O :   -0.358772
   2 C :    0.632528
   3 O :   -0.608338
   4 C :   -0.728840
   5 H :    0.244213
   6 H :    0.286070
   7 H :    0.272874
   8 N :   -0.477203
   9 C :   -0.540588
  10 H :    0.320028
  11 H :    0.205866
  12 H :    0.274914
  13 C :   -0.510156
  14 H :    0.262647
  15 H :    0.218770
  16 H :    0.281648
  17 C :    0.091572
  18 C :   -0.276127
  19 C :   -0.232725
  20 C :   -0.212050
  21 C :   -0.309783
  22 C :   -0.094456
  23 H :    0.210763
  24 H :    0.209129
  25 H :    0.200284
  26 H :    0.212043
  27 H :    0.481486
  28 C :   -0.324357
  29 H :    0.263939
  30 H :    0.227633
  31 O :   -0.560300
  32 C :    0.534219
  33 O :   -0.482440
  34 C :   -0.742583
  35 H :    0.231175
  36 H :    0.220751
  37 H :    0.218948
Sum of atomic charges:   -0.0000000

LOEWDIN ATOMIC CHARGES
----------------------
   0 Pd:   -0.413278
   1 O :   -0.022400
   2 C :    0.225841
   3 O :   -0.295787
   4 C :   -0.367381
   5 H :    0.153549
   6 H :    0.177108
   7 H :    0.165855
   8 N :   -0.028576
   9 C :   -0.236209
  10 H :    0.174910
  11 H :    0.115395
  12 H :    0.155893
  13 C :   -0.227769
  14 H :    0.149168
  15 H :    0.121034
  16 H :    0.158677
  17 C :   -0.063061
  18 C :   -0.135899
  19 C :   -0.143166
  20 C :   -0.136169
  21 C :   -0.130016
  22 C :   -0.027928
  23 H :    0.132049
  24 H :    0.138525
  25 H :    0.131166
  26 H :    0.133691
  27 H :    0.363192
  28 C :   -0.105906
  29 H :    0.151486
  30 H :    0.128276
  31 O :   -0.258720
  32 C :    0.102165
  33 O :   -0.299269
  34 C :   -0.394754
  35 H :    0.137178
  36 H :    0.139358
  37 H :    0.131771

  Mayer bond orders larger than 0.100000
B(  0-Pd,  1-O ) :   0.3395 B(  0-Pd,  8-N ) :   0.4698 B(  0-Pd, 22-C ) :   0.8845
B(  0-Pd, 31-O ) :   0.4663 B(  1-O ,  2-C ) :   1.8094 B(  2-C ,  3-O ) :   1.0878
B(  2-C ,  4-C ) :   0.9596 B(  3-O , 27-H ) :   0.7165 B(  4-C ,  5-H ) :   0.9024
B(  4-C ,  6-H ) :   0.8889 B(  4-C ,  7-H ) :   0.9061 B(  8-N ,  9-C ) :   0.9078
B(  8-N , 13-C ) :   0.9194 B(  8-N , 28-C ) :   0.8920 B(  9-C , 10-H ) :   0.8539
B(  9-C , 11-H ) :   0.9062 B(  9-C , 12-H ) :   0.8965 B( 13-C , 14-H ) :   0.9052
B( 13-C , 15-H ) :   0.9016 B( 13-C , 16-H ) :   0.8966 B( 17-C , 18-C ) :   1.4267
B( 17-C , 22-C ) :   1.3133 B( 17-C , 28-C ) :   0.9678 B( 18-C , 19-C ) :   1.4143
B( 18-C , 25-H ) :   0.9255 B( 19-C , 20-C ) :   1.4470 B( 19-C , 26-H ) :   0.9203
B( 20-C , 21-C ) :   1.4085 B( 20-C , 23-H ) :   0.9200 B( 21-C , 22-C ) :   1.4029
B( 21-C , 24-H ) :   0.9198 B( 28-C , 29-H ) :   0.8952 B( 28-C , 30-H ) :   0.9057
B( 31-O , 32-C ) :   1.3621 B( 31-O , 33-O ) :   0.1048 B( 32-C , 33-O ) :   1.8427
B( 32-C , 34-C ) :   0.9213 B( 34-C , 35-H ) :   0.9232 B( 34-C , 36-H ) :   0.9232
B( 34-C , 37-H ) :   0.9211

Dispersion correction           -0.026332471
FINAL SINGLE POINT ENERGY      -988.525900445397
Dispersion correction            ... done

DIPOLE MOMENT
-------------
                                X             Y             Z
Electronic contribution:      9.39456       8.16320       0.05189
Nuclear contribution   :    -10.66583      -6.14186       0.84004
                        -----------------------------------------
Total Dipole Moment    :     -1.27127       2.02134       0.89193
                        -----------------------------------------
Magnitude (a.u.)       :      2.54901
Magnitude (Debye)      :      6.47908

Rotational constants in cm-1:     0.014619     0.008767     0.006443
Rotational constants in MHz :   438.266444   262.814536   193.156570

                             ****ORCA TERMINATED NORMALLY****
TOTAL RUN TIME: 0 days 0 hours 8 minutes 12 seconds 546 msec
