                         Program Version 5.0.3 -  RELEASE  -
|  1> ! EnGrad PBEh-3c
|  2> %output
|  3> xyzfile=True
|  4> end
|  5> %scf
|  6> maxiter 250
|  7> end
|  8> %output
|  9> Print[P_Hirshfeld] = 1
| 10> end
| 11> % maxcore
| 12> 4000
| 13> *xyz 0 1
| 14> Pd   0.25339799   0.15042349  -0.02177041
| 15> O    1.73238504   1.46029592   0.75242096
| 16> C    1.68950741   2.64998173   0.50982672
| 17> O    0.59364270   3.31078698   0.10746093
| 18> C    2.90456367   3.50627549   0.67371925
| 19> H    2.56507498   4.44788547   1.10504264
| 20> H    3.34316258   3.76492879  -0.29761867
| 21> H    3.66609160   3.02260347   1.31130661
| 22> N   -1.27006448  -0.98004234  -0.89923283
| 23> C   -0.83590950  -2.36485585  -1.17156441
| 24> H    0.01640915  -2.36107427  -1.84128142
| 25> H   -1.66977538  -2.91915385  -1.61449247
| 26> H   -0.54376403  -2.84421572  -0.24170451
| 27> C   -1.74007493  -0.36585875  -2.14596415
| 28> H   -1.91883795   0.69222782  -1.98904346
| 29> H   -2.67340530  -0.83851456  -2.45877124
| 30> H   -0.99636402  -0.48732201  -2.92046084
| 31> C   -1.86611500  -1.11094331   1.44727644
| 32> C   -2.52196424  -1.80036539   2.45046917
| 33> C   -2.10327714  -1.68563202   3.76233216
| 34> C   -1.05910635  -0.82926609   4.04146612
| 35> C   -0.36245764  -0.17095068   3.02328634
| 36> C   -0.71795241  -0.33370605   1.68039907
| 37> H   -0.75572216  -0.67868677   5.06494587
| 38> H    0.46917170   0.47095012   3.31123411
| 39> H   -3.37525386  -2.40965187   2.20513991
| 40> H   -2.60149933  -2.21846385   4.55099010
| 41> H   -0.15387996   3.36200815   0.73661918
| 42> C   -2.39895088  -1.01927207   0.06285490
| 43> H   -2.94634810  -0.07269359  -0.00797811
| 44> H   -3.09384902  -1.82990763  -0.19430376
| 45> O    1.29559782   0.60340152  -1.82403722
| 46> C    2.06568148  -0.25625962  -2.40031419
| 47> O    2.10247040  -1.45461428  -2.16674592
| 48> C    3.02494940   0.31127324  -3.45782785
| 49> H    3.37633238  -0.48616306  -4.11456538
| 50> H    3.90071014   0.74248128  -2.96697980
| 51> H    2.57430477   1.10113890  -4.05788026
| 52> *
| 53>
| 54>                          ****END OF INPUT****

CARTESIAN COORDINATES (ANGSTROEM)
---------------------------------
  Pd     0.253398    0.150423   -0.021770
  O      1.732385    1.460296    0.752421
  C      1.689507    2.649982    0.509827
  O      0.593643    3.310787    0.107461
  C      2.904564    3.506275    0.673719
  H      2.565075    4.447885    1.105043
  H      3.343163    3.764929   -0.297619
  H      3.666092    3.022603    1.311307
  N     -1.270064   -0.980042   -0.899233
  C     -0.835909   -2.364856   -1.171564
  H      0.016409   -2.361074   -1.841281
  H     -1.669775   -2.919154   -1.614492
  H     -0.543764   -2.844216   -0.241705
  C     -1.740075   -0.365859   -2.145964
  H     -1.918838    0.692228   -1.989043
  H     -2.673405   -0.838515   -2.458771
  H     -0.996364   -0.487322   -2.920461
  C     -1.866115   -1.110943    1.447276
  C     -2.521964   -1.800365    2.450469
  C     -2.103277   -1.685632    3.762332
  C     -1.059106   -0.829266    4.041466
  C     -0.362458   -0.170951    3.023286
  C     -0.717952   -0.333706    1.680399
  H     -0.755722   -0.678687    5.064946
  H      0.469172    0.470950    3.311234
  H     -3.375254   -2.409652    2.205140
  H     -2.601499   -2.218464    4.550990
  H     -0.153880    3.362008    0.736619
  C     -2.398951   -1.019272    0.062855
  H     -2.946348   -0.072694   -0.007978
  H     -3.093849   -1.829908   -0.194304
  O      1.295598    0.603402   -1.824037
  C      2.065681   -0.256260   -2.400314
  O      2.102470   -1.454614   -2.166746
  C      3.024949    0.311273   -3.457828
  H      3.376332   -0.486163   -4.114565
  H      3.900710    0.742481   -2.966980
  H      2.574305    1.101139   -4.057880

 Total Charge           Charge          ....    0
 Multiplicity           Mult            ....    1
 Number of Electrons    NEL             ....  154
 Basis Dimension        Dim             ....  339

ORBITAL ENERGIES
----------------

  NO   OCC          E(Eh)            E(eV)
   0   2.0000     -19.565645      -532.4083
   1   2.0000     -19.555698      -532.1376
   2   2.0000     -19.434832      -528.8487
   3   2.0000     -19.406017      -528.0646
   4   2.0000     -14.710806      -400.3014
   5   2.0000     -10.633651      -289.3563
   6   2.0000     -10.508932      -285.9626
   7   2.0000     -10.482359      -285.2395
   8   2.0000     -10.474369      -285.0221
   9   2.0000     -10.469823      -284.8984
  10   2.0000     -10.456328      -284.5311
  11   2.0000     -10.442919      -284.1663
  12   2.0000     -10.438054      -284.0339
  13   2.0000     -10.437720      -284.0248
  14   2.0000     -10.435885      -283.9749
  15   2.0000     -10.435354      -283.9604
  16   2.0000     -10.434371      -283.9337
  17   2.0000     -10.399710      -282.9905
  18   2.0000      -3.639461       -99.0348
  19   2.0000      -2.285390       -62.1886
  20   2.0000      -2.282487       -62.1096
  21   2.0000      -2.252211       -61.2858
  22   2.0000      -1.256130       -34.1810
  23   2.0000      -1.174299       -31.9543
  24   2.0000      -1.117705       -30.4143
  25   2.0000      -1.067394       -29.0453
  26   2.0000      -1.022250       -27.8168
  27   2.0000      -0.947893       -25.7935
  28   2.0000      -0.873039       -23.7566
  29   2.0000      -0.862930       -23.4815
  30   2.0000      -0.822601       -22.3841
  31   2.0000      -0.806982       -21.9591
  32   2.0000      -0.778025       -21.1711
  33   2.0000      -0.773651       -21.0521
  34   2.0000      -0.731879       -19.9154
  35   2.0000      -0.701457       -19.0876
  36   2.0000      -0.670968       -18.2580
  37   2.0000      -0.644922       -17.5492
  38   2.0000      -0.633847       -17.2479
  39   2.0000      -0.581270       -15.8172
  40   2.0000      -0.578774       -15.7492
  41   2.0000      -0.575314       -15.6551
  42   2.0000      -0.560422       -15.2499
  43   2.0000      -0.559327       -15.2201
  44   2.0000      -0.555497       -15.1158
  45   2.0000      -0.533209       -14.5094
  46   2.0000      -0.509233       -13.8569
  47   2.0000      -0.502670       -13.6783
  48   2.0000      -0.494046       -13.4437
  49   2.0000      -0.489448       -13.3186
  50   2.0000      -0.486696       -13.2437
  51   2.0000      -0.474511       -12.9121
  52   2.0000      -0.469123       -12.7655
  53   2.0000      -0.466431       -12.6922
  54   2.0000      -0.459514       -12.5040
  55   2.0000      -0.456908       -12.4331
  56   2.0000      -0.450622       -12.2620
  57   2.0000      -0.440984       -11.9998
  58   2.0000      -0.433165       -11.7870
  59   2.0000      -0.425534       -11.5794
  60   2.0000      -0.419582       -11.4174
  61   2.0000      -0.414267       -11.2728
  62   2.0000      -0.413063       -11.2400
  63   2.0000      -0.404076       -10.9955
  64   2.0000      -0.391178       -10.6445
  65   2.0000      -0.384758       -10.4698
  66   2.0000      -0.370851       -10.0914
  67   2.0000      -0.361518        -9.8374
  68   2.0000      -0.341897        -9.3035
  69   2.0000      -0.336906        -9.1677
  70   2.0000      -0.319375        -8.6906
  71   2.0000      -0.286256        -7.7894
  72   2.0000      -0.282683        -7.6922
  73   2.0000      -0.278552        -7.5798
  74   2.0000      -0.276812        -7.5324
  75   2.0000      -0.262411        -7.1406
  76   2.0000      -0.256626        -6.9832
  77   0.0000      -0.024734        -0.6730
  78   0.0000      -0.012288        -0.3344
  79   0.0000       0.018085         0.4921
  80   0.0000       0.028670         0.7802
  81   0.0000       0.046827         1.2742

MULLIKEN ATOMIC CHARGES
-----------------------
   0 Pd:    0.354388
   1 O :   -0.370318
   2 C :    0.645410
   3 O :   -0.599580
   4 C :   -0.737137
   5 H :    0.245907
   6 H :    0.284500
   7 H :    0.271824
   8 N :   -0.479741
   9 C :   -0.542729
  10 H :    0.319856
  11 H :    0.207672
  12 H :    0.276200
  13 C :   -0.511828
  14 H :    0.262989
  15 H :    0.220913
  16 H :    0.282815
  17 C :    0.083037
  18 C :   -0.271829
  19 C :   -0.231397
  20 C :   -0.210927
  21 C :   -0.314167
  22 C :   -0.091566
  23 H :    0.209754
  24 H :    0.208970
  25 H :    0.200588
  26 H :    0.213889
  27 H :    0.484656
  28 C :   -0.323750
  29 H :    0.262007
  30 H :    0.227054
  31 O :   -0.563776
  32 C :    0.537681
  33 O :   -0.478686
  34 C :   -0.743494
  35 H :    0.230998
  36 H :    0.220981
  37 H :    0.218839
Sum of atomic charges:   -0.0000000

LOEWDIN ATOMIC CHARGES
----------------------
   0 Pd:   -0.420002
   1 O :   -0.032491
   2 C :    0.228022
   3 O :   -0.285193
   4 C :   -0.369683
   5 H :    0.153492
   6 H :    0.176279
   7 H :    0.163766
   8 N :   -0.028250
   9 C :   -0.236790
  10 H :    0.173637
  11 H :    0.115690
  12 H :    0.156132
  13 C :   -0.228011
  14 H :    0.149006
  15 H :    0.121544
  16 H :    0.158780
  17 C :   -0.062189
  18 C :   -0.136342
  19 C :   -0.144182
  20 C :   -0.136141
  21 C :   -0.129041
  22 C :   -0.030398
  23 H :    0.131935
  24 H :    0.138358
  25 H :    0.131477
  26 H :    0.133941
  27 H :    0.368877
  28 C :   -0.104811
  29 H :    0.149882
  30 H :    0.127396
  31 O :   -0.258227
  32 C :    0.107169
  33 O :   -0.295284
  34 C :   -0.395624
  35 H :    0.136854
  36 H :    0.138984
  37 H :    0.131437

  Mayer bond orders larger than 0.100000
B(  0-Pd,  1-O ) :   0.3460 B(  0-Pd,  8-N ) :   0.4732 B(  0-Pd, 22-C ) :   0.8795
B(  0-Pd, 31-O ) :   0.4723 B(  1-O ,  2-C ) :   1.7901 B(  2-C ,  3-O ) :   1.1068
B(  2-C ,  4-C ) :   0.9593 B(  3-O , 27-H ) :   0.7124 B(  4-C ,  5-H ) :   0.9036
B(  4-C ,  6-H ) :   0.8881 B(  4-C ,  7-H ) :   0.9061 B(  8-N ,  9-C ) :   0.9089
B(  8-N , 13-C ) :   0.9198 B(  8-N , 28-C ) :   0.8896 B(  9-C , 10-H ) :   0.8547
B(  9-C , 11-H ) :   0.9061 B(  9-C , 12-H ) :   0.8963 B( 13-C , 14-H ) :   0.9053
B( 13-C , 15-H ) :   0.9017 B( 13-C , 16-H ) :   0.8962 B( 17-C , 18-C ) :   1.4257
B( 17-C , 22-C ) :   1.3123 B( 17-C , 28-C ) :   0.9711 B( 18-C , 19-C ) :   1.4144
B( 18-C , 25-H ) :   0.9253 B( 19-C , 20-C ) :   1.4477 B( 19-C , 26-H ) :   0.9196
B( 20-C , 21-C ) :   1.4064 B( 20-C , 23-H ) :   0.9206 B( 21-C , 22-C ) :   1.3995
B( 21-C , 24-H ) :   0.9196 B( 28-C , 29-H ) :   0.8951 B( 28-C , 30-H ) :   0.9054
B( 31-O , 32-C ) :   1.3516 B( 31-O , 33-O ) :   0.1054 B( 32-C , 33-O ) :   1.8477
B( 32-C , 34-C ) :   0.9211 B( 34-C , 35-H ) :   0.9235 B( 34-C , 36-H ) :   0.9228
B( 34-C , 37-H ) :   0.9211

Dispersion correction           -0.026304925
FINAL SINGLE POINT ENERGY      -988.529445550208
Dispersion correction            ... done

DIPOLE MOMENT
-------------
                                X             Y             Z
Electronic contribution:      9.10002       8.29954      -0.78304
Nuclear contribution   :    -10.39269      -6.30061       1.61301
                        -----------------------------------------
Total Dipole Moment    :     -1.29267       1.99894       0.82998
                        -----------------------------------------
Magnitude (a.u.)       :      2.52103
Magnitude (Debye)      :      6.40796

Rotational constants in cm-1:     0.014624     0.008768     0.006444
Rotational constants in MHz :   438.420392   262.843124   193.178951

                             ****ORCA TERMINATED NORMALLY****
TOTAL RUN TIME: 0 days 0 hours 8 minutes 12 seconds 608 msec
