                         Program Version 5.0.3 -  RELEASE  -
|  1> ! EnGrad PBEh-3c
|  2> %output
|  3> xyzfile=True
|  4> end
|  5> %scf
|  6> maxiter 250
|  7> end
|  8> %output
|  9> Print[P_Hirshfeld] = 1
| 10> end
| 11> % maxcore
| 12> 4000
| 13> *xyz 0 1
| 14> Pd   0.24117542   0.15870213  -0.02259288
| 15> O    1.71315380   1.44815113   0.76969923
| 16> C    1.68358547   2.64205962   0.54837008
| 17> O    0.60840707   3.33577499   0.14087808
| 18> C    2.91625855   3.48561915   0.68844739
| 19> H    2.59489846   4.42914477   1.12358888
| 20> H    3.36062196   3.71591501  -0.28259544
| 21> H    3.72154993   3.04610742   1.28919798
| 22> N   -1.27077865  -0.98640984  -0.90216568
| 23> C   -0.82775112  -2.36888332  -1.16196866
| 24> H    0.03046575  -2.37638775  -1.82594502
| 25> H   -1.64733505  -2.93972716  -1.61079960
| 26> H   -0.54391738  -2.84037044  -0.22554776
| 27> C   -1.73146709  -0.38379025  -2.15908634
| 28> H   -1.91988809   0.67256449  -2.00304511
| 29> H   -2.66223061  -0.85962084  -2.47888613
| 30> H   -0.98153961  -0.49121711  -2.93521134
| 31> C   -1.87391763  -1.08807047   1.44978894
| 32> C   -2.54008877  -1.77773968   2.45413682
| 33> C   -2.11906262  -1.65461177   3.76848919
| 34> C   -1.04981938  -0.81456620   4.03316599
| 35> C   -0.33991569  -0.17281166   3.01189843
| 36> C   -0.71385483  -0.32431215   1.67498692
| 37> H   -0.73720577  -0.66897609   5.05871145
| 38> H    0.51539343   0.43426743   3.30942924
| 39> H   -3.39062317  -2.40405468   2.21335066
| 40> H   -2.60734704  -2.20378569   4.56671673
| 41> H   -0.22114750   3.33929587   0.65965082
| 42> C   -2.40067005  -1.01635033   0.05776905
| 43> H   -2.95730823  -0.07807706  -0.05136246
| 44> H   -3.09178746  -1.82867583  -0.20826002
| 45> O    1.28798048   0.62139854  -1.81102451
| 46> C    2.04918061  -0.24247858  -2.39169523
| 47> O    2.08626754  -1.44291052  -2.16409430
| 48> C    2.99979896   0.32355742  -3.45190916
| 49> H    3.36309673  -0.46147461  -4.12059873
| 50> H    3.87542891   0.75621496  -2.96096765
| 51> H    2.54761518   1.12027126  -4.04368188
| 52> *
| 53>
| 54>                          ****END OF INPUT****

CARTESIAN COORDINATES (ANGSTROEM)
---------------------------------
  Pd     0.241175    0.158702   -0.022593
  O      1.713154    1.448151    0.769699
  C      1.683585    2.642060    0.548370
  O      0.608407    3.335775    0.140878
  C      2.916259    3.485619    0.688447
  H      2.594898    4.429145    1.123589
  H      3.360622    3.715915   -0.282595
  H      3.721550    3.046107    1.289198
  N     -1.270779   -0.986410   -0.902166
  C     -0.827751   -2.368883   -1.161969
  H      0.030466   -2.376388   -1.825945
  H     -1.647335   -2.939727   -1.610800
  H     -0.543917   -2.840370   -0.225548
  C     -1.731467   -0.383790   -2.159086
  H     -1.919888    0.672564   -2.003045
  H     -2.662231   -0.859621   -2.478886
  H     -0.981540   -0.491217   -2.935211
  C     -1.873918   -1.088070    1.449789
  C     -2.540089   -1.777740    2.454137
  C     -2.119063   -1.654612    3.768489
  C     -1.049819   -0.814566    4.033166
  C     -0.339916   -0.172812    3.011898
  C     -0.713855   -0.324312    1.674987
  H     -0.737206   -0.668976    5.058711
  H      0.515393    0.434267    3.309429
  H     -3.390623   -2.404055    2.213351
  H     -2.607347   -2.203786    4.566717
  H     -0.221147    3.339296    0.659651
  C     -2.400670   -1.016350    0.057769
  H     -2.957308   -0.078077   -0.051362
  H     -3.091787   -1.828676   -0.208260
  O      1.287980    0.621399   -1.811025
  C      2.049181   -0.242479   -2.391695
  O      2.086268   -1.442911   -2.164094
  C      2.999799    0.323557   -3.451909
  H      3.363097   -0.461475   -4.120599
  H      3.875429    0.756215   -2.960968
  H      2.547615    1.120271   -4.043682

 Total Charge           Charge          ....    0
 Multiplicity           Mult            ....    1
 Number of Electrons    NEL             ....  154
 Basis Dimension        Dim             ....  339

ORBITAL ENERGIES
----------------

  NO   OCC          E(Eh)            E(eV)
   0   2.0000     -19.567431      -532.4569
   1   2.0000     -19.555060      -532.1202
   2   2.0000     -19.435823      -528.8756
   3   2.0000     -19.406515      -528.0781
   4   2.0000     -14.710807      -400.3014
   5   2.0000     -10.635308      -289.4014
   6   2.0000     -10.509445      -285.9765
   7   2.0000     -10.483040      -285.2580
   8   2.0000     -10.471905      -284.9550
   9   2.0000     -10.470886      -284.9273
  10   2.0000     -10.455756      -284.5156
  11   2.0000     -10.444754      -284.2162
  12   2.0000     -10.440160      -284.0912
  13   2.0000     -10.438448      -284.0446
  14   2.0000     -10.437237      -284.0117
  15   2.0000     -10.436661      -283.9960
  16   2.0000     -10.436047      -283.9793
  17   2.0000     -10.399785      -282.9925
  18   2.0000      -3.640325       -99.0583
  19   2.0000      -2.286232       -62.2115
  20   2.0000      -2.283375       -62.1338
  21   2.0000      -2.253190       -61.3124
  22   2.0000      -1.254427       -34.1347
  23   2.0000      -1.174180       -31.9511
  24   2.0000      -1.118178       -30.4272
  25   2.0000      -1.067384       -29.0450
  26   2.0000      -1.023478       -27.8503
  27   2.0000      -0.946551       -25.7570
  28   2.0000      -0.872514       -23.7423
  29   2.0000      -0.861422       -23.4405
  30   2.0000      -0.822850       -22.3909
  31   2.0000      -0.806936       -21.9579
  32   2.0000      -0.777724       -21.1629
  33   2.0000      -0.773926       -21.0596
  34   2.0000      -0.737085       -20.0571
  35   2.0000      -0.701057       -19.0767
  36   2.0000      -0.670550       -18.2466
  37   2.0000      -0.644768       -17.5450
  38   2.0000      -0.634197       -17.2574
  39   2.0000      -0.581246       -15.8165
  40   2.0000      -0.580301       -15.7908
  41   2.0000      -0.573910       -15.6169
  42   2.0000      -0.560746       -15.2587
  43   2.0000      -0.559042       -15.2123
  44   2.0000      -0.555231       -15.1086
  45   2.0000      -0.532707       -14.4957
  46   2.0000      -0.508573       -13.8390
  47   2.0000      -0.496688       -13.5156
  48   2.0000      -0.494123       -13.4458
  49   2.0000      -0.487858       -13.2753
  50   2.0000      -0.487095       -13.2545
  51   2.0000      -0.474432       -12.9100
  52   2.0000      -0.469436       -12.7740
  53   2.0000      -0.467406       -12.7188
  54   2.0000      -0.459187       -12.4951
  55   2.0000      -0.458049       -12.4641
  56   2.0000      -0.450920       -12.2701
  57   2.0000      -0.440080       -11.9752
  58   2.0000      -0.432610       -11.7719
  59   2.0000      -0.425645       -11.5824
  60   2.0000      -0.422038       -11.4842
  61   2.0000      -0.414250       -11.2723
  62   2.0000      -0.412918       -11.2361
  63   2.0000      -0.403940       -10.9918
  64   2.0000      -0.390689       -10.6312
  65   2.0000      -0.384980       -10.4758
  66   2.0000      -0.370095       -10.0708
  67   2.0000      -0.362997        -9.8777
  68   2.0000      -0.342439        -9.3182
  69   2.0000      -0.337430        -9.1820
  70   2.0000      -0.320378        -8.7179
  71   2.0000      -0.287300        -7.8178
  72   2.0000      -0.283332        -7.7099
  73   2.0000      -0.278685        -7.5834
  74   2.0000      -0.277540        -7.5522
  75   2.0000      -0.262495        -7.1428
  76   2.0000      -0.257124        -6.9967
  77   0.0000      -0.023270        -0.6332
  78   0.0000      -0.009565        -0.2603
  79   0.0000       0.017215         0.4684
  80   0.0000       0.027464         0.7473
  81   0.0000       0.045686         1.2432

MULLIKEN ATOMIC CHARGES
-----------------------
   0 Pd:    0.352612
   1 O :   -0.373208
   2 C :    0.649518
   3 O :   -0.603256
   4 C :   -0.741778
   5 H :    0.247983
   6 H :    0.285124
   7 H :    0.274997
   8 N :   -0.479011
   9 C :   -0.545121
  10 H :    0.321228
  11 H :    0.207939
  12 H :    0.275279
  13 C :   -0.513626
  14 H :    0.261080
  15 H :    0.221196
  16 H :    0.283828
  17 C :    0.082253
  18 C :   -0.273870
  19 C :   -0.233240
  20 C :   -0.211507
  21 C :   -0.310884
  22 C :   -0.089690
  23 H :    0.209541
  24 H :    0.211549
  25 H :    0.202089
  26 H :    0.214137
  27 H :    0.487831
  28 C :   -0.321743
  29 H :    0.258796
  30 H :    0.227518
  31 O :   -0.564249
  32 C :    0.540188
  33 O :   -0.479647
  34 C :   -0.743825
  35 H :    0.230530
  36 H :    0.220813
  37 H :    0.218629
Sum of atomic charges:   -0.0000000

LOEWDIN ATOMIC CHARGES
----------------------
   0 Pd:   -0.424331
   1 O :   -0.032684
   2 C :    0.233386
   3 O :   -0.284237
   4 C :   -0.371652
   5 H :    0.154040
   6 H :    0.175874
   7 H :    0.162090
   8 N :   -0.029055
   9 C :   -0.238541
  10 H :    0.173882
  11 H :    0.115355
  12 H :    0.155591
  13 C :   -0.228298
  14 H :    0.147814
  15 H :    0.121488
  16 H :    0.159465
  17 C :   -0.060634
  18 C :   -0.135954
  19 C :   -0.144873
  20 C :   -0.135521
  21 C :   -0.128559
  22 C :   -0.030837
  23 H :    0.131688
  24 H :    0.139900
  25 H :    0.132146
  26 H :    0.134301
  27 H :    0.369597
  28 C :   -0.103826
  29 H :    0.148062
  30 H :    0.127159
  31 O :   -0.256339
  32 C :    0.107577
  33 O :   -0.295857
  34 C :   -0.394957
  35 H :    0.136292
  36 H :    0.139037
  37 H :    0.131411

  Mayer bond orders larger than 0.100000
B(  0-Pd,  1-O ) :   0.3501 B(  0-Pd,  8-N ) :   0.4724 B(  0-Pd, 22-C ) :   0.8854
B(  0-Pd, 31-O ) :   0.4732 B(  1-O ,  2-C ) :   1.7797 B(  2-C ,  3-O ) :   1.1122
B(  2-C ,  4-C ) :   0.9607 B(  3-O , 27-H ) :   0.7080 B(  4-C ,  5-H ) :   0.9044
B(  4-C ,  6-H ) :   0.8874 B(  4-C ,  7-H ) :   0.9040 B(  8-N ,  9-C ) :   0.9100
B(  8-N , 13-C ) :   0.9204 B(  8-N , 28-C ) :   0.8873 B(  9-C , 10-H ) :   0.8531
B(  9-C , 11-H ) :   0.9058 B(  9-C , 12-H ) :   0.8967 B( 13-C , 14-H ) :   0.9057
B( 13-C , 15-H ) :   0.9016 B( 13-C , 16-H ) :   0.8958 B( 17-C , 18-C ) :   1.4183
B( 17-C , 22-C ) :   1.3144 B( 17-C , 28-C ) :   0.9723 B( 18-C , 19-C ) :   1.4149
B( 18-C , 25-H ) :   0.9256 B( 19-C , 20-C ) :   1.4436 B( 19-C , 26-H ) :   0.9196
B( 20-C , 21-C ) :   1.4095 B( 20-C , 23-H ) :   0.9205 B( 21-C , 22-C ) :   1.3929
B( 21-C , 24-H ) :   0.9187 B( 28-C , 29-H ) :   0.8952 B( 28-C , 30-H ) :   0.9049
B( 31-O , 32-C ) :   1.3502 B( 31-O , 33-O ) :   0.1058 B( 32-C , 33-O ) :   1.8464
B( 32-C , 34-C ) :   0.9223 B( 34-C , 35-H ) :   0.9237 B( 34-C , 36-H ) :   0.9224
B( 34-C , 37-H ) :   0.9210

Dispersion correction           -0.026295092
FINAL SINGLE POINT ENERGY      -988.532348947340
Dispersion correction            ... done

DIPOLE MOMENT
-------------
                                X             Y             Z
Electronic contribution:      8.48804       8.56061      -0.98044
Nuclear contribution   :     -9.79116      -6.63030       1.75543
                        -----------------------------------------
Total Dipole Moment    :     -1.30312       1.93031       0.77498
                        -----------------------------------------
Magnitude (a.u.)       :      2.45455
Magnitude (Debye)      :      6.23898

Rotational constants in cm-1:     0.014600     0.008821     0.006456
Rotational constants in MHz :   437.693873   264.456892   193.560018

                             ****ORCA TERMINATED NORMALLY****
TOTAL RUN TIME: 0 days 0 hours 8 minutes 1 seconds 403 msec
