                         Program Version 5.0.3 -  RELEASE  -
|  1> ! EnGrad PBEh-3c
|  2> %output
|  3> xyzfile=True
|  4> end
|  5> %scf
|  6> maxiter 250
|  7> end
|  8> %output
|  9> Print[P_Hirshfeld] = 1
| 10> end
| 11> % maxcore
| 12> 4000
| 13> *xyz 0 1
| 14> Pd   0.25509297   0.12729112  -0.02134164
| 15> O    1.69850803   1.46529525   0.72866200
| 16> C    1.69379098   2.66558596   0.48959971
| 17> O    0.60625468   3.29393108   0.07526031
| 18> C    2.87417095   3.55049605   0.65458265
| 19> H    2.56311481   4.48551159   1.09876997
| 20> H    3.31476684   3.81043377  -0.30532056
| 21> H    3.54197220   3.01228285   1.29853949
| 22> N   -1.27862260  -0.97259679  -0.88180203
| 23> C   -0.84809179  -2.35124725  -1.17730196
| 24> H    0.00168559  -2.34224826  -1.85846082
| 25> H   -1.69407168  -2.89569250  -1.61823753
| 26> H   -0.54276702  -2.85533820  -0.25908510
| 27> C   -1.74810461  -0.34178008  -2.12694382
| 28> H   -1.92113401   0.72804145  -1.97837547
| 29> H   -2.68839339  -0.81889962  -2.43908435
| 30> H   -1.00622118  -0.48184469  -2.91159339
| 31> C   -1.84507225  -1.12302948   1.44422910
| 32> C   -2.50434626  -1.82761906   2.42996412
| 33> C   -2.08121602  -1.70547795   3.75060501
| 34> C   -1.04125846  -0.83690677   4.05007924
| 35> C   -0.37782575  -0.16513686   3.01813636
| 36> C   -0.71096535  -0.34356495   1.68605085
| 37> H   -0.77052339  -0.69036409   5.10081905
| 38> H    0.40275014   0.50958860   3.30324828
| 39> H   -3.38120565  -2.43430200   2.18848857
| 40> H   -2.60488279  -2.24484158   4.53815117
| 41> H   -0.00769882   3.33050994   0.81649377
| 42> C   -2.38745396  -1.02266159   0.07843773
| 43> H   -2.93176112  -0.07742198   0.03144044
| 44> H   -3.09267179  -1.82256377  -0.17879363
| 45> O    1.31056521   0.58275322  -1.84081421
| 46> C    2.08298152  -0.27278305  -2.41026597
| 47> O    2.11884069  -1.47035511  -2.16544027
| 48> C    3.04348737   0.29550469  -3.45472697
| 49> H    3.38860945  -0.50809492  -4.10010167
| 50> H    3.93113621   0.72487240  -2.97529352
| 51> H    2.60679345   1.07901874  -4.07655408
| 52> *
| 53>
| 54>                          ****END OF INPUT****

CARTESIAN COORDINATES (ANGSTROEM)
---------------------------------
  Pd     0.255093    0.127291   -0.021342
  O      1.698508    1.465295    0.728662
  C      1.693791    2.665586    0.489600
  O      0.606255    3.293931    0.075260
  C      2.874171    3.550496    0.654583
  H      2.563115    4.485512    1.098770
  H      3.314767    3.810434   -0.305321
  H      3.541972    3.012283    1.298539
  N     -1.278623   -0.972597   -0.881802
  C     -0.848092   -2.351247   -1.177302
  H      0.001686   -2.342248   -1.858461
  H     -1.694072   -2.895693   -1.618238
  H     -0.542767   -2.855338   -0.259085
  C     -1.748105   -0.341780   -2.126944
  H     -1.921134    0.728041   -1.978375
  H     -2.688393   -0.818900   -2.439084
  H     -1.006221   -0.481845   -2.911593
  C     -1.845072   -1.123029    1.444229
  C     -2.504346   -1.827619    2.429964
  C     -2.081216   -1.705478    3.750605
  C     -1.041258   -0.836907    4.050079
  C     -0.377826   -0.165137    3.018136
  C     -0.710965   -0.343565    1.686051
  H     -0.770523   -0.690364    5.100819
  H      0.402750    0.509589    3.303248
  H     -3.381206   -2.434302    2.188489
  H     -2.604883   -2.244842    4.538151
  H     -0.007699    3.330510    0.816494
  C     -2.387454   -1.022662    0.078438
  H     -2.931761   -0.077422    0.031440
  H     -3.092672   -1.822564   -0.178794
  O      1.310565    0.582753   -1.840814
  C      2.082982   -0.272783   -2.410266
  O      2.118841   -1.470355   -2.165440
  C      3.043487    0.295505   -3.454727
  H      3.388609   -0.508095   -4.100102
  H      3.931136    0.724872   -2.975294
  H      2.606793    1.079019   -4.076554

 Total Charge           Charge          ....    0
 Multiplicity           Mult            ....    1
 Number of Electrons    NEL             ....  154
 Basis Dimension        Dim             ....  339

ORBITAL ENERGIES
----------------

  NO   OCC          E(Eh)            E(eV)
   0   2.0000     -19.563841      -532.3592
   1   2.0000     -19.556041      -532.1469
   2   2.0000     -19.432478      -528.7846
   3   2.0000     -19.403786      -528.0039
   4   2.0000     -14.711043      -400.3078
   5   2.0000     -10.631884      -289.3083
   6   2.0000     -10.506615      -285.8995
   7   2.0000     -10.479456      -285.1605
   8   2.0000     -10.472911      -284.9824
   9   2.0000     -10.472638      -284.9750
  10   2.0000     -10.457943      -284.5751
  11   2.0000     -10.441155      -284.1183
  12   2.0000     -10.439441      -284.0716
  13   2.0000     -10.438898      -284.0569
  14   2.0000     -10.437235      -284.0116
  15   2.0000     -10.436511      -283.9919
  16   2.0000     -10.433556      -283.9115
  17   2.0000     -10.398860      -282.9674
  18   2.0000      -3.639503       -99.0359
  19   2.0000      -2.285719       -62.1976
  20   2.0000      -2.282600       -62.1127
  21   2.0000      -2.252050       -61.2814
  22   2.0000      -1.266862       -34.4731
  23   2.0000      -1.175261       -31.9805
  24   2.0000      -1.116679       -30.3864
  25   2.0000      -1.071060       -29.1450
  26   2.0000      -1.020047       -27.7569
  27   2.0000      -0.949069       -25.8255
  28   2.0000      -0.882422       -24.0119
  29   2.0000      -0.864710       -23.5300
  30   2.0000      -0.823019       -22.3955
  31   2.0000      -0.805433       -21.9170
  32   2.0000      -0.778971       -21.1969
  33   2.0000      -0.774098       -21.0643
  34   2.0000      -0.726769       -19.7764
  35   2.0000      -0.702083       -19.1046
  36   2.0000      -0.671821       -18.2812
  37   2.0000      -0.644766       -17.5450
  38   2.0000      -0.638076       -17.3629
  39   2.0000      -0.584797       -15.9131
  40   2.0000      -0.582539       -15.8517
  41   2.0000      -0.580012       -15.7829
  42   2.0000      -0.561301       -15.2738
  43   2.0000      -0.559347       -15.2206
  44   2.0000      -0.556124       -15.1329
  45   2.0000      -0.532087       -14.4788
  46   2.0000      -0.514268       -13.9940
  47   2.0000      -0.509818       -13.8729
  48   2.0000      -0.499941       -13.6041
  49   2.0000      -0.494520       -13.4566
  50   2.0000      -0.486278       -13.2323
  51   2.0000      -0.473549       -12.8859
  52   2.0000      -0.468598       -12.7512
  53   2.0000      -0.465356       -12.6630
  54   2.0000      -0.460023       -12.5179
  55   2.0000      -0.457144       -12.4395
  56   2.0000      -0.449577       -12.2336
  57   2.0000      -0.441586       -12.0162
  58   2.0000      -0.431966       -11.7544
  59   2.0000      -0.424928       -11.5629
  60   2.0000      -0.419656       -11.4194
  61   2.0000      -0.413947       -11.2641
  62   2.0000      -0.411001       -11.1839
  63   2.0000      -0.403485       -10.9794
  64   2.0000      -0.390015       -10.6129
  65   2.0000      -0.385971       -10.5028
  66   2.0000      -0.374227       -10.1832
  67   2.0000      -0.360607        -9.8126
  68   2.0000      -0.341417        -9.2904
  69   2.0000      -0.336909        -9.1678
  70   2.0000      -0.317233        -8.6324
  71   2.0000      -0.285576        -7.7709
  72   2.0000      -0.281478        -7.6594
  73   2.0000      -0.278856        -7.5881
  74   2.0000      -0.275865        -7.5067
  75   2.0000      -0.261701        -7.1212
  76   2.0000      -0.255670        -6.9571
  77   0.0000      -0.025401        -0.6912
  78   0.0000      -0.013297        -0.3618
  79   0.0000       0.018227         0.4960
  80   0.0000       0.028735         0.7819
  81   0.0000       0.047421         1.2904

MULLIKEN ATOMIC CHARGES
-----------------------
   0 Pd:    0.361985
   1 O :   -0.379661
   2 C :    0.616758
   3 O :   -0.573582
   4 C :   -0.734713
   5 H :    0.250575
   6 H :    0.289732
   7 H :    0.271796
   8 N :   -0.482918
   9 C :   -0.543538
  10 H :    0.319554
  11 H :    0.206958
  12 H :    0.277073
  13 C :   -0.510660
  14 H :    0.264710
  15 H :    0.219617
  16 H :    0.282022
  17 C :    0.088745
  18 C :   -0.272174
  19 C :   -0.240220
  20 C :   -0.209418
  21 C :   -0.320041
  22 C :   -0.079422
  23 H :    0.210010
  24 H :    0.205964
  25 H :    0.201144
  26 H :    0.212280
  27 H :    0.478803
  28 C :   -0.324216
  29 H :    0.265329
  30 H :    0.227656
  31 O :   -0.559734
  32 C :    0.536929
  33 O :   -0.482454
  34 C :   -0.745324
  35 H :    0.231855
  36 H :    0.220238
  37 H :    0.218340
Sum of atomic charges:   -0.0000000

LOEWDIN ATOMIC CHARGES
----------------------
   0 Pd:   -0.416856
   1 O :   -0.038287
   2 C :    0.217641
   3 O :   -0.269678
   4 C :   -0.370080
   5 H :    0.155399
   6 H :    0.179760
   7 H :    0.163813
   8 N :   -0.026477
   9 C :   -0.236173
  10 H :    0.174510
  11 H :    0.115416
  12 H :    0.156779
  13 C :   -0.225925
  14 H :    0.150843
  15 H :    0.121469
  16 H :    0.159556
  17 C :   -0.060782
  18 C :   -0.138444
  19 C :   -0.141503
  20 C :   -0.137929
  21 C :   -0.128336
  22 C :   -0.031529
  23 H :    0.133511
  24 H :    0.136629
  25 H :    0.132302
  26 H :    0.132382
  27 H :    0.364458
  28 C :   -0.107406
  29 H :    0.151115
  30 H :    0.127385
  31 O :   -0.258685
  32 C :    0.102245
  33 O :   -0.298796
  34 C :   -0.395268
  35 H :    0.136957
  36 H :    0.138823
  37 H :    0.131161

  Mayer bond orders larger than 0.100000
B(  0-Pd,  1-O ) :   0.3429 B(  0-Pd,  8-N ) :   0.4752 B(  0-Pd, 22-C ) :   0.8823
B(  0-Pd, 31-O ) :   0.4663 B(  1-O ,  2-C ) :   1.7896 B(  2-C ,  3-O ) :   1.1263
B(  2-C ,  4-C ) :   0.9677 B(  3-O , 27-H ) :   0.7211 B(  4-C ,  5-H ) :   0.9026
B(  4-C ,  6-H ) :   0.8870 B(  4-C ,  7-H ) :   0.9045 B(  8-N ,  9-C ) :   0.9082
B(  8-N , 13-C ) :   0.9174 B(  8-N , 28-C ) :   0.8910 B(  9-C , 10-H ) :   0.8551
B(  9-C , 11-H ) :   0.9058 B(  9-C , 12-H ) :   0.8957 B( 13-C , 14-H ) :   0.9044
B( 13-C , 15-H ) :   0.9014 B( 13-C , 16-H ) :   0.8959 B( 17-C , 18-C ) :   1.4236
B( 17-C , 22-C ) :   1.3048 B( 17-C , 28-C ) :   0.9710 B( 18-C , 19-C ) :   1.4110
B( 18-C , 25-H ) :   0.9259 B( 19-C , 20-C ) :   1.4509 B( 19-C , 26-H ) :   0.9194
B( 20-C , 21-C ) :   1.3990 B( 20-C , 23-H ) :   0.9211 B( 21-C , 22-C ) :   1.4069
B( 21-C , 24-H ) :   0.9207 B( 28-C , 29-H ) :   0.8939 B( 28-C , 30-H ) :   0.9054
B( 31-O , 32-C ) :   1.3634 B( 31-O , 33-O ) :   0.1058 B( 32-C , 33-O ) :   1.8431
B( 32-C , 34-C ) :   0.9210 B( 34-C , 35-H ) :   0.9228 B( 34-C , 36-H ) :   0.9233
B( 34-C , 37-H ) :   0.9212

Dispersion correction           -0.026326949
FINAL SINGLE POINT ENERGY      -988.523513395105
Dispersion correction            ... done

DIPOLE MOMENT
-------------
                                X             Y             Z
Electronic contribution:      9.19640       7.23445      -0.61084
Nuclear contribution   :    -10.43836      -5.14753       1.49983
                        -----------------------------------------
Total Dipole Moment    :     -1.24196       2.08692       0.88899
                        -----------------------------------------
Magnitude (a.u.)       :      2.58612
Magnitude (Debye)      :      6.57339

Rotational constants in cm-1:     0.014664     0.008754     0.006448
Rotational constants in MHz :   439.611674   262.426371   193.319368

                             ****ORCA TERMINATED NORMALLY****
TOTAL RUN TIME: 0 days 0 hours 7 minutes 56 seconds 101 msec
