                         Program Version 5.0.3 -  RELEASE  -
|  1> ! EnGrad PBEh-3c
|  2> %output
|  3> xyzfile=True
|  4> end
|  5> %scf
|  6> maxiter 250
|  7> end
|  8> %output
|  9> Print[P_Hirshfeld] = 1
| 10> end
| 11> % maxcore
| 12> 4000
| 13> *xyz 0 1
| 14> Pd   0.24591238   0.15966455  -0.02099372
| 15> O    1.72889558   1.45652828   0.76351958
| 16> C    1.68390536   2.63977836   0.53635875
| 17> O    0.60169664   3.32378482   0.12790255
| 18> C    2.91669462   3.48671342   0.68553145
| 19> H    2.58232738   4.42886831   1.11679632
| 20> H    3.35936266   3.72837774  -0.28627231
| 21> H    3.72116410   3.03815415   1.30132891
| 22> N   -1.26995489  -0.98537433  -0.90319735
| 23> C   -0.82939994  -2.36902888  -1.16542280
| 24> H    0.02692465  -2.37340720  -1.83035048
| 25> H   -1.65295038  -2.93518321  -1.61183203
| 26> H   -0.54391532  -2.84023348  -0.22953565
| 27> C   -1.73396407  -0.38101194  -2.15659740
| 28> H   -1.91890144   0.67431166  -1.99902049
| 29> H   -2.66488577  -0.85413480  -2.47321591
| 30> H   -0.98608878  -0.49082685  -2.93111338
| 31> C   -1.87309515  -1.09490420   1.45008219
| 32> C   -2.53497254  -1.78250048   2.45588276
| 33> C   -2.11739502  -1.66506890   3.76834097
| 34> C   -1.05734347  -0.81929307   4.03464670
| 35> C   -0.34696625  -0.17191252   3.01679684
| 36> C   -0.71608599  -0.32651119   1.67774417
| 37> H   -0.74322084  -0.67172712   5.05665455
| 38> H    0.50567419   0.44415073   3.31340758
| 39> H   -3.38356705  -2.40302968   2.21296936
| 40> H   -2.60550542  -2.20692158   4.56349105
| 41> H   -0.22064901   3.35903866   0.68101818
| 42> C   -2.40115558  -1.01715529   0.05808813
| 43> H   -2.95539481  -0.07472729  -0.03978852
| 44> H   -3.09295757  -1.83101027  -0.20506184
| 45> O    1.28898270   0.61772392  -1.81441853
| 46> C    2.05333321  -0.24396871  -2.39416308
| 47> O    2.09108988  -1.44577193  -2.16650971
| 48> C    3.00711494   0.32057822  -3.45512596
| 49> H    3.36761608  -0.46833909  -4.12173087
| 50> H    3.88165344   0.75377360  -2.96261680
| 51> H    2.55392704   1.11662679  -4.04760689
| 52> *
| 53>
| 54>                          ****END OF INPUT****

CARTESIAN COORDINATES (ANGSTROEM)
---------------------------------
  Pd     0.245912    0.159665   -0.020994
  O      1.728896    1.456528    0.763520
  C      1.683905    2.639778    0.536359
  O      0.601697    3.323785    0.127903
  C      2.916695    3.486713    0.685531
  H      2.582327    4.428868    1.116796
  H      3.359363    3.728378   -0.286272
  H      3.721164    3.038154    1.301329
  N     -1.269955   -0.985374   -0.903197
  C     -0.829400   -2.369029   -1.165423
  H      0.026925   -2.373407   -1.830350
  H     -1.652950   -2.935183   -1.611832
  H     -0.543915   -2.840233   -0.229536
  C     -1.733964   -0.381012   -2.156597
  H     -1.918901    0.674312   -1.999020
  H     -2.664886   -0.854135   -2.473216
  H     -0.986089   -0.490827   -2.931113
  C     -1.873095   -1.094904    1.450082
  C     -2.534973   -1.782500    2.455883
  C     -2.117395   -1.665069    3.768341
  C     -1.057343   -0.819293    4.034647
  C     -0.346966   -0.171913    3.016797
  C     -0.716086   -0.326511    1.677744
  H     -0.743221   -0.671727    5.056655
  H      0.505674    0.444151    3.313408
  H     -3.383567   -2.403030    2.212969
  H     -2.605505   -2.206922    4.563491
  H     -0.220649    3.359039    0.681018
  C     -2.401156   -1.017155    0.058088
  H     -2.955395   -0.074727   -0.039789
  H     -3.092958   -1.831010   -0.205062
  O      1.288983    0.617724   -1.814419
  C      2.053333   -0.243969   -2.394163
  O      2.091090   -1.445772   -2.166510
  C      3.007115    0.320578   -3.455126
  H      3.367616   -0.468339   -4.121731
  H      3.881653    0.753774   -2.962617
  H      2.553927    1.116627   -4.047607

 Total Charge           Charge          ....    0
 Multiplicity           Mult            ....    1
 Number of Electrons    NEL             ....  154
 Basis Dimension        Dim             ....  339

ORBITAL ENERGIES
----------------

  NO   OCC          E(Eh)            E(eV)
   0   2.0000     -19.566722      -532.4376
   1   2.0000     -19.555301      -532.1268
   2   2.0000     -19.436050      -528.8818
   3   2.0000     -19.406274      -528.0716
   4   2.0000     -14.710910      -400.3042
   5   2.0000     -10.633591      -289.3547
   6   2.0000     -10.509614      -285.9811
   7   2.0000     -10.483583      -285.2728
   8   2.0000     -10.472469      -284.9704
   9   2.0000     -10.470094      -284.9057
  10   2.0000     -10.455875      -284.5188
  11   2.0000     -10.444580      -284.2115
  12   2.0000     -10.439196      -284.0650
  13   2.0000     -10.438753      -284.0529
  14   2.0000     -10.436770      -283.9989
  15   2.0000     -10.436280      -283.9856
  16   2.0000     -10.435699      -283.9698
  17   2.0000     -10.400064      -283.0001
  18   2.0000      -3.640202       -99.0549
  19   2.0000      -2.286086       -62.2076
  20   2.0000      -2.283244       -62.1302
  21   2.0000      -2.253059       -61.3089
  22   2.0000      -1.255640       -34.1677
  23   2.0000      -1.174517       -31.9602
  24   2.0000      -1.117626       -30.4121
  25   2.0000      -1.067147       -29.0385
  26   2.0000      -1.022986       -27.8369
  27   2.0000      -0.947327       -25.7781
  28   2.0000      -0.869312       -23.6552
  29   2.0000      -0.861822       -23.4514
  30   2.0000      -0.823243       -22.4016
  31   2.0000      -0.807219       -21.9655
  32   2.0000      -0.777841       -21.1661
  33   2.0000      -0.773632       -21.0516
  34   2.0000      -0.732919       -19.9437
  35   2.0000      -0.701132       -19.0788
  36   2.0000      -0.670807       -18.2536
  37   2.0000      -0.645113       -17.5544
  38   2.0000      -0.633878       -17.2487
  39   2.0000      -0.580906       -15.8072
  40   2.0000      -0.580092       -15.7851
  41   2.0000      -0.574256       -15.6263
  42   2.0000      -0.560592       -15.2545
  43   2.0000      -0.559238       -15.2176
  44   2.0000      -0.555308       -15.1107
  45   2.0000      -0.533062       -14.5054
  46   2.0000      -0.508919       -13.8484
  47   2.0000      -0.496588       -13.5128
  48   2.0000      -0.494094       -13.4450
  49   2.0000      -0.486818       -13.2470
  50   2.0000      -0.486116       -13.2279
  51   2.0000      -0.474541       -12.9129
  52   2.0000      -0.469214       -12.7680
  53   2.0000      -0.467057       -12.7093
  54   2.0000      -0.459228       -12.4962
  55   2.0000      -0.457462       -12.4482
  56   2.0000      -0.451101       -12.2751
  57   2.0000      -0.440516       -11.9870
  58   2.0000      -0.432954       -11.7813
  59   2.0000      -0.425734       -11.5848
  60   2.0000      -0.420537       -11.4434
  61   2.0000      -0.413406       -11.2493
  62   2.0000      -0.413146       -11.2423
  63   2.0000      -0.404313       -11.0019
  64   2.0000      -0.390981       -10.6391
  65   2.0000      -0.384869       -10.4728
  66   2.0000      -0.369794       -10.0626
  67   2.0000      -0.362574        -9.8662
  68   2.0000      -0.342647        -9.3239
  69   2.0000      -0.337471        -9.1831
  70   2.0000      -0.320618        -8.7244
  71   2.0000      -0.287185        -7.8147
  72   2.0000      -0.283362        -7.7107
  73   2.0000      -0.278754        -7.5853
  74   2.0000      -0.277387        -7.5481
  75   2.0000      -0.262678        -7.1478
  76   2.0000      -0.257035        -6.9943
  77   0.0000      -0.023183        -0.6309
  78   0.0000      -0.010346        -0.2815
  79   0.0000       0.017297         0.4707
  80   0.0000       0.027721         0.7543
  81   0.0000       0.045090         1.2270

MULLIKEN ATOMIC CHARGES
-----------------------
   0 Pd:    0.351809
   1 O :   -0.364017
   2 C :    0.647815
   3 O :   -0.605685
   4 C :   -0.739584
   5 H :    0.245604
   6 H :    0.283582
   7 H :    0.271846
   8 N :   -0.478014
   9 C :   -0.544161
  10 H :    0.320934
  11 H :    0.207909
  12 H :    0.275258
  13 C :   -0.513285
  14 H :    0.261584
  15 H :    0.221419
  16 H :    0.283621
  17 C :    0.083232
  18 C :   -0.273948
  19 C :   -0.230334
  20 C :   -0.212693
  21 C :   -0.311075
  22 C :   -0.091666
  23 H :    0.209481
  24 H :    0.210989
  25 H :    0.201428
  26 H :    0.214633
  27 H :    0.487183
  28 C :   -0.322629
  29 H :    0.259324
  30 H :    0.227111
  31 O :   -0.563790
  32 C :    0.539919
  33 O :   -0.480767
  34 C :   -0.743076
  35 H :    0.230692
  36 H :    0.220897
  37 H :    0.218455
Sum of atomic charges:   -0.0000000

LOEWDIN ATOMIC CHARGES
----------------------
   0 Pd:   -0.421614
   1 O :   -0.025642
   2 C :    0.226466
   3 O :   -0.288073
   4 C :   -0.371417
   5 H :    0.152794
   6 H :    0.174858
   7 H :    0.162256
   8 N :   -0.029009
   9 C :   -0.238065
  10 H :    0.173777
  11 H :    0.115509
  12 H :    0.155635
  13 C :   -0.228605
  14 H :    0.147988
  15 H :    0.121576
  16 H :    0.159191
  17 C :   -0.061355
  18 C :   -0.135556
  19 C :   -0.145114
  20 C :   -0.135132
  21 C :   -0.129019
  22 C :   -0.030284
  23 H :    0.131502
  24 H :    0.139635
  25 H :    0.131762
  26 H :    0.134566
  27 H :    0.372583
  28 C :   -0.103758
  29 H :    0.148552
  30 H :    0.127215
  31 O :   -0.256249
  32 C :    0.108529
  33 O :   -0.297511
  34 C :   -0.394991
  35 H :    0.136591
  36 H :    0.139049
  37 H :    0.131362

  Mayer bond orders larger than 0.100000
B(  0-Pd,  1-O ) :   0.3467 B(  0-Pd,  8-N ) :   0.4725 B(  0-Pd, 22-C ) :   0.8831
B(  0-Pd, 31-O ) :   0.4726 B(  1-O ,  2-C ) :   1.7925 B(  2-C ,  3-O ) :   1.1057
B(  2-C ,  4-C ) :   0.9575 B(  3-O , 27-H ) :   0.7077 B(  4-C ,  5-H ) :   0.9047
B(  4-C ,  6-H ) :   0.8885 B(  4-C ,  7-H ) :   0.9060 B(  8-N ,  9-C ) :   0.9098
B(  8-N , 13-C ) :   0.9205 B(  8-N , 28-C ) :   0.8881 B(  9-C , 10-H ) :   0.8535
B(  9-C , 11-H ) :   0.9059 B(  9-C , 12-H ) :   0.8968 B( 13-C , 14-H ) :   0.9057
B( 13-C , 15-H ) :   0.9016 B( 13-C , 16-H ) :   0.8960 B( 17-C , 18-C ) :   1.4217
B( 17-C , 22-C ) :   1.3142 B( 17-C , 28-C ) :   0.9714 B( 18-C , 19-C ) :   1.4145
B( 18-C , 25-H ) :   0.9255 B( 19-C , 20-C ) :   1.4452 B( 19-C , 26-H ) :   0.9195
B( 20-C , 21-C ) :   1.4087 B( 20-C , 23-H ) :   0.9205 B( 21-C , 22-C ) :   1.3948
B( 21-C , 24-H ) :   0.9190 B( 28-C , 29-H ) :   0.8953 B( 28-C , 30-H ) :   0.9051
B( 31-O , 32-C ) :   1.3511 B( 31-O , 33-O ) :   0.1058 B( 32-C , 33-O ) :   1.8447
B( 32-C , 34-C ) :   0.9219 B( 34-C , 35-H ) :   0.9237 B( 34-C , 36-H ) :   0.9224
B( 34-C , 37-H ) :   0.9210

Dispersion correction           -0.026292103
FINAL SINGLE POINT ENERGY      -988.529518902499
Dispersion correction            ... done

DIPOLE MOMENT
-------------
                                X             Y             Z
Electronic contribution:      8.69782       8.65472      -0.83457
Nuclear contribution   :    -10.02603      -6.71747       1.63564
                        -----------------------------------------
Total Dipole Moment    :     -1.32821       1.93725       0.80107
                        -----------------------------------------
Magnitude (a.u.)       :      2.48169
Magnitude (Debye)      :      6.30797

Rotational constants in cm-1:     0.014610     0.008800     0.006450
Rotational constants in MHz :   437.998353   263.805745   193.363859

                             ****ORCA TERMINATED NORMALLY****
TOTAL RUN TIME: 0 days 0 hours 7 minutes 50 seconds 202 msec
