                         Program Version 5.0.3 -  RELEASE  -
|  1> ! EnGrad PBEh-3c
|  2> %output
|  3> xyzfile=True
|  4> end
|  5> %scf
|  6> maxiter 250
|  7> end
|  8> %output
|  9> Print[P_Hirshfeld] = 1
| 10> end
| 11> % maxcore
| 12> 4000
| 13> *xyz 0 1
| 14> Pd   0.25733292   0.14261497  -0.00420719
| 15> O    1.72598107   1.47480245   0.72542639
| 16> C    1.69791586   2.67106190   0.51039448
| 17> O    0.57713726   3.27740588   0.09011247
| 18> C    2.92061193   3.52268738   0.67147976
| 19> H    2.55000880   4.44541624   1.08987769
| 20> H    3.33131711   3.79118902  -0.30574889
| 21> H    3.62421747   3.00478725   1.32255821
| 22> N   -1.27284742  -0.97854025  -0.88497629
| 23> C   -0.84001990  -2.36213648  -1.17509351
| 24> H    0.01619591  -2.35383403  -1.85395259
| 25> H   -1.68760589  -2.91195901  -1.61744339
| 26> H   -0.54174115  -2.84784904  -0.24396495
| 27> C   -1.74302838  -0.35951193  -2.13492984
| 28> H   -1.91967625   0.70872098  -1.98387925
| 29> H   -2.68659848  -0.83479669  -2.45141496
| 30> H   -0.99814271  -0.49001520  -2.91995697
| 31> C   -1.85733803  -1.11121132   1.43831433
| 32> C   -2.50967530  -1.80661316   2.43537740
| 33> C   -2.08890921  -1.69731820   3.75517773
| 34> C   -1.05221777  -0.82643724   4.04261969
| 35> C   -0.37461964  -0.16568635   3.02567725
| 36> C   -0.71775220  -0.34238492   1.69432737
| 37> H   -0.76759230  -0.68791921   5.07478924
| 38> H    0.42940652   0.48098588   3.31213408
| 39> H   -3.37484195  -2.41500407   2.20222948
| 40> H   -2.61123939  -2.23234335   4.55634392
| 41> H   -0.09714807   3.37316883   0.76819710
| 42> C   -2.39593866  -1.02058097   0.06627964
| 43> H   -2.93845654  -0.07100669   0.01627184
| 44> H   -3.09465136  -1.83301839  -0.18612040
| 45> O    1.30597762   0.59050433  -1.83723700
| 46> C    2.07443492  -0.25926009  -2.41711679
| 47> O    2.10818178  -1.45689683  -2.16647315
| 48> C    3.03653635   0.30735070  -3.46170003
| 49> H    3.38071309  -0.49542664  -4.11096912
| 50> H    3.91688526   0.73925477  -2.97108715
| 51> H    2.58798897   1.09424500  -4.06824640
| 52> *
| 53>
| 54>                          ****END OF INPUT****

CARTESIAN COORDINATES (ANGSTROEM)
---------------------------------
  Pd     0.257333    0.142615   -0.004207
  O      1.725981    1.474802    0.725426
  C      1.697916    2.671062    0.510394
  O      0.577137    3.277406    0.090112
  C      2.920612    3.522687    0.671480
  H      2.550009    4.445416    1.089878
  H      3.331317    3.791189   -0.305749
  H      3.624217    3.004787    1.322558
  N     -1.272847   -0.978540   -0.884976
  C     -0.840020   -2.362136   -1.175094
  H      0.016196   -2.353834   -1.853953
  H     -1.687606   -2.911959   -1.617443
  H     -0.541741   -2.847849   -0.243965
  C     -1.743028   -0.359512   -2.134930
  H     -1.919676    0.708721   -1.983879
  H     -2.686598   -0.834797   -2.451415
  H     -0.998143   -0.490015   -2.919957
  C     -1.857338   -1.111211    1.438314
  C     -2.509675   -1.806613    2.435377
  C     -2.088909   -1.697318    3.755178
  C     -1.052218   -0.826437    4.042620
  C     -0.374620   -0.165686    3.025677
  C     -0.717752   -0.342385    1.694327
  H     -0.767592   -0.687919    5.074789
  H      0.429407    0.480986    3.312134
  H     -3.374842   -2.415004    2.202229
  H     -2.611239   -2.232343    4.556344
  H     -0.097148    3.373169    0.768197
  C     -2.395939   -1.020581    0.066280
  H     -2.938457   -0.071007    0.016272
  H     -3.094651   -1.833018   -0.186120
  O      1.305978    0.590504   -1.837237
  C      2.074435   -0.259260   -2.417117
  O      2.108182   -1.456897   -2.166473
  C      3.036536    0.307351   -3.461700
  H      3.380713   -0.495427   -4.110969
  H      3.916885    0.739255   -2.971087
  H      2.587989    1.094245   -4.068246

 Total Charge           Charge          ....    0
 Multiplicity           Mult            ....    1
 Number of Electrons    NEL             ....  154
 Basis Dimension        Dim             ....  339

ORBITAL ENERGIES
----------------

  NO   OCC          E(Eh)            E(eV)
   0   2.0000     -19.561757      -532.3025
   1   2.0000     -19.554831      -532.1140
   2   2.0000     -19.430292      -528.7251
   3   2.0000     -19.401514      -527.9420
   4   2.0000     -14.710091      -400.2819
   5   2.0000     -10.632348      -289.3209
   6   2.0000     -10.504962      -285.8546
   7   2.0000     -10.481208      -285.2082
   8   2.0000     -10.476486      -285.0797
   9   2.0000     -10.471917      -284.9554
  10   2.0000     -10.458148      -284.5807
  11   2.0000     -10.441684      -284.1327
  12   2.0000     -10.438358      -284.0422
  13   2.0000     -10.437211      -284.0110
  14   2.0000     -10.437127      -284.0087
  15   2.0000     -10.435612      -283.9674
  16   2.0000     -10.432459      -283.8816
  17   2.0000     -10.398889      -282.9681
  18   2.0000      -3.638266       -99.0022
  19   2.0000      -2.284344       -62.1602
  20   2.0000      -2.281330       -62.0781
  21   2.0000      -2.250921       -61.2507
  22   2.0000      -1.259290       -34.2670
  23   2.0000      -1.172548       -31.9067
  24   2.0000      -1.115183       -30.3457
  25   2.0000      -1.068211       -29.0675
  26   2.0000      -1.017335       -27.6831
  27   2.0000      -0.949712       -25.8430
  28   2.0000      -0.878401       -23.9025
  29   2.0000      -0.864699       -23.5297
  30   2.0000      -0.823174       -22.3997
  31   2.0000      -0.803456       -21.8632
  32   2.0000      -0.778657       -21.1883
  33   2.0000      -0.773860       -21.0578
  34   2.0000      -0.731325       -19.9004
  35   2.0000      -0.700692       -19.0668
  36   2.0000      -0.671971       -18.2853
  37   2.0000      -0.644447       -17.5363
  38   2.0000      -0.635098       -17.2819
  39   2.0000      -0.581897       -15.8342
  40   2.0000      -0.577503       -15.7147
  41   2.0000      -0.576381       -15.6841
  42   2.0000      -0.559610       -15.2278
  43   2.0000      -0.557888       -15.1809
  44   2.0000      -0.553656       -15.0657
  45   2.0000      -0.532123       -14.4798
  46   2.0000      -0.514968       -14.0130
  47   2.0000      -0.509373       -13.8607
  48   2.0000      -0.494613       -13.4591
  49   2.0000      -0.492682       -13.4065
  50   2.0000      -0.484689       -13.1891
  51   2.0000      -0.472786       -12.8652
  52   2.0000      -0.467615       -12.7244
  53   2.0000      -0.464132       -12.6297
  54   2.0000      -0.460300       -12.5254
  55   2.0000      -0.456290       -12.4163
  56   2.0000      -0.449517       -12.2320
  57   2.0000      -0.440437       -11.9849
  58   2.0000      -0.430813       -11.7230
  59   2.0000      -0.424345       -11.5470
  60   2.0000      -0.420275       -11.4363
  61   2.0000      -0.411736       -11.2039
  62   2.0000      -0.410950       -11.1825
  63   2.0000      -0.404347       -11.0028
  64   2.0000      -0.389324       -10.5940
  65   2.0000      -0.385725       -10.4961
  66   2.0000      -0.371242       -10.1020
  67   2.0000      -0.358827        -9.7642
  68   2.0000      -0.341137        -9.2828
  69   2.0000      -0.335969        -9.1422
  70   2.0000      -0.317176        -8.6308
  71   2.0000      -0.284738        -7.7481
  72   2.0000      -0.281277        -7.6539
  73   2.0000      -0.278050        -7.5661
  74   2.0000      -0.274015        -7.4563
  75   2.0000      -0.261175        -7.1069
  76   2.0000      -0.254051        -6.9131
  77   0.0000      -0.023950        -0.6517
  78   0.0000      -0.013712        -0.3731
  79   0.0000       0.018274         0.4973
  80   0.0000       0.029430         0.8008
  81   0.0000       0.047607         1.2954

MULLIKEN ATOMIC CHARGES
-----------------------
   0 Pd:    0.359735
   1 O :   -0.367822
   2 C :    0.625591
   3 O :   -0.596349
   4 C :   -0.727581
   5 H :    0.244584
   6 H :    0.288200
   7 H :    0.274868
   8 N :   -0.477929
   9 C :   -0.540440
  10 H :    0.319967
  11 H :    0.205258
  12 H :    0.274669
  13 C :   -0.510077
  14 H :    0.262782
  15 H :    0.218158
  16 H :    0.281396
  17 C :    0.095193
  18 C :   -0.277857
  19 C :   -0.234553
  20 C :   -0.213292
  21 C :   -0.309648
  22 C :   -0.091879
  23 H :    0.210470
  24 H :    0.208526
  25 H :    0.200383
  26 H :    0.211685
  27 H :    0.480666
  28 C :   -0.323979
  29 H :    0.264412
  30 H :    0.227478
  31 O :   -0.558430
  32 C :    0.533904
  33 O :   -0.485204
  34 C :   -0.742880
  35 H :    0.231403
  36 H :    0.220249
  37 H :    0.218342
Sum of atomic charges:   -0.0000000

LOEWDIN ATOMIC CHARGES
----------------------
   0 Pd:   -0.412767
   1 O :   -0.030136
   2 C :    0.224753
   3 O :   -0.285576
   4 C :   -0.366788
   5 H :    0.153688
   6 H :    0.178574
   7 H :    0.166645
   8 N :   -0.028664
   9 C :   -0.236074
  10 H :    0.175282
  11 H :    0.115138
  12 H :    0.155843
  13 C :   -0.227334
  14 H :    0.149436
  15 H :    0.120917
  16 H :    0.158995
  17 C :   -0.062735
  18 C :   -0.136211
  19 C :   -0.142893
  20 C :   -0.136328
  21 C :   -0.130291
  22 C :   -0.027344
  23 H :    0.132256
  24 H :    0.138262
  25 H :    0.131305
  26 H :    0.133353
  27 H :    0.363035
  28 C :   -0.106452
  29 H :    0.151557
  30 H :    0.128147
  31 O :   -0.259096
  32 C :    0.100551
  33 O :   -0.302300
  34 C :   -0.394556
  35 H :    0.137181
  36 H :    0.139173
  37 H :    0.131454

  Mayer bond orders larger than 0.100000
B(  0-Pd,  1-O ) :   0.3437 B(  0-Pd,  8-N ) :   0.4688 B(  0-Pd, 22-C ) :   0.8872
B(  0-Pd, 31-O ) :   0.4624 B(  1-O ,  2-C ) :   1.7970 B(  2-C ,  3-O ) :   1.0996
B(  2-C ,  4-C ) :   0.9638 B(  3-O , 27-H ) :   0.7181 B(  4-C ,  5-H ) :   0.9019
B(  4-C ,  6-H ) :   0.8878 B(  4-C ,  7-H ) :   0.9049 B(  8-N ,  9-C ) :   0.9077
B(  8-N , 13-C ) :   0.9189 B(  8-N , 28-C ) :   0.8923 B(  9-C , 10-H ) :   0.8539
B(  9-C , 11-H ) :   0.9061 B(  9-C , 12-H ) :   0.8966 B( 13-C , 14-H ) :   0.9050
B( 13-C , 15-H ) :   0.9016 B( 13-C , 16-H ) :   0.8965 B( 17-C , 18-C ) :   1.4250
B( 17-C , 22-C ) :   1.3114 B( 17-C , 28-C ) :   0.9677 B( 18-C , 19-C ) :   1.4136
B( 18-C , 25-H ) :   0.9258 B( 19-C , 20-C ) :   1.4472 B( 19-C , 26-H ) :   0.9202
B( 20-C , 21-C ) :   1.4072 B( 20-C , 23-H ) :   0.9203 B( 21-C , 22-C ) :   1.4043
B( 21-C , 24-H ) :   0.9202 B( 28-C , 29-H ) :   0.8949 B( 28-C , 30-H ) :   0.9058
B( 31-O , 32-C ) :   1.3686 B( 31-O , 33-O ) :   0.1051 B( 32-C , 33-O ) :   1.8391
B( 32-C , 34-C ) :   0.9213 B( 34-C , 35-H ) :   0.9230 B( 34-C , 36-H ) :   0.9234
B( 34-C , 37-H ) :   0.9212

Dispersion correction           -0.026329389
FINAL SINGLE POINT ENERGY      -988.525057325773
Dispersion correction            ... done

DIPOLE MOMENT
-------------
                                X             Y             Z
Electronic contribution:      9.31981       8.02464       0.30934
Nuclear contribution   :    -10.57067      -5.92685       0.61338
                        -----------------------------------------
Total Dipole Moment    :     -1.25086       2.09779       0.92271
                        -----------------------------------------
Magnitude (a.u.)       :      2.61090
Magnitude (Debye)      :      6.63637

Rotational constants in cm-1:     0.014643     0.008758     0.006441
Rotational constants in MHz :   438.982498   262.547554   193.106582

                             ****ORCA TERMINATED NORMALLY****
TOTAL RUN TIME: 0 days 0 hours 7 minutes 58 seconds 115 msec
