                         Program Version 5.0.3 -  RELEASE  -
|  1> ! EnGrad PBEh-3c
|  2> %output
|  3> xyzfile=True
|  4> end
|  5> %scf
|  6> maxiter 250
|  7> end
|  8> %output
|  9> Print[P_Hirshfeld] = 1
| 10> end
| 11> % maxcore
| 12> 4000
| 13> *xyz 0 1
| 14> Pd   0.31726326   0.10899772  -0.11673589
| 15> O    1.89994386   1.22638231   0.75479994
| 16> C    1.85386160   2.44468010   0.57302317
| 17> O    0.76699012   2.99313824  -0.01779560
| 18> C    3.03489742   3.32833398   0.79142924
| 19> H    2.76469011   4.29213615   1.21995588
| 20> H    3.52492889   3.55521264  -0.16330576
| 21> H    3.76491360   2.84088611   1.41833396
| 22> N   -1.22033839  -1.06385526  -0.88806289
| 23> C   -0.75633253  -2.45719279  -1.02193002
| 24> H    0.10623995  -2.51490809  -1.67148306
| 25> H   -1.53363764  -3.08749137  -1.46790954
| 26> H   -0.47350087  -2.86074480  -0.05694021
| 27> C   -1.67687883  -0.60884276  -2.20915886
| 28> H   -1.89615463   0.45491604  -2.18585608
| 29> H   -2.57189333  -1.15163492  -2.52599887
| 30> H   -0.92462209  -0.80947225  -2.96224728
| 31> C   -1.95165250  -1.00886134   1.48647934
| 32> C   -2.68704569  -1.61077518   2.50028167
| 33> C   -2.28381273  -1.50552862   3.82782214
| 34> C   -1.13965398  -0.80742561   4.14613400
| 35> C   -0.39285875  -0.22971896   3.13431804
| 36> C   -0.80285210  -0.27615476   1.78306018
| 37> H   -0.81260543  -0.72788580   5.17955242
| 38> H    0.53032676   0.20524124   3.46756042
| 39> H   -3.58341123  -2.16395197   2.27688084
| 40> H   -2.85722523  -1.97161504   4.61194881
| 41> H   -0.31310825   4.12359034   0.33569024
| 42> C   -2.37385623  -1.02039596   0.05507807
| 43> H   -2.93857555  -0.10942111  -0.14519841
| 44> H   -3.06234232  -1.85311651  -0.12356129
| 45> O    1.26048198   0.75552050  -1.88335622
| 46> C    1.99536893  -0.05148341  -2.55846132
| 47> O    2.03277987  -1.25541534  -2.37600673
| 48> C    2.90824143   0.58301311  -3.60496131
| 49> H    3.26726821  -0.15979592  -4.31378038
| 50> H    3.78088528   1.00403962  -3.10377995
| 51> H    2.44342116   1.38950037  -4.16576432
| 52> *
| 53>
| 54>                          ****END OF INPUT****

CARTESIAN COORDINATES (ANGSTROEM)
---------------------------------
  Pd     0.317263    0.108998   -0.116736
  O      1.899944    1.226382    0.754800
  C      1.853862    2.444680    0.573023
  O      0.766990    2.993138   -0.017796
  C      3.034897    3.328334    0.791429
  H      2.764690    4.292136    1.219956
  H      3.524929    3.555213   -0.163306
  H      3.764914    2.840886    1.418334
  N     -1.220338   -1.063855   -0.888063
  C     -0.756333   -2.457193   -1.021930
  H      0.106240   -2.514908   -1.671483
  H     -1.533638   -3.087491   -1.467910
  H     -0.473501   -2.860745   -0.056940
  C     -1.676879   -0.608843   -2.209159
  H     -1.896155    0.454916   -2.185856
  H     -2.571893   -1.151635   -2.525999
  H     -0.924622   -0.809472   -2.962247
  C     -1.951653   -1.008861    1.486479
  C     -2.687046   -1.610775    2.500282
  C     -2.283813   -1.505529    3.827822
  C     -1.139654   -0.807426    4.146134
  C     -0.392859   -0.229719    3.134318
  C     -0.802852   -0.276155    1.783060
  H     -0.812605   -0.727886    5.179552
  H      0.530327    0.205241    3.467560
  H     -3.583411   -2.163952    2.276881
  H     -2.857225   -1.971615    4.611949
  H     -0.313108    4.123590    0.335690
  C     -2.373856   -1.020396    0.055078
  H     -2.938576   -0.109421   -0.145198
  H     -3.062342   -1.853117   -0.123561
  O      1.260482    0.755521   -1.883356
  C      1.995369   -0.051483   -2.558461
  O      2.032780   -1.255415   -2.376007
  C      2.908241    0.583013   -3.604961
  H      3.267268   -0.159796   -4.313780
  H      3.780885    1.004040   -3.103780
  H      2.443421    1.389500   -4.165764

 Total Charge           Charge          ....    0
 Multiplicity           Mult            ....    1
 Number of Electrons    NEL             ....  154
 Basis Dimension        Dim             ....  339

ORBITAL ENERGIES
----------------

  NO   OCC          E(Eh)            E(eV)
   0   2.0000     -19.563659      -532.3542
   1   2.0000     -19.547764      -531.9217
   2   2.0000     -19.434834      -528.8487
   3   2.0000     -19.404099      -528.0124
   4   2.0000     -14.708774      -400.2461
   5   2.0000     -10.620600      -289.0012
   6   2.0000     -10.506054      -285.8843
   7   2.0000     -10.477919      -285.1187
   8   2.0000     -10.468310      -284.8572
   9   2.0000     -10.466536      -284.8089
  10   2.0000     -10.453945      -284.4663
  11   2.0000     -10.438878      -284.0563
  12   2.0000     -10.434004      -283.9237
  13   2.0000     -10.433272      -283.9038
  14   2.0000     -10.429578      -283.8032
  15   2.0000     -10.428609      -283.7769
  16   2.0000     -10.426793      -283.7275
  17   2.0000     -10.400371      -283.0085
  18   2.0000      -3.628828       -98.7454
  19   2.0000      -2.276141       -61.9369
  20   2.0000      -2.269822       -61.7650
  21   2.0000      -2.240840       -60.9764
  22   2.0000      -1.221771       -33.2461
  23   2.0000      -1.121559       -30.5192
  24   2.0000      -1.113319       -30.2949
  25   2.0000      -1.060729       -28.8639
  26   2.0000      -1.021548       -27.7977
  27   2.0000      -0.939995       -25.5786
  28   2.0000      -0.861070       -23.4309
  29   2.0000      -0.858210       -23.3531
  30   2.0000      -0.810509       -22.0551
  31   2.0000      -0.801748       -21.8167
  32   2.0000      -0.778215       -21.1763
  33   2.0000      -0.774449       -21.0738
  34   2.0000      -0.700040       -19.0491
  35   2.0000      -0.664446       -18.0805
  36   2.0000      -0.658285       -17.9128
  37   2.0000      -0.634787       -17.2734
  38   2.0000      -0.594886       -16.1877
  39   2.0000      -0.572394       -15.5756
  40   2.0000      -0.566352       -15.4112
  41   2.0000      -0.561784       -15.2869
  42   2.0000      -0.555191       -15.1075
  43   2.0000      -0.553794       -15.0695
  44   2.0000      -0.544715       -14.8224
  45   2.0000      -0.529141       -14.3986
  46   2.0000      -0.503082       -13.6896
  47   2.0000      -0.492345       -13.3974
  48   2.0000      -0.486590       -13.2408
  49   2.0000      -0.486029       -13.2255
  50   2.0000      -0.472786       -12.8652
  51   2.0000      -0.468410       -12.7461
  52   2.0000      -0.464662       -12.6441
  53   2.0000      -0.461676       -12.5628
  54   2.0000      -0.455730       -12.4010
  55   2.0000      -0.442910       -12.0522
  56   2.0000      -0.434789       -11.8312
  57   2.0000      -0.427405       -11.6303
  58   2.0000      -0.422541       -11.4979
  59   2.0000      -0.419022       -11.4022
  60   2.0000      -0.410897       -11.1811
  61   2.0000      -0.402900       -10.9635
  62   2.0000      -0.396358       -10.7854
  63   2.0000      -0.391308       -10.6480
  64   2.0000      -0.385758       -10.4970
  65   2.0000      -0.377917       -10.2836
  66   2.0000      -0.362322        -9.8593
  67   2.0000      -0.344120        -9.3640
  68   2.0000      -0.332431        -9.0459
  69   2.0000      -0.314511        -8.5583
  70   2.0000      -0.311670        -8.4810
  71   2.0000      -0.279862        -7.6154
  72   2.0000      -0.275005        -7.4833
  73   2.0000      -0.272601        -7.4179
  74   2.0000      -0.267433        -7.2772
  75   2.0000      -0.259357        -7.0575
  76   2.0000      -0.253897        -6.9089
  77   0.0000      -0.143885        -3.9153
  78   0.0000      -0.020823        -0.5666
  79   0.0000       0.009742         0.2651
  80   0.0000       0.032035         0.8717
  81   0.0000       0.033693         0.9168

MULLIKEN ATOMIC CHARGES
-----------------------
   0 Pd:    0.374928
   1 O :   -0.382072
   2 C :    0.666056
   3 O :   -0.489939
   4 C :   -0.751883
   5 H :    0.242470
   6 H :    0.281630
   7 H :    0.269783
   8 N :   -0.483024
   9 C :   -0.555949
  10 H :    0.321371
  11 H :    0.211797
  12 H :    0.279037
  13 C :   -0.517447
  14 H :    0.263340
  15 H :    0.220043
  16 H :    0.283199
  17 C :    0.064154
  18 C :   -0.267607
  19 C :   -0.235295
  20 C :   -0.202414
  21 C :   -0.320141
  22 C :   -0.089664
  23 H :    0.209359
  24 H :    0.213041
  25 H :    0.197047
  26 H :    0.209634
  27 H :    0.377701
  28 C :   -0.310555
  29 H :    0.259697
  30 H :    0.225712
  31 O :   -0.552777
  32 C :    0.537649
  33 O :   -0.478391
  34 C :   -0.746780
  35 H :    0.232519
  36 H :    0.222365
  37 H :    0.221408
Sum of atomic charges:    0.0000000

LOEWDIN ATOMIC CHARGES
----------------------
   0 Pd:   -0.413733
   1 O :   -0.039858
   2 C :    0.225285
   3 O :   -0.244735
   4 C :   -0.376435
   5 H :    0.149746
   6 H :    0.175183
   7 H :    0.158416
   8 N :   -0.027106
   9 C :   -0.239730
  10 H :    0.172493
  11 H :    0.116769
  12 H :    0.156160
  13 C :   -0.229299
  14 H :    0.148947
  15 H :    0.119889
  16 H :    0.158495
  17 C :   -0.070155
  18 C :   -0.139243
  19 C :   -0.144516
  20 C :   -0.142309
  21 C :   -0.131456
  22 C :   -0.039790
  23 H :    0.131200
  24 H :    0.136867
  25 H :    0.129266
  26 H :    0.131003
  27 H :    0.365345
  28 C :   -0.104791
  29 H :    0.148926
  30 H :    0.127926
  31 O :   -0.236616
  32 C :    0.101596
  33 O :   -0.291118
  34 C :   -0.392858
  35 H :    0.137007
  36 H :    0.140556
  37 H :    0.132672

  Mayer bond orders larger than 0.100000
B(  0-Pd,  1-O ) :   0.3613 B(  0-Pd,  8-N ) :   0.4669 B(  0-Pd, 22-C ) :   0.7818
B(  0-Pd, 31-O ) :   0.4917 B(  1-O ,  2-C ) :   1.6955 B(  2-C ,  3-O ) :   1.1775
B(  2-C ,  4-C ) :   0.9623 B(  3-O , 27-H ) :   0.6983 B(  4-C ,  5-H ) :   0.9086
B(  4-C ,  6-H ) :   0.8893 B(  4-C ,  7-H ) :   0.9016 B(  8-N ,  9-C ) :   0.9128
B(  8-N , 13-C ) :   0.9220 B(  8-N , 28-C ) :   0.8875 B(  9-C , 10-H ) :   0.8578
B(  9-C , 11-H ) :   0.9056 B(  9-C , 12-H ) :   0.8953 B( 13-C , 14-H ) :   0.9066
B( 13-C , 15-H ) :   0.9015 B( 13-C , 16-H ) :   0.8950 B( 17-C , 18-C ) :   1.3992
B( 17-C , 22-C ) :   1.3523 B( 17-C , 28-C ) :   0.9761 B( 18-C , 19-C ) :   1.4391
B( 18-C , 25-H ) :   0.9259 B( 19-C , 20-C ) :   1.4315 B( 19-C , 26-H ) :   0.9202
B( 20-C , 21-C ) :   1.4250 B( 20-C , 23-H ) :   0.9194 B( 21-C , 22-C ) :   1.3965
B( 21-C , 24-H ) :   0.9190 B( 28-C , 29-H ) :   0.8960 B( 28-C , 30-H ) :   0.9064
B( 31-O , 32-C ) :   1.3490 B( 31-O , 33-O ) :   0.1032 B( 32-C , 33-O ) :   1.8504
B( 32-C , 34-C ) :   0.9250 B( 34-C , 35-H ) :   0.9227 B( 34-C , 36-H ) :   0.9219
B( 34-C , 37-H ) :   0.9199

Dispersion correction           -0.026395947
FINAL SINGLE POINT ENERGY      -988.376213204194
Dispersion correction            ... done

DIPOLE MOMENT
-------------
                                X             Y             Z
Electronic contribution:     12.47836       6.77478      -5.87496
Nuclear contribution   :    -13.64479      -4.33691       6.46752
                        -----------------------------------------
Total Dipole Moment    :     -1.16642       2.43787       0.59256
                        -----------------------------------------
Magnitude (a.u.)       :      2.76674
Magnitude (Debye)      :      7.03250

Rotational constants in cm-1:     0.015275     0.008524     0.006243
Rotational constants in MHz :   457.923358   255.542447   187.153333

                             ****ORCA TERMINATED NORMALLY****
TOTAL RUN TIME: 0 days 0 hours 12 minutes 22 seconds 905 msec
