                         Program Version 5.0.3 -  RELEASE  -
|  1> ! EnGrad PBEh-3c
|  2> %output
|  3> xyzfile=True
|  4> end
|  5> %scf
|  6> maxiter 250
|  7> end
|  8> %output
|  9> Print[P_Hirshfeld] = 1
| 10> end
| 11> % maxcore
| 12> 4000
| 13> *xyz 0 1
| 14> Pd   0.25226699   0.12072064  -0.03730941
| 15> O    1.68454401   1.46706136   0.73070768
| 16> C    1.69396384   2.63575934   0.46896524
| 17> O    0.61341694   3.30579221   0.05783056
| 18> C    2.83595042   3.56199148   0.64754911
| 19> H    2.58418810   4.51743660   1.11827513
| 20> H    3.31077662   3.81038581  -0.29887496
| 21> H    3.49327647   3.01634138   1.28320248
| 22> N   -1.27981366  -0.96991246  -0.88370926
| 23> C   -0.85229171  -2.34687913  -1.17676967
| 24> H   -0.01067540  -2.33646291  -1.85897393
| 25> H   -1.69396867  -2.88726246  -1.61574026
| 26> H   -0.54273008  -2.86215319  -0.26921616
| 27> C   -1.75120316  -0.33513206  -2.12507113
| 28> H   -1.92161190   0.73278570  -1.98163313
| 29> H   -2.68619711  -0.81364349  -2.42977811
| 30> H   -1.01269731  -0.48173332  -2.90558195
| 31> C   -1.83897794  -1.13131769   1.45450979
| 32> C   -2.50796996  -1.84029240   2.43633302
| 33> C   -2.08523737  -1.70808090   3.75193999
| 34> C   -1.04132868  -0.84810196   4.06332843
| 35> C   -0.37955291  -0.16546715   3.02311729
| 36> C   -0.70409152  -0.34130634   1.68026417
| 37> H   -0.77477794  -0.69616207   5.12075545
| 38> H    0.38682162   0.53877908   3.30725254
| 39> H   -3.38591443  -2.44471468   2.18027028
| 40> H   -2.60592851  -2.25098569   4.52400858
| 41> H    0.06314517   3.31203651   0.83314412
| 42> C   -2.38213413  -1.02359390   0.08901238
| 43> H   -2.92918170  -0.08391537   0.03329733
| 44> H   -3.08808590  -1.81558121  -0.17029262
| 45> O    1.31115708   0.58381300  -1.84333775
| 46> C    2.08681737  -0.27596308  -2.40654125
| 47> O    2.12672394  -1.47614624  -2.17278292
| 48> C    3.04799039   0.29395472  -3.45648259
| 49> H    3.39583013  -0.50933795  -4.09955378
| 50> H    3.93826558   0.71943515  -2.98362921
| 51> H    2.62052542   1.07541912  -4.08738006
| 52> *
| 53>
| 54>                          ****END OF INPUT****

CARTESIAN COORDINATES (ANGSTROEM)
---------------------------------
  Pd     0.252267    0.120721   -0.037309
  O      1.684544    1.467061    0.730708
  C      1.693964    2.635759    0.468965
  O      0.613417    3.305792    0.057831
  C      2.835950    3.561991    0.647549
  H      2.584188    4.517437    1.118275
  H      3.310777    3.810386   -0.298875
  H      3.493276    3.016341    1.283202
  N     -1.279814   -0.969912   -0.883709
  C     -0.852292   -2.346879   -1.176770
  H     -0.010675   -2.336463   -1.858974
  H     -1.693969   -2.887262   -1.615740
  H     -0.542730   -2.862153   -0.269216
  C     -1.751203   -0.335132   -2.125071
  H     -1.921612    0.732786   -1.981633
  H     -2.686197   -0.813643   -2.429778
  H     -1.012697   -0.481733   -2.905582
  C     -1.838978   -1.131318    1.454510
  C     -2.507970   -1.840292    2.436333
  C     -2.085237   -1.708081    3.751940
  C     -1.041329   -0.848102    4.063328
  C     -0.379553   -0.165467    3.023117
  C     -0.704092   -0.341306    1.680264
  H     -0.774778   -0.696162    5.120755
  H      0.386822    0.538779    3.307253
  H     -3.385914   -2.444715    2.180270
  H     -2.605929   -2.250986    4.524009
  H      0.063145    3.312037    0.833144
  C     -2.382134   -1.023594    0.089012
  H     -2.929182   -0.083915    0.033297
  H     -3.088086   -1.815581   -0.170293
  O      1.311157    0.583813   -1.843338
  C      2.086817   -0.275963   -2.406541
  O      2.126724   -1.476146   -2.172783
  C      3.047990    0.293955   -3.456483
  H      3.395830   -0.509338   -4.099554
  H      3.938266    0.719435   -2.983629
  H      2.620525    1.075419   -4.087380

 Total Charge           Charge          ....    0
 Multiplicity           Mult            ....    1
 Number of Electrons    NEL             ....  154
 Basis Dimension        Dim             ....  339

ORBITAL ENERGIES
----------------

  NO   OCC          E(Eh)            E(eV)
   0   2.0000     -19.562077      -532.3112
   1   2.0000     -19.557198      -532.1784
   2   2.0000     -19.436532      -528.8949
   3   2.0000     -19.407065      -528.0931
   4   2.0000     -14.713145      -400.3650
   5   2.0000     -10.630575      -289.2727
   6   2.0000     -10.509911      -285.9892
   7   2.0000     -10.479235      -285.1545
   8   2.0000     -10.473257      -284.9918
   9   2.0000     -10.470322      -284.9120
  10   2.0000     -10.457948      -284.5752
  11   2.0000     -10.442452      -284.1536
  12   2.0000     -10.441628      -284.1311
  13   2.0000     -10.440570      -284.1023
  14   2.0000     -10.438488      -284.0457
  15   2.0000     -10.437291      -284.0131
  16   2.0000     -10.437000      -284.0052
  17   2.0000     -10.399476      -282.9841
  18   2.0000      -3.642142       -99.1077
  19   2.0000      -2.288541       -62.2744
  20   2.0000      -2.285328       -62.1869
  21   2.0000      -2.254559       -61.3497
  22   2.0000      -1.273301       -34.6483
  23   2.0000      -1.185443       -32.2575
  24   2.0000      -1.118565       -30.4377
  25   2.0000      -1.072904       -29.1952
  26   2.0000      -1.023657       -27.8551
  27   2.0000      -0.948324       -25.8052
  28   2.0000      -0.880564       -23.9614
  29   2.0000      -0.864870       -23.5343
  30   2.0000      -0.823271       -22.4023
  31   2.0000      -0.808479       -21.9998
  32   2.0000      -0.779489       -21.2110
  33   2.0000      -0.774400       -21.0725
  34   2.0000      -0.717022       -19.5112
  35   2.0000      -0.704172       -19.1615
  36   2.0000      -0.671891       -18.2831
  37   2.0000      -0.646247       -17.5853
  38   2.0000      -0.643006       -17.4971
  39   2.0000      -0.587863       -15.9966
  40   2.0000      -0.587075       -15.9751
  41   2.0000      -0.581377       -15.8201
  42   2.0000      -0.563160       -15.3244
  43   2.0000      -0.561424       -15.2771
  44   2.0000      -0.558803       -15.2058
  45   2.0000      -0.533503       -14.5174
  46   2.0000      -0.511234       -13.9114
  47   2.0000      -0.510138       -13.8816
  48   2.0000      -0.502241       -13.6667
  49   2.0000      -0.495011       -13.4699
  50   2.0000      -0.488287       -13.2870
  51   2.0000      -0.475882       -12.9494
  52   2.0000      -0.471110       -12.8196
  53   2.0000      -0.467835       -12.7304
  54   2.0000      -0.460922       -12.5423
  55   2.0000      -0.460346       -12.5267
  56   2.0000      -0.450958       -12.2712
  57   2.0000      -0.443189       -12.0598
  58   2.0000      -0.434062       -11.8114
  59   2.0000      -0.426042       -11.5932
  60   2.0000      -0.420491       -11.4421
  61   2.0000      -0.412217       -11.2170
  62   2.0000      -0.409701       -11.1485
  63   2.0000      -0.403282       -10.9739
  64   2.0000      -0.392399       -10.6777
  65   2.0000      -0.386999       -10.5308
  66   2.0000      -0.377534       -10.2732
  67   2.0000      -0.363339        -9.8869
  68   2.0000      -0.343723        -9.3532
  69   2.0000      -0.339210        -9.2304
  70   2.0000      -0.319953        -8.7064
  71   2.0000      -0.287676        -7.8281
  72   2.0000      -0.284133        -7.7317
  73   2.0000      -0.279082        -7.5942
  74   2.0000      -0.278478        -7.5778
  75   2.0000      -0.263299        -7.1647
  76   2.0000      -0.257835        -7.0160
  77   0.0000      -0.024270        -0.6604
  78   0.0000      -0.012245        -0.3332
  79   0.0000       0.017512         0.4765
  80   0.0000       0.026866         0.7311
  81   0.0000       0.049543         1.3481

MULLIKEN ATOMIC CHARGES
-----------------------
   0 Pd:    0.364158
   1 O :   -0.358138
   2 C :    0.608020
   3 O :   -0.577024
   4 C :   -0.743746
   5 H :    0.256114
   6 H :    0.288899
   7 H :    0.265731
   8 N :   -0.486973
   9 C :   -0.545991
  10 H :    0.319071
  11 H :    0.209503
  12 H :    0.279244
  13 C :   -0.512477
  14 H :    0.267766
  15 H :    0.221901
  16 H :    0.282939
  17 C :    0.077931
  18 C :   -0.263490
  19 C :   -0.242425
  20 C :   -0.205186
  21 C :   -0.327983
  22 C :   -0.071566
  23 H :    0.210555
  24 H :    0.202750
  25 H :    0.202626
  26 H :    0.213170
  27 H :    0.472153
  28 C :   -0.324617
  29 H :    0.266478
  30 H :    0.228011
  31 O :   -0.561060
  32 C :    0.538888
  33 O :   -0.480288
  34 C :   -0.747017
  35 H :    0.232685
  36 H :    0.220451
  37 H :    0.218936
Sum of atomic charges:    0.0000000

LOEWDIN ATOMIC CHARGES
----------------------
   0 Pd:   -0.416142
   1 O :   -0.014437
   2 C :    0.210422
   3 O :   -0.281784
   4 C :   -0.375253
   5 H :    0.157583
   6 H :    0.179306
   7 H :    0.159250
   8 N :   -0.024388
   9 C :   -0.236353
  10 H :    0.173417
  11 H :    0.116144
  12 H :    0.157507
  13 C :   -0.225415
  14 H :    0.152320
  15 H :    0.122358
  16 H :    0.159877
  17 C :   -0.058654
  18 C :   -0.140346
  19 C :   -0.140413
  20 C :   -0.139408
  21 C :   -0.125934
  22 C :   -0.034347
  23 H :    0.134794
  24 H :    0.134933
  25 H :    0.133346
  26 H :    0.132029
  27 H :    0.357970
  28 C :   -0.107436
  29 H :    0.150737
  30 H :    0.126893
  31 O :   -0.258001
  32 C :    0.106357
  33 O :   -0.296769
  34 C :   -0.396644
  35 H :    0.136980
  36 H :    0.138414
  37 H :    0.131089

  Mayer bond orders larger than 0.100000
B(  0-Pd,  1-O ) :   0.3290 B(  0-Pd,  8-N ) :   0.4849 B(  0-Pd, 22-C ) :   0.8750
B(  0-Pd, 31-O ) :   0.4701 B(  1-O ,  2-C ) :   1.8283 B(  2-C ,  3-O ) :   1.1091
B(  2-C ,  4-C ) :   0.9648 B(  3-O , 27-H ) :   0.7291 B(  4-C ,  5-H ) :   0.9048
B(  4-C ,  6-H ) :   0.8872 B(  4-C ,  7-H ) :   0.9045 B(  8-N ,  9-C ) :   0.9087
B(  8-N , 13-C ) :   0.9162 B(  8-N , 28-C ) :   0.8880 B(  9-C , 10-H ) :   0.8563
B(  9-C , 11-H ) :   0.9054 B(  9-C , 12-H ) :   0.8952 B( 13-C , 14-H ) :   0.9034
B( 13-C , 15-H ) :   0.9013 B( 13-C , 16-H ) :   0.8954 B( 17-C , 18-C ) :   1.4192
B( 17-C , 22-C ) :   1.3036 B( 17-C , 28-C ) :   0.9750 B( 18-C , 19-C ) :   1.4128
B( 18-C , 25-H ) :   0.9253 B( 19-C , 20-C ) :   1.4497 B( 19-C , 26-H ) :   0.9187
B( 20-C , 21-C ) :   1.3958 B( 20-C , 23-H ) :   0.9213 B( 21-C , 22-C ) :   1.4027
B( 21-C , 24-H ) :   0.9218 B( 28-C , 29-H ) :   0.8926 B( 28-C , 30-H ) :   0.9049
B( 31-O , 32-C ) :   1.3571 B( 31-O , 33-O ) :   0.1064 B( 32-C , 33-O ) :   1.8460
B( 32-C , 34-C ) :   0.9205 B( 34-C , 35-H ) :   0.9226 B( 34-C , 36-H ) :   0.9230
B( 34-C , 37-H ) :   0.9210

Dispersion correction           -0.026328641
FINAL SINGLE POINT ENERGY      -988.516934887872
Dispersion correction            ... done

DIPOLE MOMENT
-------------
                                X             Y             Z
Electronic contribution:      9.08365       6.76882      -1.46267
Nuclear contribution   :    -10.30157      -4.82084       2.32778
                        -----------------------------------------
Total Dipole Moment    :     -1.21792       1.94799       0.86511
                        -----------------------------------------
Magnitude (a.u.)       :      2.45487
Magnitude (Debye)      :      6.23978

Rotational constants in cm-1:     0.014689     0.008731     0.006444
Rotational constants in MHz :   440.371143   261.735865   193.181001

                             ****ORCA TERMINATED NORMALLY****
TOTAL RUN TIME: 0 days 0 hours 7 minutes 21 seconds 109 msec
