                         Program Version 5.0.3 -  RELEASE  -
|  1> ! EnGrad PBEh-3c
|  2> %output
|  3> xyzfile=True
|  4> end
|  5> %scf
|  6> maxiter 250
|  7> end
|  8> %output
|  9> Print[P_Hirshfeld] = 1
| 10> end
| 11> % maxcore
| 12> 4000
| 13> *xyz 0 1
| 14> Pd   0.22875595   0.15086256  -0.02915716
| 15> O    1.64423354   1.44297952   0.79446539
| 16> C    1.67901889   2.64489107   0.58589976
| 17> O    0.65832546   3.38946347   0.19127037
| 18> C    2.91141531   3.49723030   0.69131274
| 19> H    2.63761882   4.44104015   1.13961673
| 20> H    3.34785428   3.68699339  -0.28490705
| 21> H    3.70268082   3.05223717   1.26032157
| 22> N   -1.26895247  -0.98771376  -0.89985999
| 23> C   -0.82115884  -2.37164777  -1.15051524
| 24> H    0.04347282  -2.38074358  -1.80922554
| 25> H   -1.63404616  -2.95072550  -1.60693847
| 26> H   -0.54327822  -2.84225470  -0.21036971
| 27> C   -1.72442616  -0.38694554  -2.16577983
| 28> H   -1.92479717   0.67484825  -2.01612606
| 29> H   -2.65192630  -0.87626458  -2.49816854
| 30> H   -0.96734383  -0.49235413  -2.94294000
| 31> C   -1.88286349  -1.07121908   1.44129580
| 32> C   -2.55129326  -1.75996695   2.44639692
| 33> C   -2.11406919  -1.62445542   3.76376664
| 34> C   -1.02354638  -0.80132284   4.03000231
| 35> C   -0.31901198  -0.17975652   2.99712750
| 36> C   -0.71500429  -0.32427867   1.66883142
| 37> H   -0.71519669  -0.65977125   5.06209008
| 38> H    0.54375774   0.39879101   3.28224852
| 39> H   -3.40873307  -2.40053764   2.21309383
| 40> H   -2.60740543  -2.18316021   4.56674556
| 41> H   -0.20505547   3.23477406   0.60029127
| 42> C   -2.39930633  -1.01316619   0.05011313
| 43> H   -2.96092910  -0.08729815  -0.08114171
| 44> H   -3.08857151  -1.82190962  -0.21461432
| 45> O    1.28580862   0.62570988  -1.80051902
| 46> C    2.03666142  -0.23865381  -2.38740188
| 47> O    2.06679566  -1.43691261  -2.14746585
| 48> C    2.97964792   0.33464013  -3.43974332
| 49> H    3.34213580  -0.44162863  -4.10858134
| 50> H    3.85697411   0.76276393  -2.95239693
| 51> H    2.52589075   1.12843457  -4.02856933
| 52> *
| 53>
| 54>                          ****END OF INPUT****

CARTESIAN COORDINATES (ANGSTROEM)
---------------------------------
  Pd     0.228756    0.150863   -0.029157
  O      1.644234    1.442980    0.794465
  C      1.679019    2.644891    0.585900
  O      0.658325    3.389463    0.191270
  C      2.911415    3.497230    0.691313
  H      2.637619    4.441040    1.139617
  H      3.347854    3.686993   -0.284907
  H      3.702681    3.052237    1.260322
  N     -1.268952   -0.987714   -0.899860
  C     -0.821159   -2.371648   -1.150515
  H      0.043473   -2.380744   -1.809226
  H     -1.634046   -2.950725   -1.606938
  H     -0.543278   -2.842255   -0.210370
  C     -1.724426   -0.386946   -2.165780
  H     -1.924797    0.674848   -2.016126
  H     -2.651926   -0.876265   -2.498169
  H     -0.967344   -0.492354   -2.942940
  C     -1.882863   -1.071219    1.441296
  C     -2.551293   -1.759967    2.446397
  C     -2.114069   -1.624455    3.763767
  C     -1.023546   -0.801323    4.030002
  C     -0.319012   -0.179757    2.997127
  C     -0.715004   -0.324279    1.668831
  H     -0.715197   -0.659771    5.062090
  H      0.543758    0.398791    3.282249
  H     -3.408733   -2.400538    2.213094
  H     -2.607405   -2.183160    4.566746
  H     -0.205055    3.234774    0.600291
  C     -2.399306   -1.013166    0.050113
  H     -2.960929   -0.087298   -0.081142
  H     -3.088572   -1.821910   -0.214614
  O      1.285809    0.625710   -1.800519
  C      2.036661   -0.238654   -2.387402
  O      2.066796   -1.436913   -2.147466
  C      2.979648    0.334640   -3.439743
  H      3.342136   -0.441629   -4.108581
  H      3.856974    0.762764   -2.952397
  H      2.525891    1.128435   -4.028569

 Total Charge           Charge          ....    0
 Multiplicity           Mult            ....    1
 Number of Electrons    NEL             ....  154
 Basis Dimension        Dim             ....  339

ORBITAL ENERGIES
----------------

  NO   OCC          E(Eh)            E(eV)
   0   2.0000     -19.572658      -532.5991
   1   2.0000     -19.552706      -532.0562
   2   2.0000     -19.435689      -528.8720
   3   2.0000     -19.406981      -528.0908
   4   2.0000     -14.711769      -400.3276
   5   2.0000     -10.633956      -289.3646
   6   2.0000     -10.509427      -285.9761
   7   2.0000     -10.481784      -285.2239
   8   2.0000     -10.474398      -285.0229
   9   2.0000     -10.467324      -284.8304
  10   2.0000     -10.456587      -284.5382
  11   2.0000     -10.444968      -284.2220
  12   2.0000     -10.442685      -284.1599
  13   2.0000     -10.439356      -284.0693
  14   2.0000     -10.438171      -284.0371
  15   2.0000     -10.437864      -284.0287
  16   2.0000     -10.434550      -283.9385
  17   2.0000     -10.399505      -282.9849
  18   2.0000      -3.641150       -99.0807
  19   2.0000      -2.287174       -62.2372
  20   2.0000      -2.284153       -62.1550
  21   2.0000      -2.254174       -61.3392
  22   2.0000      -1.261893       -34.3379
  23   2.0000      -1.176668       -32.0188
  24   2.0000      -1.120291       -30.4847
  25   2.0000      -1.068622       -29.0787
  26   2.0000      -1.024111       -27.8675
  27   2.0000      -0.945822       -25.7371
  28   2.0000      -0.876848       -23.8602
  29   2.0000      -0.862098       -23.4589
  30   2.0000      -0.821877       -22.3644
  31   2.0000      -0.806677       -21.9508
  32   2.0000      -0.779268       -21.2050
  33   2.0000      -0.776672       -21.1343
  34   2.0000      -0.740185       -20.1415
  35   2.0000      -0.702181       -19.1073
  36   2.0000      -0.670881       -18.2556
  37   2.0000      -0.644860       -17.5475
  38   2.0000      -0.636109       -17.3094
  39   2.0000      -0.584711       -15.9108
  40   2.0000      -0.580477       -15.7956
  41   2.0000      -0.576739       -15.6939
  42   2.0000      -0.562429       -15.3045
  43   2.0000      -0.559592       -15.2273
  44   2.0000      -0.556078       -15.1316
  45   2.0000      -0.532724       -14.4962
  46   2.0000      -0.508818       -13.8456
  47   2.0000      -0.497144       -13.5280
  48   2.0000      -0.494930       -13.4677
  49   2.0000      -0.491040       -13.3619
  50   2.0000      -0.488599       -13.2955
  51   2.0000      -0.475805       -12.9473
  52   2.0000      -0.471236       -12.8230
  53   2.0000      -0.469570       -12.7776
  54   2.0000      -0.462928       -12.5969
  55   2.0000      -0.460472       -12.5301
  56   2.0000      -0.450938       -12.2706
  57   2.0000      -0.439922       -11.9709
  58   2.0000      -0.432895       -11.7797
  59   2.0000      -0.427597       -11.6355
  60   2.0000      -0.424840       -11.5605
  61   2.0000      -0.416060       -11.3216
  62   2.0000      -0.413101       -11.2410
  63   2.0000      -0.403945       -10.9919
  64   2.0000      -0.391490       -10.6530
  65   2.0000      -0.386420       -10.5150
  66   2.0000      -0.373414       -10.1611
  67   2.0000      -0.363869        -9.9014
  68   2.0000      -0.342243        -9.3129
  69   2.0000      -0.337474        -9.1831
  70   2.0000      -0.319341        -8.6897
  71   2.0000      -0.288466        -7.8495
  72   2.0000      -0.283421        -7.7123
  73   2.0000      -0.279574        -7.6076
  74   2.0000      -0.278025        -7.5654
  75   2.0000      -0.262573        -7.1450
  76   2.0000      -0.257590        -7.0094
  77   0.0000      -0.020253        -0.5511
  78   0.0000      -0.003304        -0.0899
  79   0.0000       0.016871         0.4591
  80   0.0000       0.026660         0.7255
  81   0.0000       0.045278         1.2321

MULLIKEN ATOMIC CHARGES
-----------------------
   0 Pd:    0.355508
   1 O :   -0.392004
   2 C :    0.636796
   3 O :   -0.577476
   4 C :   -0.747408
   5 H :    0.256237
   6 H :    0.286745
   7 H :    0.275411
   8 N :   -0.484157
   9 C :   -0.546719
  10 H :    0.322771
  11 H :    0.207970
  12 H :    0.275757
  13 C :   -0.513637
  14 H :    0.259430
  15 H :    0.220929
  16 H :    0.284242
  17 C :    0.084446
  18 C :   -0.276177
  19 C :   -0.238694
  20 C :   -0.210256
  21 C :   -0.307943
  22 C :   -0.090061
  23 H :    0.210598
  24 H :    0.214562
  25 H :    0.202875
  26 H :    0.212582
  27 H :    0.485667
  28 C :   -0.319747
  29 H :    0.259025
  30 H :    0.229564
  31 O :   -0.563767
  32 C :    0.538968
  33 O :   -0.480653
  34 C :   -0.745812
  35 H :    0.231577
  36 H :    0.222603
  37 H :    0.220248
Sum of atomic charges:    0.0000000

LOEWDIN ATOMIC CHARGES
----------------------
   0 Pd:   -0.434499
   1 O :   -0.043545
   2 C :    0.228824
   3 O :   -0.259515
   4 C :   -0.373179
   5 H :    0.156597
   6 H :    0.176746
   7 H :    0.158439
   8 N :   -0.028311
   9 C :   -0.238658
  10 H :    0.174670
  11 H :    0.115238
  12 H :    0.155996
  13 C :   -0.226781
  14 H :    0.147722
  15 H :    0.121570
  16 H :    0.159930
  17 C :   -0.060035
  18 C :   -0.136318
  19 C :   -0.143734
  20 C :   -0.135937
  21 C :   -0.127734
  22 C :   -0.031570
  23 H :    0.132655
  24 H :    0.141064
  25 H :    0.132830
  26 H :    0.133400
  27 H :    0.364092
  28 C :   -0.104891
  29 H :    0.147574
  30 H :    0.127638
  31 O :   -0.254174
  32 C :    0.105151
  33 O :   -0.295896
  34 C :   -0.394197
  35 H :    0.136215
  36 H :    0.140179
  37 H :    0.132446

  Mayer bond orders larger than 0.100000
B(  0-Pd,  1-O ) :   0.3520 B(  0-Pd,  8-N ) :   0.4730 B(  0-Pd, 22-C ) :   0.8890
B(  0-Pd, 31-O ) :   0.4746 B(  1-O ,  2-C ) :   1.7581 B(  2-C ,  3-O ) :   1.1591
B(  2-C ,  4-C ) :   0.9601 B(  3-O , 27-H ) :   0.7107 B(  4-C ,  5-H ) :   0.9045
B(  4-C ,  6-H ) :   0.8876 B(  4-C ,  7-H ) :   0.9029 B(  8-N ,  9-C ) :   0.9085
B(  8-N , 13-C ) :   0.9189 B(  8-N , 28-C ) :   0.8862 B(  9-C , 10-H ) :   0.8510
B(  9-C , 11-H ) :   0.9060 B(  9-C , 12-H ) :   0.8961 B( 13-C , 14-H ) :   0.9058
B( 13-C , 15-H ) :   0.9015 B( 13-C , 16-H ) :   0.8952 B( 17-C , 18-C ) :   1.4126
B( 17-C , 22-C ) :   1.3161 B( 17-C , 28-C ) :   0.9745 B( 18-C , 19-C ) :   1.4154
B( 18-C , 25-H ) :   0.9260 B( 19-C , 20-C ) :   1.4407 B( 19-C , 26-H ) :   0.9200
B( 20-C , 21-C ) :   1.4102 B( 20-C , 23-H ) :   0.9204 B( 21-C , 22-C ) :   1.3933
B( 21-C , 24-H ) :   0.9176 B( 28-C , 29-H ) :   0.8945 B( 28-C , 30-H ) :   0.9044
B( 31-O , 32-C ) :   1.3507 B( 31-O , 33-O ) :   0.1053 B( 32-C , 33-O ) :   1.8452
B( 32-C , 34-C ) :   0.9251 B( 34-C , 35-H ) :   0.9229 B( 34-C , 36-H ) :   0.9220
B( 34-C , 37-H ) :   0.9209

Dispersion correction           -0.026359710
FINAL SINGLE POINT ENERGY      -988.540278800384
Dispersion correction            ... done

DIPOLE MOMENT
-------------
                                X             Y             Z
Electronic contribution:      7.89945       7.88750      -1.56942
Nuclear contribution   :     -9.17559      -6.06526       2.22740
                        -----------------------------------------
Total Dipole Moment    :     -1.27614       1.82224       0.65798
                        -----------------------------------------
Magnitude (a.u.)       :      2.31992
Magnitude (Debye)      :      5.89677

Rotational constants in cm-1:     0.014547     0.008899     0.006474
Rotational constants in MHz :   436.116414   266.773616   194.088466

                             ****ORCA TERMINATED NORMALLY****
TOTAL RUN TIME: 0 days 0 hours 7 minutes 53 seconds 413 msec
