                         Program Version 5.0.3 -  RELEASE  -
|  1> ! EnGrad PBEh-3c
|  2> %output
|  3> xyzfile=True
|  4> end
|  5> %scf
|  6> maxiter 250
|  7> end
|  8> %output
|  9> Print[P_Hirshfeld] = 1
| 10> end
| 11> % maxcore
| 12> 4000
| 13> *xyz 0 1
| 14> Pd   0.25564142   0.14809317  -0.02346169
| 15> O    1.73200459   1.46622783   0.74849027
| 16> C    1.69248727   2.64696614   0.50014634
| 17> O    0.58488688   3.30647412   0.10062854
| 18> C    2.90244601   3.51442517   0.67158973
| 19> H    2.56149891   4.45476635   1.10288682
| 20> H    3.33747555   3.77495260  -0.30053685
| 21> H    3.64641733   3.01697706   1.31412956
| 22> N   -1.26954937  -0.97827637  -0.89696480
| 23> C   -0.83796647  -2.36347269  -1.17276564
| 24> H    0.01313057  -2.35717960  -1.84467315
| 25> H   -1.67534258  -2.91465205  -1.61497242
| 26> H   -0.54352241  -2.84606544  -0.24513720
| 27> C   -1.74159040  -0.36187974  -2.14191008
| 28> H   -1.91884197   0.69777840  -1.98709217
| 29> H   -2.67649263  -0.83453572  -2.45418459
| 30> H   -0.99933922  -0.48710484  -2.91731668
| 31> C   -1.86383920  -1.11659528   1.44568692
| 32> C   -2.51884828  -1.80534379   2.44889970
| 33> C   -2.09880787  -1.69114070   3.76001368
| 34> C   -1.05910163  -0.83160876   4.04429087
| 35> C   -0.36597780  -0.17069178   3.02754488
| 36> C   -0.71931071  -0.33779474   1.68440037
| 37> H   -0.76059605  -0.68205471   5.06674309
| 38> H    0.45658013   0.48087430   3.31089605
| 39> H   -3.37276138  -2.41112554   2.20256383
| 40> H   -2.60277051  -2.22309365   4.54810881
| 41> H   -0.12429054   3.36227870   0.75169831
| 42> C   -2.39788902  -1.01974630   0.06427753
| 43> H   -2.94356847  -0.07207529   0.00151383
| 44> H   -3.09396614  -1.82959484  -0.19001987
| 45> O    1.29771011   0.59786394  -1.82692440
| 46> C    2.06971783  -0.25902275  -2.40374877
| 47> O    2.10584889  -1.45626542  -2.16745480
| 48> C    3.03061614   0.30918851  -3.45958021
| 49> H    3.37923131  -0.49083606  -4.11284450
| 50> H    3.90684705   0.73945803  -2.96933331
| 51> H    2.58119389   1.09682089  -4.06190435
| 52> *
| 53>
| 54>                          ****END OF INPUT****

CARTESIAN COORDINATES (ANGSTROEM)
---------------------------------
  Pd     0.255641    0.148093   -0.023462
  O      1.732005    1.466228    0.748490
  C      1.692487    2.646966    0.500146
  O      0.584887    3.306474    0.100629
  C      2.902446    3.514425    0.671590
  H      2.561499    4.454766    1.102887
  H      3.337476    3.774953   -0.300537
  H      3.646417    3.016977    1.314130
  N     -1.269549   -0.978276   -0.896965
  C     -0.837966   -2.363473   -1.172766
  H      0.013131   -2.357180   -1.844673
  H     -1.675343   -2.914652   -1.614972
  H     -0.543522   -2.846065   -0.245137
  C     -1.741590   -0.361880   -2.141910
  H     -1.918842    0.697778   -1.987092
  H     -2.676493   -0.834536   -2.454185
  H     -0.999339   -0.487105   -2.917317
  C     -1.863839   -1.116595    1.445687
  C     -2.518848   -1.805344    2.448900
  C     -2.098808   -1.691141    3.760014
  C     -1.059102   -0.831609    4.044291
  C     -0.365978   -0.170692    3.027545
  C     -0.719311   -0.337795    1.684400
  H     -0.760596   -0.682055    5.066743
  H      0.456580    0.480874    3.310896
  H     -3.372761   -2.411126    2.202564
  H     -2.602771   -2.223094    4.548109
  H     -0.124291    3.362279    0.751698
  C     -2.397889   -1.019746    0.064278
  H     -2.943568   -0.072075    0.001514
  H     -3.093966   -1.829595   -0.190020
  O      1.297710    0.597864   -1.826924
  C      2.069718   -0.259023   -2.403749
  O      2.105849   -1.456265   -2.167455
  C      3.030616    0.309189   -3.459580
  H      3.379231   -0.490836   -4.112844
  H      3.906847    0.739458   -2.969333
  H      2.581194    1.096821   -4.061904

 Total Charge           Charge          ....    0
 Multiplicity           Mult            ....    1
 Number of Electrons    NEL             ....  154
 Basis Dimension        Dim             ....  339

ORBITAL ENERGIES
----------------

  NO   OCC          E(Eh)            E(eV)
   0   2.0000     -19.562033      -532.3100
   1   2.0000     -19.557413      -532.1843
   2   2.0000     -19.434807      -528.8480
   3   2.0000     -19.406014      -528.0645
   4   2.0000     -14.711255      -400.3136
   5   2.0000     -10.633215      -289.3445
   6   2.0000     -10.508943      -285.9629
   7   2.0000     -10.482268      -285.2370
   8   2.0000     -10.474676      -285.0304
   9   2.0000     -10.470118      -284.9064
  10   2.0000     -10.456868      -284.5458
  11   2.0000     -10.442611      -284.1579
  12   2.0000     -10.438151      -284.0365
  13   2.0000     -10.437477      -284.0182
  14   2.0000     -10.435767      -283.9716
  15   2.0000     -10.435239      -283.9573
  16   2.0000     -10.434457      -283.9360
  17   2.0000     -10.399898      -282.9956
  18   2.0000      -3.639445       -99.0343
  19   2.0000      -2.285432       -62.1898
  20   2.0000      -2.282477       -62.1094
  21   2.0000      -2.252158       -61.2843
  22   2.0000      -1.258175       -34.2367
  23   2.0000      -1.176292       -32.0085
  24   2.0000      -1.118262       -30.4295
  25   2.0000      -1.067994       -29.0616
  26   2.0000      -1.022252       -27.8169
  27   2.0000      -0.948381       -25.8068
  28   2.0000      -0.873035       -23.7565
  29   2.0000      -0.863663       -23.5015
  30   2.0000      -0.822666       -22.3859
  31   2.0000      -0.807015       -21.9600
  32   2.0000      -0.778409       -21.1816
  33   2.0000      -0.774194       -21.0669
  34   2.0000      -0.729948       -19.8629
  35   2.0000      -0.701908       -19.0999
  36   2.0000      -0.671332       -18.2679
  37   2.0000      -0.645109       -17.5543
  38   2.0000      -0.635316       -17.2878
  39   2.0000      -0.581613       -15.8265
  40   2.0000      -0.578435       -15.7400
  41   2.0000      -0.575921       -15.6716
  42   2.0000      -0.560741       -15.2586
  43   2.0000      -0.559563       -15.2265
  44   2.0000      -0.555789       -15.1238
  45   2.0000      -0.533670       -14.5219
  46   2.0000      -0.509551       -13.8656
  47   2.0000      -0.505179       -13.7466
  48   2.0000      -0.494321       -13.4511
  49   2.0000      -0.490666       -13.3517
  50   2.0000      -0.487096       -13.2546
  51   2.0000      -0.474841       -12.9211
  52   2.0000      -0.469635       -12.7794
  53   2.0000      -0.466688       -12.6992
  54   2.0000      -0.460164       -12.5217
  55   2.0000      -0.458125       -12.4662
  56   2.0000      -0.450765       -12.2659
  57   2.0000      -0.441214       -12.0060
  58   2.0000      -0.433252       -11.7894
  59   2.0000      -0.425605       -11.5813
  60   2.0000      -0.418173       -11.3791
  61   2.0000      -0.414577       -11.2812
  62   2.0000      -0.413374       -11.2485
  63   2.0000      -0.404247       -11.0001
  64   2.0000      -0.391863       -10.6631
  65   2.0000      -0.385356       -10.4861
  66   2.0000      -0.371934       -10.1209
  67   2.0000      -0.360914        -9.8210
  68   2.0000      -0.342169        -9.3109
  69   2.0000      -0.336873        -9.1668
  70   2.0000      -0.319413        -8.6917
  71   2.0000      -0.286317        -7.7911
  72   2.0000      -0.282594        -7.6898
  73   2.0000      -0.278859        -7.5881
  74   2.0000      -0.276843        -7.5333
  75   2.0000      -0.262612        -7.1460
  76   2.0000      -0.256687        -6.9848
  77   0.0000      -0.024547        -0.6680
  78   0.0000      -0.011808        -0.3213
  79   0.0000       0.018334         0.4989
  80   0.0000       0.028642         0.7794
  81   0.0000       0.048471         1.3190

MULLIKEN ATOMIC CHARGES
-----------------------
   0 Pd:    0.356183
   1 O :   -0.362446
   2 C :    0.639799
   3 O :   -0.603273
   4 C :   -0.735633
   5 H :    0.246852
   6 H :    0.284082
   7 H :    0.270792
   8 N :   -0.480073
   9 C :   -0.542322
  10 H :    0.319559
  11 H :    0.207667
  12 H :    0.276554
  13 C :   -0.511831
  14 H :    0.263909
  15 H :    0.220757
  16 H :    0.282550
  17 C :    0.083544
  18 C :   -0.270939
  19 C :   -0.231927
  20 C :   -0.210624
  21 C :   -0.314051
  22 C :   -0.092244
  23 H :    0.210230
  24 H :    0.208299
  25 H :    0.200543
  26 H :    0.213277
  27 H :    0.481611
  28 C :   -0.324072
  29 H :    0.263254
  30 H :    0.227221
  31 O :   -0.563670
  32 C :    0.536448
  33 O :   -0.478215
  34 C :   -0.743733
  35 H :    0.231437
  36 H :    0.221164
  37 H :    0.219321
Sum of atomic charges:    0.0000000

LOEWDIN ATOMIC CHARGES
----------------------
   0 Pd:   -0.418503
   1 O :   -0.025019
   2 C :    0.228145
   3 O :   -0.291560
   4 C :   -0.369603
   5 H :    0.153771
   6 H :    0.176205
   7 H :    0.163590
   8 N :   -0.027485
   9 C :   -0.236360
  10 H :    0.173684
  11 H :    0.115836
  12 H :    0.156275
  13 C :   -0.227885
  14 H :    0.149529
  15 H :    0.121588
  16 H :    0.158680
  17 C :   -0.062781
  18 C :   -0.136426
  19 C :   -0.143637
  20 C :   -0.136316
  21 C :   -0.129194
  22 C :   -0.030055
  23 H :    0.132158
  24 H :    0.138042
  25 H :    0.131408
  26 H :    0.133776
  27 H :    0.363629
  28 C :   -0.105150
  29 H :    0.150514
  30 H :    0.127596
  31 O :   -0.258138
  32 C :    0.106371
  33 O :   -0.294845
  34 C :   -0.395691
  35 H :    0.137143
  36 H :    0.139079
  37 H :    0.131627

  Mayer bond orders larger than 0.100000
B(  0-Pd,  1-O ) :   0.3405 B(  0-Pd,  8-N ) :   0.4745 B(  0-Pd, 22-C ) :   0.8762
B(  0-Pd, 31-O ) :   0.4723 B(  1-O ,  2-C ) :   1.8052 B(  2-C ,  3-O ) :   1.0960
B(  2-C ,  4-C ) :   0.9582 B(  3-O , 27-H ) :   0.7168 B(  4-C ,  5-H ) :   0.9036
B(  4-C ,  6-H ) :   0.8888 B(  4-C ,  7-H ) :   0.9063 B(  8-N ,  9-C ) :   0.9085
B(  8-N , 13-C ) :   0.9194 B(  8-N , 28-C ) :   0.8900 B(  9-C , 10-H ) :   0.8550
B(  9-C , 11-H ) :   0.9061 B(  9-C , 12-H ) :   0.8962 B( 13-C , 14-H ) :   0.9050
B( 13-C , 15-H ) :   0.9016 B( 13-C , 16-H ) :   0.8962 B( 17-C , 18-C ) :   1.4260
B( 17-C , 22-C ) :   1.3140 B( 17-C , 28-C ) :   0.9708 B( 18-C , 19-C ) :   1.4154
B( 18-C , 25-H ) :   0.9251 B( 19-C , 20-C ) :   1.4470 B( 19-C , 26-H ) :   0.9198
B( 20-C , 21-C ) :   1.4071 B( 20-C , 23-H ) :   0.9205 B( 21-C , 22-C ) :   1.4008
B( 21-C , 24-H ) :   0.9200 B( 28-C , 29-H ) :   0.8948 B( 28-C , 30-H ) :   0.9055
B( 31-O , 32-C ) :   1.3519 B( 31-O , 33-O ) :   0.1050 B( 32-C , 33-O ) :   1.8485
B( 32-C , 34-C ) :   0.9211 B( 34-C , 35-H ) :   0.9234 B( 34-C , 36-H ) :   0.9228
B( 34-C , 37-H ) :   0.9209

Dispersion correction           -0.026309419
FINAL SINGLE POINT ENERGY      -988.528822065305
Dispersion correction            ... done

DIPOLE MOMENT
-------------
                                X             Y             Z
Electronic contribution:      9.23971       8.17265      -0.84585
Nuclear contribution   :    -10.50786      -6.19731       1.68447
                        -----------------------------------------
Total Dipole Moment    :     -1.26815       1.97534       0.83862
                        -----------------------------------------
Magnitude (a.u.)       :      2.49268
Magnitude (Debye)      :      6.33590

Rotational constants in cm-1:     0.014628     0.008756     0.006441
Rotational constants in MHz :   438.544156   262.500584   193.096596

                             ****ORCA TERMINATED NORMALLY****
TOTAL RUN TIME: 0 days 0 hours 7 minutes 58 seconds 267 msec
