                         Program Version 5.0.3 -  RELEASE  -
|  1> ! EnGrad PBEh-3c
|  2> %output
|  3> xyzfile=True
|  4> end
|  5> %scf
|  6> maxiter 250
|  7> end
|  8> %output
|  9> Print[P_Hirshfeld] = 1
| 10> end
| 11> % maxcore
| 12> 4000
| 13> *xyz 0 1
| 14> Pd   0.22610473   0.14462498  -0.03406237
| 15> O    1.61061113   1.45506272   0.80908806
| 16> C    1.68403281   2.64534356   0.58457701
| 17> O    0.67155027   3.42361021   0.21398360
| 18> C    2.89962354   3.50683928   0.68661960
| 19> H    2.65600320   4.46482986   1.14534949
| 20> H    3.32872027   3.68896950  -0.29648960
| 21> H    3.66966393   3.03754778   1.25823753
| 22> N   -1.26640935  -0.98692560  -0.90256128
| 23> C   -0.82035794  -2.37311679  -1.14765121
| 24> H    0.04475255  -2.37609502  -1.80298206
| 25> H   -1.63435106  -2.94775843  -1.60422248
| 26> H   -0.54271708  -2.84604770  -0.20750053
| 27> C   -1.72419484  -0.38179656  -2.16648594
| 28> H   -1.92727658   0.68140462  -2.02138924
| 29> H   -2.64601102  -0.87760982  -2.50043723
| 30> H   -0.96607030  -0.49235242  -2.93827762
| 31> C   -1.88683632  -1.07290920   1.43838776
| 32> C   -2.55227538  -1.75809349   2.44572589
| 33> C   -2.10653936  -1.62110796   3.75809005
| 34> C   -1.01696332  -0.80408427   4.03328924
| 35> C   -0.31817572  -0.18642860   2.99449200
| 36> C   -0.71923731  -0.32943105   1.66631581
| 37> H   -0.70816017  -0.65976605   5.06620349
| 38> H    0.54704927   0.39880125   3.26517804
| 39> H   -3.40924140  -2.39513860   2.21049342
| 40> H   -2.60396656  -2.17107221   4.55459688
| 41> H   -0.15478587   3.16408416   0.58703845
| 42> C   -2.39766256  -1.01243663   0.04670210
| 43> H   -2.95984311  -0.08816340  -0.08270228
| 44> H   -3.08729590  -1.82021161  -0.21094114
| 45> O    1.28465373   0.62390304  -1.79919633
| 46> C    2.03494822  -0.24252387  -2.38468811
| 47> O    2.06192043  -1.43745660  -2.14090698
| 48> C    2.97772943   0.33738948  -3.43520485
| 49> H    3.33487278  -0.44052582  -4.10054122
| 50> H    3.85658003   0.76261736  -2.94942656
| 51> H    2.52296364   1.12805837  -4.02677374
| 52> *
| 53>
| 54>                          ****END OF INPUT****

CARTESIAN COORDINATES (ANGSTROEM)
---------------------------------
  Pd     0.226105    0.144625   -0.034062
  O      1.610611    1.455063    0.809088
  C      1.684033    2.645344    0.584577
  O      0.671550    3.423610    0.213984
  C      2.899624    3.506839    0.686620
  H      2.656003    4.464830    1.145349
  H      3.328720    3.688969   -0.296490
  H      3.669664    3.037548    1.258238
  N     -1.266409   -0.986926   -0.902561
  C     -0.820358   -2.373117   -1.147651
  H      0.044753   -2.376095   -1.802982
  H     -1.634351   -2.947758   -1.604222
  H     -0.542717   -2.846048   -0.207501
  C     -1.724195   -0.381797   -2.166486
  H     -1.927277    0.681405   -2.021389
  H     -2.646011   -0.877610   -2.500437
  H     -0.966070   -0.492352   -2.938278
  C     -1.886836   -1.072909    1.438388
  C     -2.552275   -1.758093    2.445726
  C     -2.106539   -1.621108    3.758090
  C     -1.016963   -0.804084    4.033289
  C     -0.318176   -0.186429    2.994492
  C     -0.719237   -0.329431    1.666316
  H     -0.708160   -0.659766    5.066203
  H      0.547049    0.398801    3.265178
  H     -3.409241   -2.395139    2.210493
  H     -2.603967   -2.171072    4.554597
  H     -0.154786    3.164084    0.587038
  C     -2.397663   -1.012437    0.046702
  H     -2.959843   -0.088163   -0.082702
  H     -3.087296   -1.820212   -0.210941
  O      1.284654    0.623903   -1.799196
  C      2.034948   -0.242524   -2.384688
  O      2.061920   -1.437457   -2.140907
  C      2.977729    0.337389   -3.435205
  H      3.334873   -0.440526   -4.100541
  H      3.856580    0.762617   -2.949427
  H      2.522964    1.128058   -4.026774

 Total Charge           Charge          ....    0
 Multiplicity           Mult            ....    1
 Number of Electrons    NEL             ....  154
 Basis Dimension        Dim             ....  339

ORBITAL ENERGIES
----------------

  NO   OCC          E(Eh)            E(eV)
   0   2.0000     -19.570449      -532.5390
   1   2.0000     -19.554006      -532.0916
   2   2.0000     -19.436682      -528.8990
   3   2.0000     -19.408970      -528.1449
   4   2.0000     -14.713069      -400.3630
   5   2.0000     -10.632497      -289.3249
   6   2.0000     -10.510667      -286.0098
   7   2.0000     -10.481780      -285.2237
   8   2.0000     -10.475247      -285.0460
   9   2.0000     -10.467336      -284.8307
  10   2.0000     -10.457519      -284.5636
  11   2.0000     -10.444734      -284.2157
  12   2.0000     -10.442381      -284.1516
  13   2.0000     -10.438833      -284.0551
  14   2.0000     -10.438192      -284.0376
  15   2.0000     -10.437753      -284.0257
  16   2.0000     -10.434948      -283.9494
  17   2.0000     -10.400239      -283.0049
  18   2.0000      -3.642149       -99.1079
  19   2.0000      -2.288246       -62.2663
  20   2.0000      -2.285129       -62.1815
  21   2.0000      -2.255265       -61.3689
  22   2.0000      -1.266962       -34.4758
  23   2.0000      -1.181109       -32.1396
  24   2.0000      -1.122736       -30.5512
  25   2.0000      -1.069621       -29.1059
  26   2.0000      -1.026061       -27.9205
  27   2.0000      -0.946800       -25.7637
  28   2.0000      -0.879965       -23.9451
  29   2.0000      -0.863247       -23.4901
  30   2.0000      -0.822025       -22.3684
  31   2.0000      -0.808084       -21.9891
  32   2.0000      -0.780483       -21.2380
  33   2.0000      -0.777856       -21.1665
  34   2.0000      -0.735186       -20.0054
  35   2.0000      -0.703586       -19.1455
  36   2.0000      -0.671562       -18.2741
  37   2.0000      -0.645628       -17.5684
  38   2.0000      -0.638967       -17.3872
  39   2.0000      -0.585836       -15.9414
  40   2.0000      -0.581191       -15.8150
  41   2.0000      -0.577914       -15.7258
  42   2.0000      -0.563522       -15.3342
  43   2.0000      -0.560729       -15.2582
  44   2.0000      -0.557250       -15.1636
  45   2.0000      -0.534042       -14.5320
  46   2.0000      -0.509921       -13.8757
  47   2.0000      -0.502203       -13.6656
  48   2.0000      -0.495379       -13.4799
  49   2.0000      -0.490763       -13.3543
  50   2.0000      -0.490134       -13.3372
  51   2.0000      -0.477293       -12.9878
  52   2.0000      -0.473032       -12.8719
  53   2.0000      -0.471204       -12.8221
  54   2.0000      -0.465239       -12.6598
  55   2.0000      -0.461781       -12.5657
  56   2.0000      -0.451385       -12.2828
  57   2.0000      -0.441219       -12.0062
  58   2.0000      -0.434324       -11.8186
  59   2.0000      -0.429422       -11.6852
  60   2.0000      -0.425772       -11.5858
  61   2.0000      -0.417142       -11.3510
  62   2.0000      -0.414060       -11.2671
  63   2.0000      -0.404644       -11.0109
  64   2.0000      -0.393344       -10.7034
  65   2.0000      -0.387551       -10.5458
  66   2.0000      -0.376370       -10.2415
  67   2.0000      -0.364737        -9.9250
  68   2.0000      -0.343106        -9.3364
  69   2.0000      -0.338516        -9.2115
  70   2.0000      -0.319529        -8.6948
  71   2.0000      -0.289607        -7.8806
  72   2.0000      -0.284291        -7.7359
  73   2.0000      -0.280243        -7.6258
  74   2.0000      -0.279404        -7.6030
  75   2.0000      -0.263960        -7.1827
  76   2.0000      -0.258779        -7.0417
  77   0.0000      -0.020257        -0.5512
  78   0.0000       0.000190         0.0052
  79   0.0000       0.017278         0.4701
  80   0.0000       0.026396         0.7183
  81   0.0000       0.047301         1.2871

MULLIKEN ATOMIC CHARGES
-----------------------
   0 Pd:    0.357372
   1 O :   -0.393472
   2 C :    0.632071
   3 O :   -0.571536
   4 C :   -0.751022
   5 H :    0.261129
   6 H :    0.286829
   7 H :    0.272582
   8 N :   -0.486998
   9 C :   -0.546704
  10 H :    0.322771
  11 H :    0.208839
  12 H :    0.276623
  13 C :   -0.513596
  14 H :    0.260322
  15 H :    0.221907
  16 H :    0.284359
  17 C :    0.083009
  18 C :   -0.273214
  19 C :   -0.239932
  20 C :   -0.207897
  21 C :   -0.310743
  22 C :   -0.088726
  23 H :    0.211289
  24 H :    0.214440
  25 H :    0.202938
  26 H :    0.212409
  27 H :    0.479883
  28 C :   -0.320292
  29 H :    0.260387
  30 H :    0.229872
  31 O :   -0.564849
  32 C :    0.537721
  33 O :   -0.477515
  34 C :   -0.746532
  35 H :    0.231901
  36 H :    0.223177
  37 H :    0.221198
Sum of atomic charges:   -0.0000000

LOEWDIN ATOMIC CHARGES
----------------------
   0 Pd:   -0.436097
   1 O :   -0.041814
   2 C :    0.227166
   3 O :   -0.258088
   4 C :   -0.373400
   5 H :    0.159448
   6 H :    0.177460
   7 H :    0.157220
   8 N :   -0.027254
   9 C :   -0.237963
  10 H :    0.174567
  11 H :    0.115674
  12 H :    0.156691
  13 C :   -0.226099
  14 H :    0.148606
  15 H :    0.122024
  16 H :    0.159693
  17 C :   -0.059942
  18 C :   -0.136743
  19 C :   -0.142554
  20 C :   -0.136310
  21 C :   -0.126367
  22 C :   -0.032504
  23 H :    0.133518
  24 H :    0.140918
  25 H :    0.133001
  26 H :    0.132914
  27 H :    0.353094
  28 C :   -0.105400
  29 H :    0.148101
  30 H :    0.127734
  31 O :   -0.254845
  32 C :    0.104484
  33 O :   -0.292113
  34 C :   -0.394528
  35 H :    0.136241
  36 H :    0.140455
  37 H :    0.133013

  Mayer bond orders larger than 0.100000
B(  0-Pd,  1-O ) :   0.3433 B(  0-Pd,  8-N ) :   0.4764 B(  0-Pd, 22-C ) :   0.8861
B(  0-Pd, 31-O ) :   0.4766 B(  1-O ,  2-C ) :   1.7653 B(  2-C ,  3-O ) :   1.1698
B(  2-C ,  4-C ) :   0.9578 B(  3-O , 27-H ) :   0.7182 B(  4-C ,  5-H ) :   0.9045
B(  4-C ,  6-H ) :   0.8873 B(  4-C ,  7-H ) :   0.9039 B(  8-N ,  9-C ) :   0.9073
B(  8-N , 13-C ) :   0.9180 B(  8-N , 28-C ) :   0.8859 B(  9-C , 10-H ) :   0.8507
B(  9-C , 11-H ) :   0.9060 B(  9-C , 12-H ) :   0.8956 B( 13-C , 14-H ) :   0.9055
B( 13-C , 15-H ) :   0.9013 B( 13-C , 16-H ) :   0.8950 B( 17-C , 18-C ) :   1.4134
B( 17-C , 22-C ) :   1.3179 B( 17-C , 28-C ) :   0.9751 B( 18-C , 19-C ) :   1.4172
B( 18-C , 25-H ) :   0.9259 B( 19-C , 20-C ) :   1.4405 B( 19-C , 26-H ) :   0.9200
B( 20-C , 21-C ) :   1.4084 B( 20-C , 23-H ) :   0.9204 B( 21-C , 22-C ) :   1.3951
B( 21-C , 24-H ) :   0.9174 B( 28-C , 29-H ) :   0.8942 B( 28-C , 30-H ) :   0.9044
B( 31-O , 32-C ) :   1.3472 B( 31-O , 33-O ) :   0.1049 B( 32-C , 33-O ) :   1.8492
B( 32-C , 34-C ) :   0.9250 B( 34-C , 35-H ) :   0.9225 B( 34-C , 36-H ) :   0.9220
B( 34-C , 37-H ) :   0.9210

Dispersion correction           -0.026400890
FINAL SINGLE POINT ENERGY      -988.542822220125
Dispersion correction            ... done

DIPOLE MOMENT
-------------
                                X             Y             Z
Electronic contribution:      7.83567       7.37125      -1.93048
Nuclear contribution   :     -9.06352      -5.67390       2.53106
                        -----------------------------------------
Total Dipole Moment    :     -1.22785       1.69735       0.60058
                        -----------------------------------------
Magnitude (a.u.)       :      2.17929
Magnitude (Debye)      :      5.53932

Rotational constants in cm-1:     0.014512     0.008915     0.006475
Rotational constants in MHz :   435.048348   267.261860   194.121432

                             ****ORCA TERMINATED NORMALLY****
TOTAL RUN TIME: 0 days 0 hours 7 minutes 2 seconds 979 msec
