                         Program Version 5.0.3 -  RELEASE  -
|  1> ! EnGrad PBEh-3c
|  2> %output
|  3> xyzfile=True
|  4> end
|  5> %scf
|  6> maxiter 250
|  7> end
|  8> %output
|  9> Print[P_Hirshfeld] = 1
| 10> end
| 11> % maxcore
| 12> 4000
| 13> *xyz 0 1
| 14> Pd   0.29864281   0.12540973  -0.05075318
| 15> O    1.88403871   1.26931781   0.72723535
| 16> C    1.84661048   2.47796477   0.55065319
| 17> O    0.65328242   3.05155422  -0.02186941
| 18> C    3.03206686   3.35420561   0.78880047
| 19> H    2.73993730   4.30782748   1.21124343
| 20> H    3.50157650   3.57582828  -0.17709576
| 21> H    3.76081841   2.86880843   1.41033970
| 22> N   -1.23194522  -1.05562099  -0.89488533
| 23> C   -0.76789686  -2.45154444  -1.05601216
| 24> H    0.08371249  -2.48527806  -1.71573383
| 25> H   -1.56504048  -3.05524239  -1.49727737
| 26> H   -0.48563776  -2.86035810  -0.09493006
| 27> C   -1.69383375  -0.56975805  -2.20713103
| 28> H   -1.90067276   0.49456086  -2.15788622
| 29> H   -2.59698085  -1.10068013  -2.50668065
| 30> H   -0.94040298  -0.75671583  -2.96001006
| 31> C   -1.93238639  -1.01032465   1.49709173
| 32> C   -2.66144498  -1.65500627   2.49890258
| 33> C   -2.26519465  -1.54392311   3.82734561
| 34> C   -1.13520057  -0.82082565   4.14519976
| 35> C   -0.40488812  -0.20662989   3.13883622
| 36> C   -0.75206566  -0.26757690   1.74094947
| 37> H   -0.81092276  -0.73639529   5.18154805
| 38> H    0.48577930   0.28085474   3.46818170
| 39> H   -3.54449973  -2.22027715   2.27043559
| 40> H   -2.82310750  -2.02795644   4.60672112
| 41> H   -0.25841833   3.99809236   0.38031870
| 42> C   -2.38494966  -1.01929520   0.07435505
| 43> H   -2.94014665  -0.10755564  -0.12627457
| 44> H   -3.05825337  -1.85333182  -0.12925735
| 45> O    1.27292159   0.74857625  -1.89010795
| 46> C    2.00819687  -0.08710043  -2.54109175
| 47> O    2.05425766  -1.29308211  -2.35184436
| 48> C    2.94245686   0.54273548  -3.59723988
| 49> H    3.29830197  -0.21545386  -4.28857471
| 50> H    3.81012319   0.95934935  -3.08904360
| 51> H    2.48131894   1.34466351  -4.16452849
| 52> *
| 53>
| 54>                          ****END OF INPUT****

CARTESIAN COORDINATES (ANGSTROEM)
---------------------------------
  Pd     0.298643    0.125410   -0.050753
  O      1.884039    1.269318    0.727235
  C      1.846610    2.477965    0.550653
  O      0.653282    3.051554   -0.021869
  C      3.032067    3.354206    0.788800
  H      2.739937    4.307827    1.211243
  H      3.501576    3.575828   -0.177096
  H      3.760818    2.868808    1.410340
  N     -1.231945   -1.055621   -0.894885
  C     -0.767897   -2.451544   -1.056012
  H      0.083712   -2.485278   -1.715734
  H     -1.565040   -3.055242   -1.497277
  H     -0.485638   -2.860358   -0.094930
  C     -1.693834   -0.569758   -2.207131
  H     -1.900673    0.494561   -2.157886
  H     -2.596981   -1.100680   -2.506681
  H     -0.940403   -0.756716   -2.960010
  C     -1.932386   -1.010325    1.497092
  C     -2.661445   -1.655006    2.498903
  C     -2.265195   -1.543923    3.827346
  C     -1.135201   -0.820826    4.145200
  C     -0.404888   -0.206630    3.138836
  C     -0.752066   -0.267577    1.740949
  H     -0.810923   -0.736395    5.181548
  H      0.485779    0.280855    3.468182
  H     -3.544500   -2.220277    2.270436
  H     -2.823107   -2.027956    4.606721
  H     -0.258418    3.998092    0.380319
  C     -2.384950   -1.019295    0.074355
  H     -2.940147   -0.107556   -0.126275
  H     -3.058253   -1.853332   -0.129257
  O      1.272922    0.748576   -1.890108
  C      2.008197   -0.087100   -2.541092
  O      2.054258   -1.293082   -2.351844
  C      2.942457    0.542735   -3.597240
  H      3.298302   -0.215454   -4.288575
  H      3.810123    0.959349   -3.089044
  H      2.481319    1.344664   -4.164528

 Total Charge           Charge          ....    0
 Multiplicity           Mult            ....    1
 Number of Electrons    NEL             ....  154
 Basis Dimension        Dim             ....  339

ORBITAL ENERGIES
----------------

  NO   OCC          E(Eh)            E(eV)
   0   2.0000     -19.561311      -532.2903
   1   2.0000     -19.561227      -532.2881
   2   2.0000     -19.431784      -528.7657
   3   2.0000     -19.404098      -528.0123
   4   2.0000     -14.707169      -400.2024
   5   2.0000     -10.636868      -289.4439
   6   2.0000     -10.505929      -285.8809
   7   2.0000     -10.478495      -285.1344
   8   2.0000     -10.476880      -285.0904
   9   2.0000     -10.465580      -284.7829
  10   2.0000     -10.452910      -284.4382
  11   2.0000     -10.441995      -284.1411
  12   2.0000     -10.439730      -284.0795
  13   2.0000     -10.435431      -283.9625
  14   2.0000     -10.431183      -283.8469
  15   2.0000     -10.430553      -283.8298
  16   2.0000     -10.430253      -283.8216
  17   2.0000     -10.397675      -282.9351
  18   2.0000      -3.633081       -98.8612
  19   2.0000      -2.279764       -62.0355
  20   2.0000      -2.275426       -61.9175
  21   2.0000      -2.244548       -61.0773
  22   2.0000      -1.227700       -33.4074
  23   2.0000      -1.114276       -30.3210
  24   2.0000      -1.099100       -29.9080
  25   2.0000      -1.054828       -28.7033
  26   2.0000      -1.018063       -27.7029
  27   2.0000      -0.937345       -25.5065
  28   2.0000      -0.873105       -23.7584
  29   2.0000      -0.857221       -23.3262
  30   2.0000      -0.811132       -22.0720
  31   2.0000      -0.800737       -21.7892
  32   2.0000      -0.773190       -21.0396
  33   2.0000      -0.771220       -20.9860
  34   2.0000      -0.697982       -18.9931
  35   2.0000      -0.672341       -18.2953
  36   2.0000      -0.665977       -18.1221
  37   2.0000      -0.634651       -17.2697
  38   2.0000      -0.608988       -16.5714
  39   2.0000      -0.572517       -15.5790
  40   2.0000      -0.568858       -15.4794
  41   2.0000      -0.559930       -15.2365
  42   2.0000      -0.553157       -15.0522
  43   2.0000      -0.551673       -15.0118
  44   2.0000      -0.545344       -14.8396
  45   2.0000      -0.527822       -14.3628
  46   2.0000      -0.504902       -13.7391
  47   2.0000      -0.502066       -13.6619
  48   2.0000      -0.489549       -13.3213
  49   2.0000      -0.482252       -13.1228
  50   2.0000      -0.472104       -12.8466
  51   2.0000      -0.467538       -12.7224
  52   2.0000      -0.464652       -12.6438
  53   2.0000      -0.460651       -12.5350
  54   2.0000      -0.453198       -12.3322
  55   2.0000      -0.444282       -12.0895
  56   2.0000      -0.436486       -11.8774
  57   2.0000      -0.433882       -11.8065
  58   2.0000      -0.428330       -11.6555
  59   2.0000      -0.420265       -11.4360
  60   2.0000      -0.411102       -11.1866
  61   2.0000      -0.406012       -11.0481
  62   2.0000      -0.395799       -10.7702
  63   2.0000      -0.392963       -10.6931
  64   2.0000      -0.386527       -10.5179
  65   2.0000      -0.375847       -10.2273
  66   2.0000      -0.360486        -9.8093
  67   2.0000      -0.352568        -9.5939
  68   2.0000      -0.335387        -9.1263
  69   2.0000      -0.323605        -8.8057
  70   2.0000      -0.315217        -8.5775
  71   2.0000      -0.280158        -7.6235
  72   2.0000      -0.278636        -7.5821
  73   2.0000      -0.273993        -7.4557
  74   2.0000      -0.271870        -7.3980
  75   2.0000      -0.257161        -6.9977
  76   2.0000      -0.254392        -6.9224
  77   0.0000      -0.079822        -2.1721
  78   0.0000      -0.021717        -0.5910
  79   0.0000      -0.000576        -0.0157
  80   0.0000       0.027273         0.7421
  81   0.0000       0.031933         0.8689

MULLIKEN ATOMIC CHARGES
-----------------------
   0 Pd:    0.373093
   1 O :   -0.362632
   2 C :    0.676016
   3 O :   -0.573715
   4 C :   -0.745060
   5 H :    0.249790
   6 H :    0.286377
   7 H :    0.279058
   8 N :   -0.480023
   9 C :   -0.547919
  10 H :    0.319833
  11 H :    0.209359
  12 H :    0.276121
  13 C :   -0.513377
  14 H :    0.263339
  15 H :    0.219368
  16 H :    0.281979
  17 C :    0.053493
  18 C :   -0.255698
  19 C :   -0.240976
  20 C :   -0.192612
  21 C :   -0.324150
  22 C :   -0.089213
  23 H :    0.209234
  24 H :    0.208243
  25 H :    0.201058
  26 H :    0.211058
  27 H :    0.412309
  28 C :   -0.315029
  29 H :    0.259687
  30 H :    0.225072
  31 O :   -0.552494
  32 C :    0.533478
  33 O :   -0.480853
  34 C :   -0.743371
  35 H :    0.230109
  36 H :    0.218875
  37 H :    0.220174
Sum of atomic charges:    0.0000000

LOEWDIN ATOMIC CHARGES
----------------------
   0 Pd:   -0.405626
   1 O :   -0.018919
   2 C :    0.273512
   3 O :   -0.327229
   4 C :   -0.371330
   5 H :    0.153778
   6 H :    0.179364
   7 H :    0.163998
   8 N :   -0.032819
   9 C :   -0.238372
  10 H :    0.171743
  11 H :    0.115987
  12 H :    0.155378
  13 C :   -0.229534
  14 H :    0.149086
  15 H :    0.120134
  16 H :    0.158195
  17 C :   -0.063335
  18 C :   -0.141997
  19 C :   -0.142958
  20 C :   -0.144476
  21 C :   -0.128690
  22 C :   -0.032197
  23 H :    0.132446
  24 H :    0.134065
  25 H :    0.131610
  26 H :    0.131076
  27 H :    0.375378
  28 C :   -0.103826
  29 H :    0.148299
  30 H :    0.126918
  31 O :   -0.256181
  32 C :    0.105360
  33 O :   -0.296653
  34 C :   -0.397193
  35 H :    0.135404
  36 H :    0.138079
  37 H :    0.131525

  Mayer bond orders larger than 0.100000
B(  0-Pd,  1-O ) :   0.3470 B(  0-Pd,  8-N ) :   0.4738 B(  0-Pd, 22-C ) :   0.8300
B(  0-Pd, 31-O ) :   0.4731 B(  1-O ,  2-C ) :   1.7643 B(  2-C ,  3-O ) :   1.0491
B(  2-C ,  4-C ) :   0.9626 B(  3-O , 27-H ) :   0.7368 B(  4-C ,  5-H ) :   0.9056
B(  4-C ,  6-H ) :   0.8854 B(  4-C ,  7-H ) :   0.8959 B(  8-N ,  9-C ) :   0.9121
B(  8-N , 13-C ) :   0.9215 B(  8-N , 28-C ) :   0.8831 B(  9-C , 10-H ) :   0.8575
B(  9-C , 11-H ) :   0.9066 B(  9-C , 12-H ) :   0.8971 B( 13-C , 14-H ) :   0.9068
B( 13-C , 15-H ) :   0.9020 B( 13-C , 16-H ) :   0.8963 B( 17-C , 18-C ) :   1.3933
B( 17-C , 22-C ) :   1.3347 B( 17-C , 28-C ) :   0.9793 B( 18-C , 19-C ) :   1.4416
B( 18-C , 25-H ) :   0.9253 B( 19-C , 20-C ) :   1.4260 B( 19-C , 26-H ) :   0.9188
B( 20-C , 21-C ) :   1.4327 B( 20-C , 23-H ) :   0.9201 B( 21-C , 22-C ) :   1.3753
B( 21-C , 24-H ) :   0.9201 B( 28-C , 29-H ) :   0.8949 B( 28-C , 30-H ) :   0.9065
B( 31-O , 32-C ) :   1.3612 B( 31-O , 33-O ) :   0.1066 B( 32-C , 33-O ) :   1.8461
B( 32-C , 34-C ) :   0.9196 B( 34-C , 35-H ) :   0.9232 B( 34-C , 36-H ) :   0.9238
B( 34-C , 37-H ) :   0.9209

Dispersion correction           -0.026370297
FINAL SINGLE POINT ENERGY      -988.423632282451
Dispersion correction            ... done

DIPOLE MOMENT
-------------
                                X             Y             Z
Electronic contribution:     11.67616       7.57487      -2.11708
Nuclear contribution   :    -12.71311      -5.16012       2.91640
                        -----------------------------------------
Total Dipole Moment    :     -1.03694       2.41475       0.79932
                        -----------------------------------------
Magnitude (a.u.)       :      2.74685
Magnitude (Debye)      :      6.98194

Rotational constants in cm-1:     0.015121     0.008511     0.006254
Rotational constants in MHz :   453.325681   255.146425   187.483875

                             ****ORCA TERMINATED NORMALLY****
TOTAL RUN TIME: 0 days 0 hours 11 minutes 46 seconds 660 msec
