                         Program Version 5.0.3 -  RELEASE  -
|  1> ! EnGrad PBEh-3c
|  2> %output
|  3> xyzfile=True
|  4> end
|  5> %scf
|  6> maxiter 250
|  7> end
|  8> %output
|  9> Print[P_Hirshfeld] = 1
| 10> end
| 11> % maxcore
| 12> 4000
| 13> *xyz 0 1
| 14> Pd   0.26299776   0.16041802   0.05529960
| 15> O    1.84652159   1.36473709   0.66932157
| 16> C    1.78390343   2.56116585   0.50439434
| 17> O    0.43234605   3.18752866   0.00389448
| 18> C    3.00644826   3.41342573   0.76307511
| 19> H    2.68608170   4.34833217   1.19350850
| 20> H    3.45374472   3.62528023  -0.20639087
| 21> H    3.75210638   2.92639525   1.39479743
| 22> N   -1.25887571  -1.03280660  -0.89650922
| 23> C   -0.80163409  -2.42648756  -1.13128423
| 24> H    0.03680448  -2.42008548  -1.81684649
| 25> H   -1.63522290  -2.98531326  -1.56455182
| 26> H   -0.51139667  -2.86222138  -0.18172692
| 27> C   -1.72821895  -0.48015711  -2.19108104
| 28> H   -1.91240070   0.58529807  -2.09422231
| 29> H   -2.65491117  -0.98714885  -2.46706846
| 30> H   -0.97667547  -0.63830110  -2.95652050
| 31> C   -1.88276232  -1.01425501   1.50862540
| 32> C   -2.58944273  -1.73848085   2.49355600
| 33> C   -2.21445988  -1.63239302   3.82365049
| 34> C   -1.12470370  -0.84308056   4.13619787
| 35> C   -0.42980031  -0.15301625   3.12620425
| 36> C   -0.68179222  -0.26599282   1.70168692
| 37> H   -0.80694064  -0.75317599   5.18287387
| 38> H    0.38903686   0.45161580   3.47615209
| 39> H   -3.45556754  -2.34821905   2.25186603
| 40> H   -2.74488521  -2.15726111   4.59713215
| 41> H   -0.10983466   3.69641267   0.46027099
| 42> C   -2.39464398  -1.02129613   0.10261193
| 43> H   -2.94737585  -0.10203081  -0.08292912
| 44> H   -3.05229215  -1.85711465  -0.13861904
| 45> O    1.30063693   0.71637530  -1.89944150
| 46> C    2.04339585  -0.15904902  -2.50166447
| 47> O    2.09635257  -1.36600117  -2.29577796
| 48> C    3.01034810   0.44453563  -3.57087479
| 49> H    3.36874524  -0.34087265  -4.23310542
| 50> H    3.87716631   0.85956797  -3.05451179
| 51> H    2.56651274   1.24453594  -4.16228993
| 52> *
| 53>
| 54>                          ****END OF INPUT****

CARTESIAN COORDINATES (ANGSTROEM)
---------------------------------
  Pd     0.262998    0.160418    0.055300
  O      1.846522    1.364737    0.669322
  C      1.783903    2.561166    0.504394
  O      0.432346    3.187529    0.003894
  C      3.006448    3.413426    0.763075
  H      2.686082    4.348332    1.193509
  H      3.453745    3.625280   -0.206391
  H      3.752106    2.926395    1.394797
  N     -1.258876   -1.032807   -0.896509
  C     -0.801634   -2.426488   -1.131284
  H      0.036804   -2.420085   -1.816846
  H     -1.635223   -2.985313   -1.564552
  H     -0.511397   -2.862221   -0.181727
  C     -1.728219   -0.480157   -2.191081
  H     -1.912401    0.585298   -2.094222
  H     -2.654911   -0.987149   -2.467068
  H     -0.976675   -0.638301   -2.956520
  C     -1.882762   -1.014255    1.508625
  C     -2.589443   -1.738481    2.493556
  C     -2.214460   -1.632393    3.823650
  C     -1.124704   -0.843081    4.136198
  C     -0.429800   -0.153016    3.126204
  C     -0.681792   -0.265993    1.701687
  H     -0.806941   -0.753176    5.182874
  H      0.389037    0.451616    3.476152
  H     -3.455568   -2.348219    2.251866
  H     -2.744885   -2.157261    4.597132
  H     -0.109835    3.696413    0.460271
  C     -2.394644   -1.021296    0.102612
  H     -2.947376   -0.102031   -0.082929
  H     -3.052292   -1.857115   -0.138619
  O      1.300637    0.716375   -1.899442
  C      2.043396   -0.159049   -2.501664
  O      2.096353   -1.366001   -2.295778
  C      3.010348    0.444536   -3.570875
  H      3.368745   -0.340873   -4.233105
  H      3.877166    0.859568   -3.054512
  H      2.566513    1.244536   -4.162290

 Total Charge           Charge          ....    0
 Multiplicity           Mult            ....    1
 Number of Electrons    NEL             ....  154
 Basis Dimension        Dim             ....  339

ORBITAL ENERGIES
----------------

  NO   OCC          E(Eh)            E(eV)
   0   2.0000     -19.585258      -532.9420
   1   2.0000     -19.531845      -531.4885
   2   2.0000     -19.428495      -528.6762
   3   2.0000     -19.404427      -528.0213
   4   2.0000     -14.707359      -400.2076
   5   2.0000     -10.660027      -290.0741
   6   2.0000     -10.506445      -285.8949
   7   2.0000     -10.494022      -285.5568
   8   2.0000     -10.479690      -285.1669
   9   2.0000     -10.467980      -284.8482
  10   2.0000     -10.455781      -284.5163
  11   2.0000     -10.451667      -284.4043
  12   2.0000     -10.450633      -284.3762
  13   2.0000     -10.442434      -284.1531
  14   2.0000     -10.441715      -284.1335
  15   2.0000     -10.439457      -284.0721
  16   2.0000     -10.435591      -283.9669
  17   2.0000     -10.395965      -282.8886
  18   2.0000      -3.646157       -99.2170
  19   2.0000      -2.293588       -62.4117
  20   2.0000      -2.289231       -62.2931
  21   2.0000      -2.257847       -61.4391
  22   2.0000      -1.249167       -33.9915
  23   2.0000      -1.144716       -31.1493
  24   2.0000      -1.106585       -30.1117
  25   2.0000      -1.051935       -28.6246
  26   2.0000      -1.014448       -27.6045
  27   2.0000      -0.940222       -25.5847
  28   2.0000      -0.886271       -24.1166
  29   2.0000      -0.858548       -23.3623
  30   2.0000      -0.818169       -22.2635
  31   2.0000      -0.800227       -21.7753
  32   2.0000      -0.773763       -21.0552
  33   2.0000      -0.764743       -20.8097
  34   2.0000      -0.714590       -19.4450
  35   2.0000      -0.697033       -18.9672
  36   2.0000      -0.670511       -18.2455
  37   2.0000      -0.645219       -17.5573
  38   2.0000      -0.639371       -17.3982
  39   2.0000      -0.578217       -15.7341
  40   2.0000      -0.574786       -15.6407
  41   2.0000      -0.567555       -15.4439
  42   2.0000      -0.553719       -15.0674
  43   2.0000      -0.550651       -14.9840
  44   2.0000      -0.544359       -14.8128
  45   2.0000      -0.528539       -14.3823
  46   2.0000      -0.521760       -14.1978
  47   2.0000      -0.505982       -13.7685
  48   2.0000      -0.495090       -13.4721
  49   2.0000      -0.490414       -13.3448
  50   2.0000      -0.474308       -12.9066
  51   2.0000      -0.470176       -12.7941
  52   2.0000      -0.464444       -12.6382
  53   2.0000      -0.459931       -12.5154
  54   2.0000      -0.456157       -12.4127
  55   2.0000      -0.452604       -12.3160
  56   2.0000      -0.449159       -12.2222
  57   2.0000      -0.440275       -11.9805
  58   2.0000      -0.430825       -11.7234
  59   2.0000      -0.425951       -11.5907
  60   2.0000      -0.417109       -11.3501
  61   2.0000      -0.408273       -11.1097
  62   2.0000      -0.402933       -10.9644
  63   2.0000      -0.400286       -10.8923
  64   2.0000      -0.386861       -10.5270
  65   2.0000      -0.382027       -10.3955
  66   2.0000      -0.374360       -10.1868
  67   2.0000      -0.361029        -9.8241
  68   2.0000      -0.347325        -9.4512
  69   2.0000      -0.339658        -9.2426
  70   2.0000      -0.326846        -8.8939
  71   2.0000      -0.285773        -7.7763
  72   2.0000      -0.280369        -7.6292
  73   2.0000      -0.275772        -7.5041
  74   2.0000      -0.274149        -7.4600
  75   2.0000      -0.259404        -7.0587
  76   2.0000      -0.255017        -6.9394
  77   0.0000      -0.036113        -0.9827
  78   0.0000      -0.031028        -0.8443
  79   0.0000       0.015754         0.4287
  80   0.0000       0.024795         0.6747
  81   0.0000       0.045833         1.2472

MULLIKEN ATOMIC CHARGES
-----------------------
   0 Pd:    0.376934
   1 O :   -0.326051
   2 C :    0.651415
   3 O :   -0.667948
   4 C :   -0.733870
   5 H :    0.256928
   6 H :    0.294017
   7 H :    0.287098
   8 N :   -0.473287
   9 C :   -0.535707
  10 H :    0.317100
  11 H :    0.206513
  12 H :    0.270167
  13 C :   -0.510562
  14 H :    0.265841
  15 H :    0.217679
  16 H :    0.281077
  17 C :    0.055861
  18 C :   -0.254866
  19 C :   -0.233622
  20 C :   -0.196633
  21 C :   -0.320716
  22 C :   -0.082650
  23 H :    0.211767
  24 H :    0.201523
  25 H :    0.206147
  26 H :    0.215993
  27 H :    0.449689
  28 C :   -0.323168
  29 H :    0.260735
  30 H :    0.226193
  31 O :   -0.556489
  32 C :    0.528500
  33 O :   -0.484584
  34 C :   -0.739326
  35 H :    0.227226
  36 H :    0.213543
  37 H :    0.217532
Sum of atomic charges:   -0.0000000

LOEWDIN ATOMIC CHARGES
----------------------
   0 Pd:   -0.371871
   1 O :    0.014578
   2 C :    0.332564
   3 O :   -0.392580
   4 C :   -0.364259
   5 H :    0.157214
   6 H :    0.182366
   7 H :    0.171825
   8 N :   -0.043263
   9 C :   -0.236954
  10 H :    0.172086
  11 H :    0.115352
  12 H :    0.153513
  13 C :   -0.229651
  14 H :    0.149934
  15 H :    0.120715
  16 H :    0.158653
  17 C :   -0.051826
  18 C :   -0.141845
  19 C :   -0.143249
  20 C :   -0.143528
  21 C :   -0.124282
  22 C :   -0.019431
  23 H :    0.134390
  24 H :    0.132509
  25 H :    0.134616
  26 H :    0.133038
  27 H :    0.316065
  28 C :   -0.104211
  29 H :    0.148753
  30 H :    0.126834
  31 O :   -0.286915
  32 C :    0.107414
  33 O :   -0.304278
  34 C :   -0.402462
  35 H :    0.133585
  36 H :    0.134811
  37 H :    0.129791

  Mayer bond orders larger than 0.100000
B(  0-Pd,  1-O ) :   0.3266 B(  0-Pd,  8-N ) :   0.4729 B(  0-Pd, 22-C ) :   0.9202
B(  0-Pd, 31-O ) :   0.4363 B(  1-O ,  2-C ) :   1.8459 B(  2-C ,  3-O ) :   0.9267
B(  2-C ,  4-C ) :   0.9548 B(  3-O , 27-H ) :   0.7485 B(  4-C ,  5-H ) :   0.9012
B(  4-C ,  6-H ) :   0.8802 B(  4-C ,  7-H ) :   0.8925 B(  8-N ,  9-C ) :   0.9112
B(  8-N , 13-C ) :   0.9190 B(  8-N , 28-C ) :   0.8792 B(  9-C , 10-H ) :   0.8575
B(  9-C , 11-H ) :   0.9065 B(  9-C , 12-H ) :   0.9002 B( 13-C , 14-H ) :   0.9054
B( 13-C , 15-H ) :   0.9027 B( 13-C , 16-H ) :   0.8975 B( 17-C , 18-C ) :   1.3844
B( 17-C , 22-C ) :   1.3093 B( 17-C , 28-C ) :   0.9789 B( 18-C , 19-C ) :   1.4390
B( 18-C , 25-H ) :   0.9246 B( 19-C , 20-C ) :   1.4269 B( 19-C , 26-H ) :   0.9163
B( 20-C , 21-C ) :   1.4295 B( 20-C , 23-H ) :   0.9199 B( 21-C , 22-C ) :   1.3492
B( 21-C , 24-H ) :   0.9220 B( 28-C , 29-H ) :   0.8935 B( 28-C , 30-H ) :   0.9053
B( 31-O , 32-C ) :   1.3820 B( 31-O , 33-O ) :   0.1104 B( 32-C , 33-O ) :   1.8393
B( 32-C , 34-C ) :   0.9115 B( 34-C , 35-H ) :   0.9236 B( 34-C , 36-H ) :   0.9259
B( 34-C , 37-H ) :   0.9222

Dispersion correction           -0.026072861
FINAL SINGLE POINT ENERGY      -988.458009359981
Dispersion correction            ... done

DIPOLE MOMENT
-------------
                                X             Y             Z
Electronic contribution:     10.10423       8.95920       3.90381
Nuclear contribution   :    -10.95897      -6.89358      -2.75736
                        -----------------------------------------
Total Dipole Moment    :     -0.85474       2.06562       1.14645
                        -----------------------------------------
Magnitude (a.u.)       :      2.51231
Magnitude (Debye)      :      6.38580

Rotational constants in cm-1:     0.014788     0.008493     0.006284
Rotational constants in MHz :   443.336490   254.603229   188.383045

                             ****ORCA TERMINATED NORMALLY****
TOTAL RUN TIME: 0 days 0 hours 8 minutes 58 seconds 68 msec
