                         Program Version 5.0.3 -  RELEASE  -
|  1> ! EnGrad PBEh-3c
|  2> %output
|  3> xyzfile=True
|  4> end
|  5> %scf
|  6> maxiter 250
|  7> end
|  8> %output
|  9> Print[P_Hirshfeld] = 1
| 10> end
| 11> % maxcore
| 12> 4000
| 13> *xyz 0 1
| 14> Pd   0.28838265   0.13548661  -0.02022668
| 15> O    1.87323969   1.29678354   0.71056530
| 16> C    1.82856073   2.50191358   0.53733792
| 17> O    0.58968753   3.09069345  -0.01445347
| 18> C    3.02469274   3.37125168   0.78139562
| 19> H    2.72443537   4.31948645   1.20613856
| 20> H    3.48780848   3.59006266  -0.18552814
| 21> H    3.75831072   2.88538437   1.40586597
| 22> N   -1.23969696  -1.04905404  -0.89535275
| 23> C   -0.77760787  -2.44433201  -1.07767867
| 24> H    0.07021037  -2.46651286  -1.74483836
| 25> H   -1.58524197  -3.03511381  -1.51664182
| 26> H   -0.49305227  -2.86089443  -0.11991389
| 27> C   -1.70373128  -0.54396708  -2.20251116
| 28> H   -1.90404856   0.52067889  -2.13956104
| 29> H   -2.61365566  -1.06800100  -2.49527858
| 30> H   -0.95084375  -0.72263103  -2.95900562
| 31> C   -1.91810247  -1.01145598   1.50041161
| 32> C   -2.64071966  -1.67903381   2.49736361
| 33> C   -2.25059102  -1.56938852   3.82628199
| 34> C   -1.13217912  -0.82723156   4.14260864
| 35> C   -0.41205891  -0.19119760   3.13520020
| 36> C   -0.73183797  -0.26712093   1.72964803
| 37> H   -0.80977654  -0.74122549   5.18192968
| 38> H    0.45793271   0.33000704   3.47047592
| 39> H   -3.51890126  -2.25710428   2.26509048
| 40> H   -2.80059180  -2.06517583   4.60396100
| 41> H   -0.21564963   3.91125611   0.40333237
| 42> C   -2.38774010  -1.01987116   0.08248858
| 43> H   -2.94222752  -0.10596536  -0.11379790
| 44> H   -3.05653748  -1.85442068  -0.13195204
| 45> O    1.28089925   0.73930744  -1.89279454
| 46> C    2.01832863  -0.10781030  -2.52974290
| 47> O    2.06637436  -1.31407132  -2.33570606
| 48> C    2.96199885   0.51446938  -3.58965089
| 49> H    3.31857854  -0.25155472  -4.27260828
| 50> H    3.82942105   0.93062803  -3.07910387
| 51> H    2.50584134   1.31584254  -4.16388413
| 52> *
| 53>
| 54>                          ****END OF INPUT****

CARTESIAN COORDINATES (ANGSTROEM)
---------------------------------
  Pd     0.288383    0.135487   -0.020227
  O      1.873240    1.296784    0.710565
  C      1.828561    2.501914    0.537338
  O      0.589688    3.090693   -0.014453
  C      3.024693    3.371252    0.781396
  H      2.724435    4.319486    1.206139
  H      3.487808    3.590063   -0.185528
  H      3.758311    2.885384    1.405866
  N     -1.239697   -1.049054   -0.895353
  C     -0.777608   -2.444332   -1.077679
  H      0.070210   -2.466513   -1.744838
  H     -1.585242   -3.035114   -1.516642
  H     -0.493052   -2.860894   -0.119914
  C     -1.703731   -0.543967   -2.202511
  H     -1.904049    0.520679   -2.139561
  H     -2.613656   -1.068001   -2.495279
  H     -0.950844   -0.722631   -2.959006
  C     -1.918102   -1.011456    1.500412
  C     -2.640720   -1.679034    2.497364
  C     -2.250591   -1.569389    3.826282
  C     -1.132179   -0.827232    4.142609
  C     -0.412059   -0.191198    3.135200
  C     -0.731838   -0.267121    1.729648
  H     -0.809777   -0.741225    5.181930
  H      0.457933    0.330007    3.470476
  H     -3.518901   -2.257104    2.265090
  H     -2.800592   -2.065176    4.603961
  H     -0.215650    3.911256    0.403332
  C     -2.387740   -1.019871    0.082489
  H     -2.942228   -0.105965   -0.113798
  H     -3.056537   -1.854421   -0.131952
  O      1.280899    0.739307   -1.892795
  C      2.018329   -0.107810   -2.529743
  O      2.066374   -1.314071   -2.335706
  C      2.961999    0.514469   -3.589651
  H      3.318579   -0.251555   -4.272608
  H      3.829421    0.930628   -3.079104
  H      2.505841    1.315843   -4.163884

 Total Charge           Charge          ....    0
 Multiplicity           Mult            ....    1
 Number of Electrons    NEL             ....  154
 Basis Dimension        Dim             ....  339

ORBITAL ENERGIES
----------------

  NO   OCC          E(Eh)            E(eV)
   0   2.0000     -19.567546      -532.4600
   1   2.0000     -19.556638      -532.1632
   2   2.0000     -19.430577      -528.7329
   3   2.0000     -19.403890      -528.0067
   4   2.0000     -14.706969      -400.1970
   5   2.0000     -10.644316      -289.6466
   6   2.0000     -10.505793      -285.8772
   7   2.0000     -10.483004      -285.2571
   8   2.0000     -10.477399      -285.1045
   9   2.0000     -10.466069      -284.7962
  10   2.0000     -10.453389      -284.4512
  11   2.0000     -10.444062      -284.1974
  12   2.0000     -10.442491      -284.1546
  13   2.0000     -10.437117      -284.0084
  14   2.0000     -10.433357      -283.9061
  15   2.0000     -10.432794      -283.8907
  16   2.0000     -10.431647      -283.8595
  17   2.0000     -10.396992      -282.9165
  18   2.0000      -3.636077       -98.9427
  19   2.0000      -2.282502       -62.1100
  20   2.0000      -2.278996       -62.0146
  21   2.0000      -2.247521       -61.1582
  22   2.0000      -1.232539       -33.5391
  23   2.0000      -1.111805       -30.2537
  24   2.0000      -1.100920       -29.9575
  25   2.0000      -1.053913       -28.6784
  26   2.0000      -1.016811       -27.6688
  27   2.0000      -0.937996       -25.5242
  28   2.0000      -0.876732       -23.8571
  29   2.0000      -0.857418       -23.3315
  30   2.0000      -0.812911       -22.1204
  31   2.0000      -0.800485       -21.7823
  32   2.0000      -0.772844       -21.0302
  33   2.0000      -0.769599       -20.9419
  34   2.0000      -0.697685       -18.9850
  35   2.0000      -0.683225       -18.5915
  36   2.0000      -0.667121       -18.1533
  37   2.0000      -0.635907       -17.3039
  38   2.0000      -0.620034       -16.8720
  39   2.0000      -0.573562       -15.6074
  40   2.0000      -0.570630       -15.5276
  41   2.0000      -0.560707       -15.2576
  42   2.0000      -0.553100       -15.0506
  43   2.0000      -0.551404       -15.0045
  44   2.0000      -0.545317       -14.8388
  45   2.0000      -0.527810       -14.3624
  46   2.0000      -0.509266       -13.8578
  47   2.0000      -0.503096       -13.6899
  48   2.0000      -0.490811       -13.3557
  49   2.0000      -0.482814       -13.1380
  50   2.0000      -0.472912       -12.8686
  51   2.0000      -0.467832       -12.7304
  52   2.0000      -0.463391       -12.6095
  53   2.0000      -0.459729       -12.5099
  54   2.0000      -0.452936       -12.3250
  55   2.0000      -0.445375       -12.1193
  56   2.0000      -0.443133       -12.0582
  57   2.0000      -0.436244       -11.8708
  58   2.0000      -0.428752       -11.6669
  59   2.0000      -0.421773       -11.4770
  60   2.0000      -0.411909       -11.2086
  61   2.0000      -0.407261       -11.0821
  62   2.0000      -0.396922       -10.8008
  63   2.0000      -0.394897       -10.7457
  64   2.0000      -0.386163       -10.5080
  65   2.0000      -0.377466       -10.2714
  66   2.0000      -0.360504        -9.8098
  67   2.0000      -0.357580        -9.7302
  68   2.0000      -0.337279        -9.1778
  69   2.0000      -0.329071        -8.9545
  70   2.0000      -0.317898        -8.6504
  71   2.0000      -0.280738        -7.6393
  72   2.0000      -0.279546        -7.6068
  73   2.0000      -0.274029        -7.4567
  74   2.0000      -0.273471        -7.4415
  75   2.0000      -0.257664        -7.0114
  76   2.0000      -0.254552        -6.9267
  77   0.0000      -0.042738        -1.1630
  78   0.0000      -0.023548        -0.6408
  79   0.0000       0.005054         0.1375
  80   0.0000       0.025806         0.7022
  81   0.0000       0.030324         0.8252

MULLIKEN ATOMIC CHARGES
-----------------------
   0 Pd:    0.372600
   1 O :   -0.353475
   2 C :    0.676467
   3 O :   -0.621241
   4 C :   -0.741782
   5 H :    0.251568
   6 H :    0.288576
   7 H :    0.281676
   8 N :   -0.478021
   9 C :   -0.544506
  10 H :    0.319112
  11 H :    0.208439
  12 H :    0.274339
  13 C :   -0.512240
  14 H :    0.263831
  15 H :    0.218802
  16 H :    0.281633
  17 C :    0.055175
  18 C :   -0.255503
  19 C :   -0.239566
  20 C :   -0.193293
  21 C :   -0.323794
  22 C :   -0.086829
  23 H :    0.209707
  24 H :    0.206175
  25 H :    0.202360
  26 H :    0.212333
  27 H :    0.439047
  28 C :   -0.317347
  29 H :    0.259729
  30 H :    0.225281
  31 O :   -0.552886
  32 C :    0.532036
  33 O :   -0.482075
  34 C :   -0.742175
  35 H :    0.229241
  36 H :    0.217266
  37 H :    0.219338
Sum of atomic charges:   -0.0000000

LOEWDIN ATOMIC CHARGES
----------------------
   0 Pd:   -0.397819
   1 O :   -0.010160
   2 C :    0.292911
   3 O :   -0.363505
   4 C :   -0.369301
   5 H :    0.154577
   6 H :    0.180253
   7 H :    0.166406
   8 N :   -0.035577
   9 C :   -0.238032
  10 H :    0.171825
  11 H :    0.115725
  12 H :    0.154824
  13 C :   -0.229472
  14 H :    0.149224
  15 H :    0.120261
  16 H :    0.158286
  17 C :   -0.060003
  18 C :   -0.141969
  19 C :   -0.143035
  20 C :   -0.144166
  21 C :   -0.127514
  22 C :   -0.028489
  23 H :    0.132927
  24 H :    0.133469
  25 H :    0.132405
  26 H :    0.131547
  27 H :    0.376855
  28 C :   -0.103854
  29 H :    0.148300
  30 H :    0.126761
  31 O :   -0.264556
  32 C :    0.105707
  33 O :   -0.299040
  34 C :   -0.398688
  35 H :    0.134840
  36 H :    0.137102
  37 H :    0.130973

  Mayer bond orders larger than 0.100000
B(  0-Pd,  1-O ) :   0.3422 B(  0-Pd,  8-N ) :   0.4743 B(  0-Pd, 22-C ) :   0.8538
B(  0-Pd, 31-O ) :   0.4632 B(  1-O ,  2-C ) :   1.7895 B(  2-C ,  3-O ) :   1.0029
B(  2-C ,  4-C ) :   0.9608 B(  3-O , 27-H ) :   0.7333 B(  4-C ,  5-H ) :   0.9045
B(  4-C ,  6-H ) :   0.8839 B(  4-C ,  7-H ) :   0.8947 B(  8-N ,  9-C ) :   0.9120
B(  8-N , 13-C ) :   0.9209 B(  8-N , 28-C ) :   0.8821 B(  9-C , 10-H ) :   0.8573
B(  9-C , 11-H ) :   0.9066 B(  9-C , 12-H ) :   0.8981 B( 13-C , 14-H ) :   0.9065
B( 13-C , 15-H ) :   0.9022 B( 13-C , 16-H ) :   0.8968 B( 17-C , 18-C ) :   1.3914
B( 17-C , 22-C ) :   1.3267 B( 17-C , 28-C ) :   0.9791 B( 18-C , 19-C ) :   1.4407
B( 18-C , 25-H ) :   0.9252 B( 19-C , 20-C ) :   1.4267 B( 19-C , 26-H ) :   0.9181
B( 20-C , 21-C ) :   1.4319 B( 20-C , 23-H ) :   0.9201 B( 21-C , 22-C ) :   1.3693
B( 21-C , 24-H ) :   0.9207 B( 28-C , 29-H ) :   0.8945 B( 28-C , 30-H ) :   0.9062
B( 31-O , 32-C ) :   1.3676 B( 31-O , 33-O ) :   0.1077 B( 32-C , 33-O ) :   1.8440
B( 32-C , 34-C ) :   0.9172 B( 34-C , 35-H ) :   0.9233 B( 34-C , 36-H ) :   0.9245
B( 34-C , 37-H ) :   0.9213

Dispersion correction           -0.026119877
FINAL SINGLE POINT ENERGY      -988.453717282850
Dispersion correction            ... done

DIPOLE MOMENT
-------------
                                X             Y             Z
Electronic contribution:     11.21536       8.00299      -0.38367
Nuclear contribution   :    -12.20819      -5.65908       1.28325
                        -----------------------------------------
Total Dipole Moment    :     -0.99284       2.34391       0.89958
                        -----------------------------------------
Magnitude (a.u.)       :      2.69979
Magnitude (Debye)      :      6.86232

Rotational constants in cm-1:     0.015032     0.008508     0.006263
Rotational constants in MHz :   450.657119   255.061501   187.774629

                             ****ORCA TERMINATED NORMALLY****
TOTAL RUN TIME: 0 days 0 hours 9 minutes 31 seconds 414 msec
