                         Program Version 5.0.3 -  RELEASE  -
|  1> ! EnGrad PBEh-3c
|  2> %output
|  3> xyzfile=True
|  4> end
|  5> %scf
|  6> maxiter 250
|  7> end
|  8> %output
|  9> Print[P_Hirshfeld] = 1
| 10> end
| 11> % maxcore
| 12> 4000
| 13> *xyz 0 1
| 14> Pd   0.29617541   0.12783305  -0.04341205
| 15> O    1.88144173   1.27592287   0.72322647
| 16> C    1.84226981   2.48372407   0.54745108
| 17> O    0.63798888   3.06096656  -0.02008600
| 18> C    3.03029351   3.35830491   0.78701973
| 19> H    2.73620934   4.31063128   1.21001579
| 20> H    3.49826552   3.57925142  -0.17912361
| 21> H    3.76021535   2.87279467   1.40926384
| 22> N   -1.23380939  -1.05404174  -0.89499774
| 23> C   -0.77023220  -2.44980997  -1.06122260
| 24> H    0.08046545  -2.48076534  -1.72273299
| 25> H   -1.56989861  -3.05040179  -1.50193420
| 26> H   -0.48742083  -2.86048708  -0.10093826
| 27> C   -1.69621395  -0.56355574  -2.20602003
| 28> H   -1.90148459   0.50084182  -2.15347932
| 29> H   -2.60099087  -1.09282133  -2.50393864
| 30> H   -0.94291381  -0.74851899  -2.95976851
| 31> C   -1.92895134  -1.01059672   1.49789011
| 32> C   -2.65646088  -1.66078451   2.49853248
| 33> C   -2.26168271  -1.55004713   3.82708982
| 34> C   -1.13447396  -0.82236617   4.14457664
| 35> C   -0.40661258  -0.20291868   3.13796182
| 36> C   -0.74720123  -0.26746725   1.73823166
| 37> H   -0.81064712  -0.73755688   5.18163983
| 38> H    0.47908265   0.29267507   3.46873342
| 39> H   -3.53834372  -2.22913348   2.26915017
| 40> H   -2.81769284  -2.03690710   4.60605736
| 41> H   -0.24813315   3.97720966   0.38585312
| 42> C   -2.38562072  -1.01943371   0.07631103
| 43> H   -2.94064707  -0.10717320  -0.12327413
| 44> H   -3.05784073  -1.85359367  -0.12990538
| 45> O    1.27484009   0.74634725  -1.89075403
| 46> C    2.01063339  -0.09208082  -2.53836253
| 47> O    2.05717153  -1.29812967  -2.34796336
| 48> C    2.94715639   0.53593794  -3.59541485
| 49> H    3.30317815  -0.22413553  -4.28473504
| 50> H    3.81476401   0.95244234  -3.08665326
| 51> H    2.48721618   1.33773254  -4.16437353
| 52> *
| 53>
| 54>                          ****END OF INPUT****

CARTESIAN COORDINATES (ANGSTROEM)
---------------------------------
  Pd     0.296175    0.127833   -0.043412
  O      1.881442    1.275923    0.723226
  C      1.842270    2.483724    0.547451
  O      0.637989    3.060967   -0.020086
  C      3.030294    3.358305    0.787020
  H      2.736209    4.310631    1.210016
  H      3.498266    3.579251   -0.179124
  H      3.760215    2.872795    1.409264
  N     -1.233809   -1.054042   -0.894998
  C     -0.770232   -2.449810   -1.061223
  H      0.080465   -2.480765   -1.722733
  H     -1.569899   -3.050402   -1.501934
  H     -0.487421   -2.860487   -0.100938
  C     -1.696214   -0.563556   -2.206020
  H     -1.901485    0.500842   -2.153479
  H     -2.600991   -1.092821   -2.503939
  H     -0.942914   -0.748519   -2.959769
  C     -1.928951   -1.010597    1.497890
  C     -2.656461   -1.660785    2.498532
  C     -2.261683   -1.550047    3.827090
  C     -1.134474   -0.822366    4.144577
  C     -0.406613   -0.202919    3.137962
  C     -0.747201   -0.267467    1.738232
  H     -0.810647   -0.737557    5.181640
  H      0.479083    0.292675    3.468733
  H     -3.538344   -2.229133    2.269150
  H     -2.817693   -2.036907    4.606057
  H     -0.248133    3.977210    0.385853
  C     -2.385621   -1.019434    0.076311
  H     -2.940647   -0.107173   -0.123274
  H     -3.057841   -1.853594   -0.129905
  O      1.274840    0.746347   -1.890754
  C      2.010633   -0.092081   -2.538363
  O      2.057172   -1.298130   -2.347963
  C      2.947156    0.535938   -3.595415
  H      3.303178   -0.224136   -4.284735
  H      3.814764    0.952442   -3.086653
  H      2.487216    1.337733   -4.164374

 Total Charge           Charge          ....    0
 Multiplicity           Mult            ....    1
 Number of Electrons    NEL             ....  154
 Basis Dimension        Dim             ....  339

ORBITAL ENERGIES
----------------

  NO   OCC          E(Eh)            E(eV)
   0   2.0000     -19.562739      -532.3292
   1   2.0000     -19.560389      -532.2652
   2   2.0000     -19.431461      -528.7569
   3   2.0000     -19.404014      -528.0101
   4   2.0000     -14.707089      -400.2002
   5   2.0000     -10.638700      -289.4937
   6   2.0000     -10.505865      -285.8791
   7   2.0000     -10.479581      -285.1639
   8   2.0000     -10.476973      -285.0929
   9   2.0000     -10.465675      -284.7855
  10   2.0000     -10.452989      -284.4403
  11   2.0000     -10.442444      -284.1533
  12   2.0000     -10.440332      -284.0959
  13   2.0000     -10.435801      -283.9726
  14   2.0000     -10.431637      -283.8593
  15   2.0000     -10.430993      -283.8417
  16   2.0000     -10.430619      -283.8316
  17   2.0000     -10.397490      -282.9301
  18   2.0000      -3.633719       -98.8785
  19   2.0000      -2.280334       -62.0510
  20   2.0000      -2.276204       -61.9387
  21   2.0000      -2.245172       -61.0942
  22   2.0000      -1.228738       -33.4357
  23   2.0000      -1.113651       -30.3040
  24   2.0000      -1.099073       -29.9073
  25   2.0000      -1.054591       -28.6969
  26   2.0000      -1.017734       -27.6939
  27   2.0000      -0.937476       -25.5100
  28   2.0000      -0.873955       -23.7815
  29   2.0000      -0.857244       -23.3268
  30   2.0000      -0.811528       -22.0828
  31   2.0000      -0.800659       -21.7870
  32   2.0000      -0.772979       -21.0338
  33   2.0000      -0.770921       -20.9778
  34   2.0000      -0.697872       -18.9901
  35   2.0000      -0.674773       -18.3615
  36   2.0000      -0.666228       -18.1290
  37   2.0000      -0.634924       -17.2772
  38   2.0000      -0.611600       -16.6425
  39   2.0000      -0.572742       -15.5851
  40   2.0000      -0.569249       -15.4901
  41   2.0000      -0.559991       -15.2381
  42   2.0000      -0.553110       -15.0509
  43   2.0000      -0.551609       -15.0101
  44   2.0000      -0.545366       -14.8402
  45   2.0000      -0.527795       -14.3620
  46   2.0000      -0.505888       -13.7659
  47   2.0000      -0.502324       -13.6689
  48   2.0000      -0.489818       -13.3286
  49   2.0000      -0.482233       -13.1222
  50   2.0000      -0.472286       -12.8516
  51   2.0000      -0.467633       -12.7249
  52   2.0000      -0.464343       -12.6354
  53   2.0000      -0.460414       -12.5285
  54   2.0000      -0.453113       -12.3298
  55   2.0000      -0.444508       -12.0957
  56   2.0000      -0.437606       -11.9079
  57   2.0000      -0.434864       -11.8332
  58   2.0000      -0.428407       -11.6575
  59   2.0000      -0.420593       -11.4449
  60   2.0000      -0.411228       -11.1901
  61   2.0000      -0.406390       -11.0584
  62   2.0000      -0.396027       -10.7765
  63   2.0000      -0.393381       -10.7044
  64   2.0000      -0.386474       -10.5165
  65   2.0000      -0.376180       -10.2364
  66   2.0000      -0.360420        -9.8075
  67   2.0000      -0.353685        -9.6243
  68   2.0000      -0.335795        -9.1374
  69   2.0000      -0.324849        -8.8396
  70   2.0000      -0.315787        -8.5930
  71   2.0000      -0.280310        -7.6276
  72   2.0000      -0.278820        -7.5871
  73   2.0000      -0.273992        -7.4557
  74   2.0000      -0.272246        -7.4082
  75   2.0000      -0.257264        -7.0005
  76   2.0000      -0.254416        -6.9230
  77   0.0000      -0.069656        -1.8954
  78   0.0000      -0.022054        -0.6001
  79   0.0000      -0.000485        -0.0132
  80   0.0000       0.026846         0.7305
  81   0.0000       0.031579         0.8593

MULLIKEN ATOMIC CHARGES
-----------------------
   0 Pd:    0.372904
   1 O :   -0.360558
   2 C :    0.676612
   3 O :   -0.585702
   4 C :   -0.744265
   5 H :    0.250182
   6 H :    0.286904
   7 H :    0.279716
   8 N :   -0.479535
   9 C :   -0.547105
  10 H :    0.319663
  11 H :    0.209125
  12 H :    0.275690
  13 C :   -0.513076
  14 H :    0.263431
  15 H :    0.219222
  16 H :    0.281889
  17 C :    0.053951
  18 C :   -0.255651
  19 C :   -0.240695
  20 C :   -0.192736
  21 C :   -0.324143
  22 C :   -0.088648
  23 H :    0.209320
  24 H :    0.207733
  25 H :    0.201349
  26 H :    0.211346
  27 H :    0.419199
  28 C :   -0.315582
  29 H :    0.259668
  30 H :    0.225110
  31 O :   -0.552543
  32 C :    0.533128
  33 O :   -0.481160
  34 C :   -0.743079
  35 H :    0.229895
  36 H :    0.218479
  37 H :    0.219961
Sum of atomic charges:   -0.0000000

LOEWDIN ATOMIC CHARGES
----------------------
   0 Pd:   -0.403929
   1 O :   -0.016904
   2 C :    0.278341
   3 O :   -0.336732
   4 C :   -0.370841
   5 H :    0.153949
   6 H :    0.179579
   7 H :    0.164591
   8 N :   -0.033463
   9 C :   -0.238294
  10 H :    0.171761
  11 H :    0.115915
  12 H :    0.155244
  13 C :   -0.229512
  14 H :    0.149107
  15 H :    0.120159
  16 H :    0.158213
  17 C :   -0.062541
  18 C :   -0.141994
  19 C :   -0.142982
  20 C :   -0.144401
  21 C :   -0.128425
  22 C :   -0.031337
  23 H :    0.132552
  24 H :    0.133907
  25 H :    0.131792
  26 H :    0.131179
  27 H :    0.376794
  28 C :   -0.103827
  29 H :    0.148285
  30 H :    0.126868
  31 O :   -0.258167
  32 C :    0.105422
  33 O :   -0.297245
  34 C :   -0.397552
  35 H :    0.135264
  36 H :    0.137840
  37 H :    0.131385

  Mayer bond orders larger than 0.100000
B(  0-Pd,  1-O ) :   0.3459 B(  0-Pd,  8-N ) :   0.4739 B(  0-Pd, 22-C ) :   0.8356
B(  0-Pd, 31-O ) :   0.4708 B(  1-O ,  2-C ) :   1.7706 B(  2-C ,  3-O ) :   1.0372
B(  2-C ,  4-C ) :   0.9622 B(  3-O , 27-H ) :   0.7364 B(  4-C ,  5-H ) :   0.9053
B(  4-C ,  6-H ) :   0.8850 B(  4-C ,  7-H ) :   0.8956 B(  8-N ,  9-C ) :   0.9120
B(  8-N , 13-C ) :   0.9214 B(  8-N , 28-C ) :   0.8829 B(  9-C , 10-H ) :   0.8574
B(  9-C , 11-H ) :   0.9066 B(  9-C , 12-H ) :   0.8973 B( 13-C , 14-H ) :   0.9068
B( 13-C , 15-H ) :   0.9021 B( 13-C , 16-H ) :   0.8965 B( 17-C , 18-C ) :   1.3929
B( 17-C , 22-C ) :   1.3327 B( 17-C , 28-C ) :   0.9793 B( 18-C , 19-C ) :   1.4414
B( 18-C , 25-H ) :   0.9253 B( 19-C , 20-C ) :   1.4262 B( 19-C , 26-H ) :   0.9187
B( 20-C , 21-C ) :   1.4325 B( 20-C , 23-H ) :   0.9201 B( 21-C , 22-C ) :   1.3740
B( 21-C , 24-H ) :   0.9203 B( 28-C , 29-H ) :   0.8948 B( 28-C , 30-H ) :   0.9064
B( 31-O , 32-C ) :   1.3628 B( 31-O , 33-O ) :   0.1069 B( 32-C , 33-O ) :   1.8456
B( 32-C , 34-C ) :   0.9190 B( 34-C , 35-H ) :   0.9232 B( 34-C , 36-H ) :   0.9240
B( 34-C , 37-H ) :   0.9210

Dispersion correction           -0.026340017
FINAL SINGLE POINT ENERGY      -988.431269726145
Dispersion correction            ... done

DIPOLE MOMENT
-------------
                                X             Y             Z
Electronic contribution:     11.56443       7.68148      -1.70033
Nuclear contribution   :    -12.59168      -5.28011       2.52366
                        -----------------------------------------
Total Dipole Moment    :     -1.02726       2.40137       0.82333
                        -----------------------------------------
Magnitude (a.u.)       :      2.73856
Magnitude (Debye)      :      6.96087

Rotational constants in cm-1:     0.015100     0.008510     0.006256
Rotational constants in MHz :   452.699841   255.131378   187.556092

                             ****ORCA TERMINATED NORMALLY****
TOTAL RUN TIME: 0 days 0 hours 9 minutes 30 seconds 244 msec
