                         Program Version 5.0.3 -  RELEASE  -
|  1> ! EnGrad PBEh-3c
|  2> %output
|  3> xyzfile=True
|  4> end
|  5> %scf
|  6> maxiter 250
|  7> end
|  8> %output
|  9> Print[P_Hirshfeld] = 1
| 10> end
| 11> % maxcore
| 12> 4000
| 13> *xyz 0 1
| 14> Pd   0.29103219   0.13288440  -0.02810970
| 15> O    1.87602838   1.28969091   0.71487010
| 16> C    1.83322182   2.49572915   0.54077640
| 17> O    0.60610999   3.08058631  -0.01636853
| 18> C    3.02659700   3.36684978   0.78330782
| 19> H    2.72843852   4.31647569   1.20745682
| 20> H    3.49136387   3.58638684  -0.18335060
| 21> H    3.75895829   2.88110387   1.40702125
| 22> N   -1.23769519  -1.05074986  -0.89523205
| 23> C   -0.77510014  -2.44619451  -1.07208360
| 24> H    0.07369710  -2.47135870  -1.73732253
| 25> H   -1.58002523  -3.04031172  -1.51164123
| 26> H   -0.49113758  -2.86075593  -0.11346218
| 27> C   -1.70117539  -0.55062723  -2.20370417
| 28> H   -1.90317681   0.51393428  -2.14429325
| 29> H   -2.60934963  -1.07643991  -2.49822300
| 30> H   -0.94814757  -0.73143293  -2.95926500
| 31> C   -1.92179108  -1.01116383   1.49955430
| 32> C   -2.64607168  -1.67282905   2.49776102
| 33> C   -2.25436220  -1.56281245   3.82655665
| 34> C   -1.13295937  -0.82557733   4.14327776
| 35> C   -0.41020716  -0.19518277   3.13613915
| 36> C   -0.73706148  -0.26723868   1.73256647
| 37> H   -0.81007253  -0.73997816   5.18183113
| 38> H    0.46512369   0.31731417   3.46988347
| 39> H   -3.52551170  -2.24759420   2.26647078
| 40> H   -2.80640615  -2.05556446   4.60467376
| 41> H   -0.22669403   3.93368031   0.39738943
| 42> C   -2.38701951  -1.01972243   0.08038821
| 43> H   -2.94169017  -0.10637602  -0.11701982
| 44> H   -3.05698059  -1.85413950  -0.13125618
| 45> O    1.27883913   0.74170098  -1.89210077
| 46> C    2.01571225  -0.10246227  -2.53267357
| 47> O    2.06324540  -1.30865116  -2.33987354
| 48> C    2.95695241   0.52176869  -3.59161064
| 49> H    3.31334241  -0.24223220  -4.27673138
| 50> H    3.82443766   0.93804489  -3.08167066
| 51> H    2.49950879   1.32328514  -4.16405053
| 52> *
| 53>
| 54>                          ****END OF INPUT****

CARTESIAN COORDINATES (ANGSTROEM)
---------------------------------
  Pd     0.291032    0.132884   -0.028110
  O      1.876028    1.289691    0.714870
  C      1.833222    2.495729    0.540776
  O      0.606110    3.080586   -0.016369
  C      3.026597    3.366850    0.783308
  H      2.728439    4.316476    1.207457
  H      3.491364    3.586387   -0.183351
  H      3.758958    2.881104    1.407021
  N     -1.237695   -1.050750   -0.895232
  C     -0.775100   -2.446195   -1.072084
  H      0.073697   -2.471359   -1.737323
  H     -1.580025   -3.040312   -1.511641
  H     -0.491138   -2.860756   -0.113462
  C     -1.701175   -0.550627   -2.203704
  H     -1.903177    0.513934   -2.144293
  H     -2.609350   -1.076440   -2.498223
  H     -0.948148   -0.731433   -2.959265
  C     -1.921791   -1.011164    1.499554
  C     -2.646072   -1.672829    2.497761
  C     -2.254362   -1.562812    3.826557
  C     -1.132959   -0.825577    4.143278
  C     -0.410207   -0.195183    3.136139
  C     -0.737061   -0.267239    1.732566
  H     -0.810073   -0.739978    5.181831
  H      0.465124    0.317314    3.469883
  H     -3.525512   -2.247594    2.266471
  H     -2.806406   -2.055564    4.604674
  H     -0.226694    3.933680    0.397389
  C     -2.387020   -1.019722    0.080388
  H     -2.941690   -0.106376   -0.117020
  H     -3.056981   -1.854140   -0.131256
  O      1.278839    0.741701   -1.892101
  C      2.015712   -0.102462   -2.532674
  O      2.063245   -1.308651   -2.339874
  C      2.956952    0.521769   -3.591611
  H      3.313342   -0.242232   -4.276731
  H      3.824438    0.938045   -3.081671
  H      2.499509    1.323285   -4.164051

 Total Charge           Charge          ....    0
 Multiplicity           Mult            ....    1
 Number of Electrons    NEL             ....  154
 Basis Dimension        Dim             ....  339

ORBITAL ENERGIES
----------------

  NO   OCC          E(Eh)            E(eV)
   0   2.0000     -19.565870      -532.4144
   1   2.0000     -19.558101      -532.2030
   2   2.0000     -19.430853      -528.7404
   3   2.0000     -19.403904      -528.0071
   4   2.0000     -14.706996      -400.1977
   5   2.0000     -10.642433      -289.5953
   6   2.0000     -10.505796      -285.8772
   7   2.0000     -10.481839      -285.2254
   8   2.0000     -10.477237      -285.1001
   9   2.0000     -10.465923      -284.7922
  10   2.0000     -10.453233      -284.4469
  11   2.0000     -10.443484      -284.1817
  12   2.0000     -10.441736      -284.1341
  13   2.0000     -10.436650      -283.9957
  14   2.0000     -10.432727      -283.8889
  15   2.0000     -10.432144      -283.8731
  16   2.0000     -10.431283      -283.8496
  17   2.0000     -10.397147      -282.9207
  18   2.0000      -3.635224       -98.9195
  19   2.0000      -2.281711       -62.0885
  20   2.0000      -2.277996       -61.9874
  21   2.0000      -2.246666       -61.1349
  22   2.0000      -1.231165       -33.5017
  23   2.0000      -1.112409       -30.2702
  24   2.0000      -1.099907       -29.9300
  25   2.0000      -1.054138       -28.6846
  26   2.0000      -1.017103       -27.6768
  27   2.0000      -0.937806       -25.5190
  28   2.0000      -0.875770       -23.8309
  29   2.0000      -0.857346       -23.3296
  30   2.0000      -0.812423       -22.1072
  31   2.0000      -0.800538       -21.7837
  32   2.0000      -0.772831       -21.0298
  33   2.0000      -0.770086       -20.9551
  34   2.0000      -0.697723       -18.9860
  35   2.0000      -0.680226       -18.5099
  36   2.0000      -0.666806       -18.1447
  37   2.0000      -0.635556       -17.2944
  38   2.0000      -0.617153       -16.7936
  39   2.0000      -0.573265       -15.5993
  40   2.0000      -0.570141       -15.5143
  41   2.0000      -0.560373       -15.2485
  42   2.0000      -0.553087       -15.0502
  43   2.0000      -0.551479       -15.0065
  44   2.0000      -0.545352       -14.8398
  45   2.0000      -0.527792       -14.3620
  46   2.0000      -0.508084       -13.8257
  47   2.0000      -0.502835       -13.6828
  48   2.0000      -0.490453       -13.3459
  49   2.0000      -0.482502       -13.1295
  50   2.0000      -0.472708       -12.8630
  51   2.0000      -0.467777       -12.7289
  52   2.0000      -0.463703       -12.6180
  53   2.0000      -0.459945       -12.5158
  54   2.0000      -0.452983       -12.3263
  55   2.0000      -0.445055       -12.1106
  56   2.0000      -0.441132       -12.0038
  57   2.0000      -0.435871       -11.8606
  58   2.0000      -0.428620       -11.6634
  59   2.0000      -0.421354       -11.4656
  60   2.0000      -0.411624       -11.2009
  61   2.0000      -0.407015       -11.0755
  62   2.0000      -0.396590       -10.7918
  63   2.0000      -0.394350       -10.7308
  64   2.0000      -0.386279       -10.5112
  65   2.0000      -0.376995       -10.2586
  66   2.0000      -0.360405        -9.8071
  67   2.0000      -0.356227        -9.6934
  68   2.0000      -0.336745        -9.1633
  69   2.0000      -0.327597        -8.9144
  70   2.0000      -0.317141        -8.6298
  71   2.0000      -0.280611        -7.6358
  72   2.0000      -0.279258        -7.5990
  73   2.0000      -0.274013        -7.4563
  74   2.0000      -0.273057        -7.4302
  75   2.0000      -0.257517        -7.0074
  76   2.0000      -0.254496        -6.9252
  77   0.0000      -0.050432        -1.3723
  78   0.0000      -0.022967        -0.6250
  79   0.0000       0.001980         0.0539
  80   0.0000       0.026047         0.7088
  81   0.0000       0.030766         0.8372

MULLIKEN ATOMIC CHARGES
-----------------------
   0 Pd:    0.372666
   1 O :   -0.355991
   2 C :    0.676889
   3 O :   -0.609659
   4 C :   -0.742623
   5 H :    0.251075
   6 H :    0.288007
   7 H :    0.281027
   8 N :   -0.478533
   9 C :   -0.545396
  10 H :    0.319306
  11 H :    0.208668
  12 H :    0.274798
  13 C :   -0.512506
  14 H :    0.263681
  15 H :    0.218941
  16 H :    0.281719
  17 C :    0.054799
  18 C :   -0.255563
  19 C :   -0.239953
  20 C :   -0.193085
  21 C :   -0.323952
  22 C :   -0.087501
  23 H :    0.209558
  24 H :    0.206698
  25 H :    0.202005
  26 H :    0.211982
  27 H :    0.432690
  28 C :   -0.316744
  29 H :    0.259692
  30 H :    0.225218
  31 O :   -0.552730
  32 C :    0.532396
  33 O :   -0.481770
  34 C :   -0.742479
  35 H :    0.229458
  36 H :    0.217672
  37 H :    0.219542
Sum of atomic charges:   -0.0000000

LOEWDIN ATOMIC CHARGES
----------------------
   0 Pd:   -0.400005
   1 O :   -0.012530
   2 C :    0.288085
   3 O :   -0.355037
   4 C :   -0.369824
   5 H :    0.154350
   6 H :    0.180026
   7 H :    0.165797
   8 N :   -0.034841
   9 C :   -0.238124
  10 H :    0.171804
  11 H :    0.115786
  12 H :    0.154967
  13 C :   -0.229480
  14 H :    0.149178
  15 H :    0.120225
  16 H :    0.158261
  17 C :   -0.060868
  18 C :   -0.141986
  19 C :   -0.142992
  20 C :   -0.144250
  21 C :   -0.127826
  22 C :   -0.029519
  23 H :    0.132793
  24 H :    0.133609
  25 H :    0.132192
  26 H :    0.131414
  27 H :    0.377632
  28 C :   -0.103841
  29 H :    0.148287
  30 H :    0.126791
  31 O :   -0.262360
  32 C :    0.105592
  33 O :   -0.298440
  34 C :   -0.398301
  35 H :    0.134981
  36 H :    0.137349
  37 H :    0.131108

  Mayer bond orders larger than 0.100000
B(  0-Pd,  1-O ) :   0.3435 B(  0-Pd,  8-N ) :   0.4742 B(  0-Pd, 22-C ) :   0.8474
B(  0-Pd, 31-O ) :   0.4658 B(  1-O ,  2-C ) :   1.7832 B(  2-C ,  3-O ) :   1.0140
B(  2-C ,  4-C ) :   0.9613 B(  3-O , 27-H ) :   0.7346 B(  4-C ,  5-H ) :   0.9048
B(  4-C ,  6-H ) :   0.8843 B(  4-C ,  7-H ) :   0.8950 B(  8-N ,  9-C ) :   0.9120
B(  8-N , 13-C ) :   0.9211 B(  8-N , 28-C ) :   0.8824 B(  9-C , 10-H ) :   0.8574
B(  9-C , 11-H ) :   0.9066 B(  9-C , 12-H ) :   0.8978 B( 13-C , 14-H ) :   0.9066
B( 13-C , 15-H ) :   0.9022 B( 13-C , 16-H ) :   0.8967 B( 17-C , 18-C ) :   1.3919
B( 17-C , 22-C ) :   1.3287 B( 17-C , 28-C ) :   0.9792 B( 18-C , 19-C ) :   1.4409
B( 18-C , 25-H ) :   0.9252 B( 19-C , 20-C ) :   1.4265 B( 19-C , 26-H ) :   0.9183
B( 20-C , 21-C ) :   1.4322 B( 20-C , 23-H ) :   0.9201 B( 21-C , 22-C ) :   1.3710
B( 21-C , 24-H ) :   0.9205 B( 28-C , 29-H ) :   0.8946 B( 28-C , 30-H ) :   0.9063
B( 31-O , 32-C ) :   1.3660 B( 31-O , 33-O ) :   0.1075 B( 32-C , 33-O ) :   1.8446
B( 32-C , 34-C ) :   0.9178 B( 34-C , 35-H ) :   0.9233 B( 34-C , 36-H ) :   0.9243
B( 34-C , 37-H ) :   0.9212

Dispersion correction           -0.026194779
FINAL SINGLE POINT ENERGY      -988.446456497726
Dispersion correction            ... done

DIPOLE MOMENT
-------------
                                X             Y             Z
Electronic contribution:     11.33331       7.89590      -0.83142
Nuclear contribution   :    -12.33858      -5.53023       1.70499
                        -----------------------------------------
Total Dipole Moment    :     -1.00527       2.36567       0.87357
                        -----------------------------------------
Magnitude (a.u.)       :      2.71479
Magnitude (Debye)      :      6.90044

Rotational constants in cm-1:     0.015056     0.008509     0.006261
Rotational constants in MHz :   451.362817   255.089054   187.701963

                             ****ORCA TERMINATED NORMALLY****
TOTAL RUN TIME: 0 days 0 hours 8 minutes 42 seconds 930 msec
