                         Program Version 5.0.3 -  RELEASE  -
|  1> ! EnGrad PBEh-3c
|  2> %output
|  3> xyzfile=True
|  4> end
|  5> %scf
|  6> maxiter 250
|  7> end
|  8> %output
|  9> Print[P_Hirshfeld] = 1
| 10> end
| 11> % maxcore
| 12> 4000
| 13> *xyz 0 1
| 14> Pd   0.22598359   0.20300597   0.14851906
| 15> O    1.79028443   1.49065885   0.59787837
| 16> C    1.67453966   2.66899015   0.45446135
| 17> O    0.19106351   3.34767742   0.06468595
| 18> C    2.95765264   3.48795178   0.72182008
| 19> H    2.61889611   4.40561669   1.17087727
| 20> H    3.39651682   3.69322245  -0.24562215
| 21> H    3.73166661   2.99997065   1.36984921
| 22> N   -1.29160785  -0.99726387  -0.89214243
| 23> C   -0.84916117  -2.38454968  -1.22788015
| 24> H   -0.02422934  -2.33582025  -1.94792739
| 25> H   -1.72553406  -2.89570177  -1.65356714
| 26> H   -0.54383857  -2.86673418  -0.29884914
| 27> C   -1.77111810  -0.36337669  -2.16105499
| 28> H   -1.92946375   0.70485269  -2.00943886
| 29> H   -2.72911119  -0.83873696  -2.41864283
| 30> H   -1.02650962  -0.48390761  -2.95104831
| 31> C   -1.82403599  -1.02961600   1.51477449
| 32> C   -2.49082411  -1.83776675   2.48135605
| 33> C   -2.13796106  -1.74812628   3.81548333
| 34> C   -1.10699394  -0.86204661   4.12082992
| 35> C   -0.46072705  -0.08377594   3.10794153
| 36> C   -0.62699647  -0.27022261   1.69218928
| 37> H   -0.80179155  -0.77143938   5.17861365
| 38> H    0.26203029   0.67279804   3.49074926
| 39> H   -3.33047087  -2.51179620   2.22453177
| 40> H   -2.63817826  -2.32732856   4.58453962
| 41> H    0.08779150   3.30920732   0.54613555
| 42> C   -2.39704495  -1.02481586   0.12697402
| 43> H   -2.95888644  -0.09724034  -0.02535007
| 44> H   -3.04578941  -1.86469998  -0.14639944
| 45> O    1.33615274   0.66169475  -1.90544748
| 46> C    2.09362588  -0.24558022  -2.45113545
| 47> O    2.14540843  -1.45284411  -2.22078927
| 48> C    3.09393514   0.31320460  -3.52977818
| 49> H    3.45999637  -0.50363054  -4.16033458
| 50> H    3.96363017   0.72928893  -3.00888068
| 51> H    2.67818908   1.11261182  -4.15806918
| 52> *
| 53>
| 54>                          ****END OF INPUT****

CARTESIAN COORDINATES (ANGSTROEM)
---------------------------------
  Pd     0.225984    0.203006    0.148519
  O      1.790284    1.490659    0.597878
  C      1.674540    2.668990    0.454461
  O      0.191064    3.347677    0.064686
  C      2.957653    3.487952    0.721820
  H      2.618896    4.405617    1.170877
  H      3.396517    3.693222   -0.245622
  H      3.731667    2.999971    1.369849
  N     -1.291608   -0.997264   -0.892142
  C     -0.849161   -2.384550   -1.227880
  H     -0.024229   -2.335820   -1.947927
  H     -1.725534   -2.895702   -1.653567
  H     -0.543839   -2.866734   -0.298849
  C     -1.771118   -0.363377   -2.161055
  H     -1.929464    0.704853   -2.009439
  H     -2.729111   -0.838737   -2.418643
  H     -1.026510   -0.483908   -2.951048
  C     -1.824036   -1.029616    1.514774
  C     -2.490824   -1.837767    2.481356
  C     -2.137961   -1.748126    3.815483
  C     -1.106994   -0.862047    4.120830
  C     -0.460727   -0.083776    3.107942
  C     -0.626996   -0.270223    1.692189
  H     -0.801792   -0.771439    5.178614
  H      0.262030    0.672798    3.490749
  H     -3.330471   -2.511796    2.224532
  H     -2.638178   -2.327329    4.584540
  H      0.087791    3.309207    0.546136
  C     -2.397045   -1.024816    0.126974
  H     -2.958886   -0.097240   -0.025350
  H     -3.045789   -1.864700   -0.146399
  O      1.336153    0.661695   -1.905447
  C      2.093626   -0.245580   -2.451135
  O      2.145408   -1.452844   -2.220789
  C      3.093935    0.313205   -3.529778
  H      3.459996   -0.503631   -4.160335
  H      3.963630    0.729289   -3.008881
  H      2.678189    1.112612   -4.158069

 Total Charge           Charge          ....    0
 Multiplicity           Mult            ....    1
 Number of Electrons    NEL             ....  154
 Basis Dimension        Dim             ....  339

ORBITAL ENERGIES
----------------

  NO   OCC          E(Eh)            E(eV)
   0   2.0000     -19.609862      -533.6115
   1   2.0000     -19.533998      -531.5471
   2   2.0000     -19.426892      -528.6326
   3   2.0000     -19.404768      -528.0306
   4   2.0000     -14.710033      -400.2803
   5   2.0000     -10.667637      -290.2812
   6   2.0000     -10.507797      -285.9317
   7   2.0000     -10.505250      -285.8624
   8   2.0000     -10.486009      -285.3388
   9   2.0000     -10.473784      -285.0062
  10   2.0000     -10.464991      -284.7669
  11   2.0000     -10.462906      -284.7101
  12   2.0000     -10.461591      -284.6744
  13   2.0000     -10.457785      -284.5708
  14   2.0000     -10.451771      -284.4071
  15   2.0000     -10.451049      -284.3875
  16   2.0000     -10.444574      -284.2113
  17   2.0000     -10.396815      -282.9117
  18   2.0000      -3.662500       -99.6617
  19   2.0000      -2.314180       -62.9720
  20   2.0000      -2.303204       -62.6734
  21   2.0000      -2.275333       -61.9150
  22   2.0000      -1.346049       -36.6279
  23   2.0000      -1.269429       -34.5429
  24   2.0000      -1.101325       -29.9686
  25   2.0000      -1.053138       -28.6573
  26   2.0000      -1.011847       -27.5337
  27   2.0000      -0.947064       -25.7709
  28   2.0000      -0.885994       -24.1091
  29   2.0000      -0.861664       -23.4471
  30   2.0000      -0.829404       -22.5692
  31   2.0000      -0.799900       -21.7664
  32   2.0000      -0.777298       -21.1514
  33   2.0000      -0.759538       -20.6681
  34   2.0000      -0.708838       -19.2885
  35   2.0000      -0.698103       -18.9963
  36   2.0000      -0.675361       -18.3775
  37   2.0000      -0.651634       -17.7319
  38   2.0000      -0.647053       -17.6072
  39   2.0000      -0.588300       -16.0085
  40   2.0000      -0.585939       -15.9442
  41   2.0000      -0.578879       -15.7521
  42   2.0000      -0.557196       -15.1621
  43   2.0000      -0.554794       -15.0967
  44   2.0000      -0.552018       -15.0212
  45   2.0000      -0.541983       -14.7481
  46   2.0000      -0.531635       -14.4665
  47   2.0000      -0.512198       -13.9376
  48   2.0000      -0.505667       -13.7599
  49   2.0000      -0.501426       -13.6445
  50   2.0000      -0.495467       -13.4823
  51   2.0000      -0.475828       -12.9479
  52   2.0000      -0.472105       -12.8466
  53   2.0000      -0.461114       -12.5475
  54   2.0000      -0.455868       -12.4048
  55   2.0000      -0.454010       -12.3542
  56   2.0000      -0.451339       -12.2816
  57   2.0000      -0.445698       -12.1280
  58   2.0000      -0.436862       -11.8876
  59   2.0000      -0.430766       -11.7217
  60   2.0000      -0.427451       -11.6315
  61   2.0000      -0.424610       -11.5542
  62   2.0000      -0.414740       -11.2856
  63   2.0000      -0.405084       -11.0229
  64   2.0000      -0.398079       -10.8323
  65   2.0000      -0.391374       -10.6498
  66   2.0000      -0.381094       -10.3701
  67   2.0000      -0.368355       -10.0234
  68   2.0000      -0.366172        -9.9640
  69   2.0000      -0.348277        -9.4771
  70   2.0000      -0.339293        -9.2326
  71   2.0000      -0.300292        -8.1714
  72   2.0000      -0.278046        -7.5660
  73   2.0000      -0.275986        -7.5100
  74   2.0000      -0.275405        -7.4942
  75   2.0000      -0.265233        -7.2174
  76   2.0000      -0.254597        -6.9279
  77   0.0000      -0.057533        -1.5655
  78   0.0000      -0.042999        -1.1701
  79   0.0000      -0.001008        -0.0274
  80   0.0000       0.006495         0.1768
  81   0.0000       0.015191         0.4134

MULLIKEN ATOMIC CHARGES
-----------------------
   0 Pd:    0.400782
   1 O :   -0.280492
   2 C :    0.545018
   3 O :   -0.339716
   4 C :   -0.725290
   5 H :    0.261577
   6 H :    0.298966
   7 H :    0.287535
   8 N :   -0.466050
   9 C :   -0.522988
  10 H :    0.313695
  11 H :    0.203877
  12 H :    0.265331
  13 C :   -0.512019
  14 H :    0.268705
  15 H :    0.216655
  16 H :    0.281362
  17 C :    0.056839
  18 C :   -0.256975
  19 C :   -0.221269
  20 C :   -0.208528
  21 C :   -0.320049
  22 C :   -0.077114
  23 H :    0.215626
  24 H :    0.197130
  25 H :    0.209732
  26 H :    0.222652
  27 H :    0.138455
  28 C :   -0.329408
  29 H :    0.263483
  30 H :    0.228192
  31 O :   -0.564699
  32 C :    0.524954
  33 O :   -0.489128
  34 C :   -0.735721
  35 H :    0.225237
  36 H :    0.209919
  37 H :    0.213725
Sum of atomic charges:   -0.0000000

LOEWDIN ATOMIC CHARGES
----------------------
   0 Pd:   -0.333291
   1 O :    0.052533
   2 C :    0.358271
   3 O :   -0.287250
   4 C :   -0.358254
   5 H :    0.158654
   6 H :    0.182479
   7 H :    0.175840
   8 N :   -0.053580
   9 C :   -0.234355
  10 H :    0.173446
  11 H :    0.115184
  12 H :    0.151855
  13 C :   -0.230495
  14 H :    0.150760
  15 H :    0.121656
  16 H :    0.159984
  17 C :   -0.041958
  18 C :   -0.140084
  19 C :   -0.144039
  20 C :   -0.140739
  21 C :   -0.120368
  22 C :   -0.013977
  23 H :    0.136121
  24 H :    0.133856
  25 H :    0.136819
  26 H :    0.136666
  27 H :    0.112428
  28 C :   -0.105800
  29 H :    0.150362
  30 H :    0.128114
  31 O :   -0.314621
  32 C :    0.108465
  33 O :   -0.312011
  34 C :   -0.405822
  35 H :    0.132708
  36 H :    0.132530
  37 H :    0.127911

  Mayer bond orders larger than 0.100000
B(  0-Pd,  1-O ) :   0.3046 B(  0-Pd,  8-N ) :   0.4596 B(  0-Pd, 22-C ) :   1.0005
B(  0-Pd, 31-O ) :   0.3998 B(  1-O ,  2-C ) :   1.9077 B(  2-C ,  3-O ) :   0.9112
B(  2-C ,  4-C ) :   0.9363 B(  3-O , 27-H ) :   0.9981 B(  4-C ,  5-H ) :   0.8978
B(  4-C ,  6-H ) :   0.8769 B(  4-C ,  7-H ) :   0.8938 B(  8-N ,  9-C ) :   0.9091
B(  8-N , 13-C ) :   0.9154 B(  8-N , 28-C ) :   0.8778 B(  9-C , 10-H ) :   0.8600
B(  9-C , 11-H ) :   0.9053 B(  9-C , 12-H ) :   0.9025 B( 13-C , 14-H ) :   0.9030
B( 13-C , 15-H ) :   0.9029 B( 13-C , 16-H ) :   0.8970 B( 17-C , 18-C ) :   1.3808
B( 17-C , 22-C ) :   1.2894 B( 17-C , 28-C ) :   0.9764 B( 18-C , 19-C ) :   1.4311
B( 18-C , 25-H ) :   0.9238 B( 19-C , 20-C ) :   1.4301 B( 19-C , 26-H ) :   0.9137
B( 20-C , 21-C ) :   1.4170 B( 20-C , 23-H ) :   0.9192 B( 21-C , 22-C ) :   1.3276
B( 21-C , 24-H ) :   0.9238 B( 28-C , 29-H ) :   0.8919 B( 28-C , 30-H ) :   0.9035
B( 31-O , 32-C ) :   1.4018 B( 31-O , 33-O ) :   0.1128 B( 32-C , 33-O ) :   1.8315
B( 32-C , 34-C ) :   0.9048 B( 34-C , 35-H ) :   0.9238 B( 34-C , 36-H ) :   0.9268
B( 34-C , 37-H ) :   0.9233

Dispersion correction           -0.026072354
FINAL SINGLE POINT ENERGY      -987.564435056571
Dispersion correction            ... done

DIPOLE MOMENT
-------------
                                X             Y             Z
Electronic contribution:      8.41669      10.52279       9.10033
Nuclear contribution   :     -9.16882      -9.00098      -7.69764
                        -----------------------------------------
Total Dipole Moment    :     -0.75213       1.52181       1.40269
                        -----------------------------------------
Magnitude (a.u.)       :      2.20208
Magnitude (Debye)      :      5.59724

Rotational constants in cm-1:     0.014333     0.008470     0.006319
Rotational constants in MHz :   429.688003   253.913343   189.427139

                             ****ORCA TERMINATED NORMALLY****
TOTAL RUN TIME: 0 days 0 hours 9 minutes 21 seconds 372 msec
