                         Program Version 5.0.3 -  RELEASE  -
|  1> ! EnGrad PBEh-3c
|  2> %output
|  3> xyzfile=True
|  4> end
|  5> %scf
|  6> maxiter 250
|  7> end
|  8> %output
|  9> Print[P_Hirshfeld] = 1
| 10> end
| 11> % maxcore
| 12> 4000
| 13> *xyz 0 1
| 14> Pd   0.27011898   0.15542858   0.02867667
| 15> O    1.84846159   1.35430237   0.67725710
| 16> C    1.78220529   2.55143278   0.51302600
| 17> O    0.47267200   3.16645645   0.00969059
| 18> C    3.00443130   3.40578423   0.76353943
| 19> H    2.69322049   4.34513464   1.19569645
| 20> H    3.46087042   3.62073463  -0.20337098
| 21> H    3.75018398   2.91931970   1.39507039
| 22> N   -1.25502818  -1.03355404  -0.89423873
| 23> C   -0.79891086  -2.42637562  -1.12217240
| 24> H    0.04221362  -2.42778291  -1.80503227
| 25> H   -1.62680651  -2.99381944  -1.55727060
| 26> H   -0.50808102  -2.86267795  -0.17306433
| 27> C   -1.72366206  -0.49042594  -2.18999240
| 28> H   -1.91162810   0.57531480  -2.10093739
| 29> H   -2.64785313  -1.00001810  -2.47263787
| 30> H   -0.97334107  -0.65185322  -2.95662332
| 31> C   -1.89036269  -1.01709622   1.50444761
| 32> C   -2.59615938  -1.72585674   2.49248680
| 33> C   -2.21693908  -1.62239109   3.82299657
| 34> C   -1.12461145  -0.83730225   4.13606075
| 35> C   -0.42644937  -0.15936533   3.12707358
| 36> C   -0.70167544  -0.26819802   1.71958515
| 37> H   -0.80741019  -0.75009298   5.18079671
| 38> H    0.39982890   0.43160270   3.47659185
| 39> H   -3.46280582  -2.33253549   2.25298733
| 40> H   -2.75232066  -2.14293697   4.59820061
| 41> H   -0.12558652   3.73291143   0.44521150
| 42> C   -2.39024270  -1.02135997   0.09536561
| 43> H   -2.94721879  -0.10343889  -0.08754788
| 44> H   -3.05338261  -1.85753470  -0.13612476
| 45> O    1.29726554   0.71597887  -1.89639175
| 46> C    2.04076158  -0.14847488  -2.50645896
| 47> O    2.08966092  -1.35500938  -2.30158779
| 48> C    3.00099254   0.45471506  -3.57173142
| 49> H    3.36049185  -0.32627211  -4.23930966
| 50> H    3.86918823   0.87092958  -3.05826859
| 51> H    2.55695474   1.25555339  -4.16212752
| 52> *
| 53>
| 54>                          ****END OF INPUT****

CARTESIAN COORDINATES (ANGSTROEM)
---------------------------------
  Pd     0.270119    0.155429    0.028677
  O      1.848462    1.354302    0.677257
  C      1.782205    2.551433    0.513026
  O      0.472672    3.166456    0.009691
  C      3.004431    3.405784    0.763539
  H      2.693220    4.345135    1.195696
  H      3.460870    3.620735   -0.203371
  H      3.750184    2.919320    1.395070
  N     -1.255028   -1.033554   -0.894239
  C     -0.798911   -2.426376   -1.122172
  H      0.042214   -2.427783   -1.805032
  H     -1.626807   -2.993819   -1.557271
  H     -0.508081   -2.862678   -0.173064
  C     -1.723662   -0.490426   -2.189992
  H     -1.911628    0.575315   -2.100937
  H     -2.647853   -1.000018   -2.472638
  H     -0.973341   -0.651853   -2.956623
  C     -1.890363   -1.017096    1.504448
  C     -2.596159   -1.725857    2.492487
  C     -2.216939   -1.622391    3.822997
  C     -1.124611   -0.837302    4.136061
  C     -0.426449   -0.159365    3.127074
  C     -0.701675   -0.268198    1.719585
  H     -0.807410   -0.750093    5.180797
  H      0.399829    0.431603    3.476592
  H     -3.462806   -2.332535    2.252987
  H     -2.752321   -2.142937    4.598201
  H     -0.125587    3.732911    0.445211
  C     -2.390243   -1.021360    0.095366
  H     -2.947219   -0.103439   -0.087548
  H     -3.053383   -1.857535   -0.136125
  O      1.297266    0.715979   -1.896392
  C      2.040762   -0.148475   -2.506459
  O      2.089661   -1.355009   -2.301588
  C      3.000993    0.454715   -3.571731
  H      3.360492   -0.326272   -4.239310
  H      3.869188    0.870930   -3.058269
  H      2.556955    1.255553   -4.162128

 Total Charge           Charge          ....    0
 Multiplicity           Mult            ....    1
 Number of Electrons    NEL             ....  154
 Basis Dimension        Dim             ....  339

ORBITAL ENERGIES
----------------

  NO   OCC          E(Eh)            E(eV)
   0   2.0000     -19.579501      -532.7853
   1   2.0000     -19.539631      -531.7004
   2   2.0000     -19.429492      -528.7034
   3   2.0000     -19.403772      -528.0035
   4   2.0000     -14.707470      -400.2106
   5   2.0000     -10.656238      -289.9710
   6   2.0000     -10.506098      -285.8855
   7   2.0000     -10.490713      -285.4668
   8   2.0000     -10.479265      -285.1553
   9   2.0000     -10.467873      -284.8453
  10   2.0000     -10.455365      -284.5050
  11   2.0000     -10.448141      -284.3084
  12   2.0000     -10.447325      -284.2862
  13   2.0000     -10.440582      -284.1027
  14   2.0000     -10.438318      -284.0411
  15   2.0000     -10.437361      -284.0150
  16   2.0000     -10.434632      -283.9408
  17   2.0000     -10.396754      -282.9101
  18   2.0000      -3.642341       -99.1131
  19   2.0000      -2.288920       -62.2847
  20   2.0000      -2.285708       -62.1973
  21   2.0000      -2.253951       -61.3331
  22   2.0000      -1.245552       -33.8932
  23   2.0000      -1.136159       -30.9165
  24   2.0000      -1.108769       -30.1711
  25   2.0000      -1.054043       -28.6820
  26   2.0000      -1.015439       -27.6315
  27   2.0000      -0.940548       -25.5936
  28   2.0000      -0.882167       -24.0050
  29   2.0000      -0.858446       -23.3595
  30   2.0000      -0.817354       -22.2413
  31   2.0000      -0.800344       -21.7785
  32   2.0000      -0.774215       -21.0674
  33   2.0000      -0.766818       -20.8662
  34   2.0000      -0.714443       -19.4410
  35   2.0000      -0.697383       -18.9768
  36   2.0000      -0.669379       -18.2147
  37   2.0000      -0.642220       -17.4757
  38   2.0000      -0.638610       -17.3775
  39   2.0000      -0.576919       -15.6988
  40   2.0000      -0.574283       -15.6270
  41   2.0000      -0.565584       -15.3903
  42   2.0000      -0.553813       -15.0700
  43   2.0000      -0.551543       -15.0082
  44   2.0000      -0.545364       -14.8401
  45   2.0000      -0.528473       -14.3805
  46   2.0000      -0.517346       -14.0777
  47   2.0000      -0.505478       -13.7548
  48   2.0000      -0.493288       -13.4230
  49   2.0000      -0.487942       -13.2776
  50   2.0000      -0.474370       -12.9083
  51   2.0000      -0.469061       -12.7638
  52   2.0000      -0.463022       -12.5995
  53   2.0000      -0.459891       -12.5143
  54   2.0000      -0.455742       -12.4014
  55   2.0000      -0.452977       -12.3261
  56   2.0000      -0.448030       -12.1915
  57   2.0000      -0.438737       -11.9387
  58   2.0000      -0.430041       -11.7020
  59   2.0000      -0.424877       -11.5615
  60   2.0000      -0.417054       -11.3486
  61   2.0000      -0.408466       -11.1149
  62   2.0000      -0.403468       -10.9789
  63   2.0000      -0.399555       -10.8725
  64   2.0000      -0.386191       -10.5088
  65   2.0000      -0.381585       -10.3835
  66   2.0000      -0.367257        -9.9936
  67   2.0000      -0.361085        -9.8256
  68   2.0000      -0.342434        -9.3181
  69   2.0000      -0.337784        -9.1916
  70   2.0000      -0.323694        -8.8082
  71   2.0000      -0.283278        -7.7084
  72   2.0000      -0.280839        -7.6420
  73   2.0000      -0.275506        -7.4969
  74   2.0000      -0.274555        -7.4710
  75   2.0000      -0.259636        -7.0651
  76   2.0000      -0.254926        -6.9369
  77   0.0000      -0.031596        -0.8598
  78   0.0000      -0.028889        -0.7861
  79   0.0000       0.018460         0.5023
  80   0.0000       0.026771         0.7285
  81   0.0000       0.047791         1.3005

MULLIKEN ATOMIC CHARGES
-----------------------
   0 Pd:    0.372372
   1 O :   -0.333171
   2 C :    0.664263
   3 O :   -0.672085
   4 C :   -0.736075
   5 H :    0.253877
   6 H :    0.292018
   7 H :    0.285095
   8 N :   -0.474277
   9 C :   -0.538615
  10 H :    0.317706
  11 H :    0.206983
  12 H :    0.271300
  13 C :   -0.511493
  14 H :    0.265200
  15 H :    0.218056
  16 H :    0.281183
  17 C :    0.060085
  18 C :   -0.257334
  19 C :   -0.235407
  20 C :   -0.197104
  21 C :   -0.322690
  22 C :   -0.081269
  23 H :    0.210996
  24 H :    0.202869
  25 H :    0.204236
  26 H :    0.214969
  27 H :    0.461332
  28 C :   -0.321137
  29 H :    0.260472
  30 H :    0.225895
  31 O :   -0.554680
  32 C :    0.530105
  33 O :   -0.484338
  34 C :   -0.740383
  35 H :    0.228240
  36 H :    0.214935
  37 H :    0.217874
Sum of atomic charges:   -0.0000000

LOEWDIN ATOMIC CHARGES
----------------------
   0 Pd:   -0.381566
   1 O :    0.008258
   2 C :    0.320700
   3 O :   -0.386884
   4 C :   -0.365999
   5 H :    0.155384
   6 H :    0.181042
   7 H :    0.170201
   8 N :   -0.040054
   9 C :   -0.237311
  10 H :    0.172245
  11 H :    0.115422
  12 H :    0.153793
  13 C :   -0.229478
  14 H :    0.149637
  15 H :    0.120638
  16 H :    0.158611
  17 C :   -0.054641
  18 C :   -0.141146
  19 C :   -0.143419
  20 C :   -0.142739
  21 C :   -0.125912
  22 C :   -0.023155
  23 H :    0.133671
  24 H :    0.133082
  25 H :    0.133521
  26 H :    0.132761
  27 H :    0.337788
  28 C :   -0.104322
  29 H :    0.148748
  30 H :    0.126846
  31 O :   -0.277871
  32 C :    0.105822
  33 O :   -0.303112
  34 C :   -0.400641
  35 H :    0.134256
  36 H :    0.135711
  37 H :    0.130113

  Mayer bond orders larger than 0.100000
B(  0-Pd,  1-O ) :   0.3328 B(  0-Pd,  8-N ) :   0.4731 B(  0-Pd, 22-C ) :   0.8927
B(  0-Pd, 31-O ) :   0.4462 B(  1-O ,  2-C ) :   1.8308 B(  2-C ,  3-O ) :   0.9454
B(  2-C ,  4-C ) :   0.9560 B(  3-O , 27-H ) :   0.7341 B(  4-C ,  5-H ) :   0.9027
B(  4-C ,  6-H ) :   0.8818 B(  4-C ,  7-H ) :   0.8939 B(  8-N ,  9-C ) :   0.9116
B(  8-N , 13-C ) :   0.9196 B(  8-N , 28-C ) :   0.8809 B(  9-C , 10-H ) :   0.8574
B(  9-C , 11-H ) :   0.9064 B(  9-C , 12-H ) :   0.8997 B( 13-C , 14-H ) :   0.9057
B( 13-C , 15-H ) :   0.9025 B( 13-C , 16-H ) :   0.8973 B( 17-C , 18-C ) :   1.3906
B( 17-C , 22-C ) :   1.3141 B( 17-C , 28-C ) :   0.9780 B( 18-C , 19-C ) :   1.4369
B( 18-C , 25-H ) :   0.9250 B( 19-C , 20-C ) :   1.4300 B( 19-C , 26-H ) :   0.9170
B( 20-C , 21-C ) :   1.4275 B( 20-C , 23-H ) :   0.9200 B( 21-C , 22-C ) :   1.3619
B( 21-C , 24-H ) :   0.9218 B( 28-C , 29-H ) :   0.8939 B( 28-C , 30-H ) :   0.9056
B( 31-O , 32-C ) :   1.3780 B( 31-O , 33-O ) :   0.1092 B( 32-C , 33-O ) :   1.8402
B( 32-C , 34-C ) :   0.9137 B( 34-C , 35-H ) :   0.9235 B( 34-C , 36-H ) :   0.9252
B( 34-C , 37-H ) :   0.9219

Dispersion correction           -0.026070600
FINAL SINGLE POINT ENERGY      -988.480311855596
Dispersion correction            ... done

DIPOLE MOMENT
-------------
                                X             Y             Z
Electronic contribution:     10.41511       8.78844       2.37605
Nuclear contribution   :    -11.31950      -6.64608      -1.31797
                        -----------------------------------------
Total Dipole Moment    :     -0.90438       2.14235       1.05808
                        -----------------------------------------
Magnitude (a.u.)       :      2.55482
Magnitude (Debye)      :      6.49385

Rotational constants in cm-1:     0.014850     0.008505     0.006284
Rotational constants in MHz :   445.198214   254.980327   188.384069

                             ****ORCA TERMINATED NORMALLY****
TOTAL RUN TIME: 0 days 0 hours 9 minutes 55 seconds 880 msec
