                         Program Version 5.0.3 -  RELEASE  -
|  1> ! EnGrad PBEh-3c
|  2> %output
|  3> xyzfile=True
|  4> end
|  5> %scf
|  6> maxiter 250
|  7> end
|  8> %output
|  9> Print[P_Hirshfeld] = 1
| 10> end
| 11> % maxcore
| 12> 4000
| 13> *xyz -1 1
| 14> Pd  -2.00924209  -1.49469709   0.55569143
| 15> Cl  -2.95753172  -3.31820830  -0.55333341
| 16> Cl   0.27940160  -5.24238413   0.13124770
| 17> Cl  -3.79078410  -1.48802243   2.00689530
| 18> N   -1.10489035   0.18912797   1.35006184
| 19> C   -1.47903646   0.79830093   2.45867312
| 20> C   -0.90431659   1.99519576   2.89398056
| 21> C    0.09142190   2.56944717   2.14129303
| 22> C   -0.11622695   0.72917177   0.60380612
| 23> C    0.51024930   1.93615972   0.96417481
| 24> H    0.54896612   3.50097635   2.45349506
| 25> H   -2.24723949   0.30114447   3.03507379
| 26> H   -1.24872257   2.45543045   3.80876624
| 27> C    0.27135620   0.01703594  -0.56750114
| 28> C    1.53607111   2.45220667   0.11101761
| 29> C    1.89846575   1.78863737  -1.01349433
| 30> C    1.28533661   0.54989486  -1.38778554
| 31> H    2.01948009   3.38397980   0.37732722
| 32> H    2.67682782   2.19551807  -1.64829471
| 33> C   -0.37172298  -1.20570852  -0.85696438
| 34> C    1.65702860  -0.16403932  -2.53561196
| 35> C    0.00878703  -1.86493157  -2.01185373
| 36> C    1.02869528  -1.35492974  -2.82531674
| 37> H    2.43434013   0.21986730  -3.18516201
| 38> H    1.32414065  -1.90747587  -3.70949350
| 39> H   -0.83630041  -4.27539136  -0.28115501
| 40> H   -0.50455560  -2.76630629  -2.31553851
| 41> *
| 42>
| 43>                          ****END OF INPUT****

CARTESIAN COORDINATES (ANGSTROEM)
---------------------------------
  Pd    -2.009242   -1.494697    0.555691
  Cl    -2.957532   -3.318208   -0.553333
  Cl     0.279402   -5.242384    0.131248
  Cl    -3.790784   -1.488022    2.006895
  N     -1.104890    0.189128    1.350062
  C     -1.479036    0.798301    2.458673
  C     -0.904317    1.995196    2.893981
  C      0.091422    2.569447    2.141293
  C     -0.116227    0.729172    0.603806
  C      0.510249    1.936160    0.964175
  H      0.548966    3.500976    2.453495
  H     -2.247239    0.301144    3.035074
  H     -1.248723    2.455430    3.808766
  C      0.271356    0.017036   -0.567501
  C      1.536071    2.452207    0.111018
  C      1.898466    1.788637   -1.013494
  C      1.285337    0.549895   -1.387786
  H      2.019480    3.383980    0.377327
  H      2.676828    2.195518   -1.648295
  C     -0.371723   -1.205709   -0.856964
  C      1.657029   -0.164039   -2.535612
  C      0.008787   -1.864932   -2.011854
  C      1.028695   -1.354930   -2.825317
  H      2.434340    0.219867   -3.185162
  H      1.324141   -1.907476   -3.709494
  H     -0.836300   -4.275391   -0.281155
  H     -0.504556   -2.766306   -2.315539

 Total Charge           Charge          ....   -1
 Multiplicity           Mult            ....    1
 Number of Electrons    NEL             ....  164
 Basis Dimension        Dim             ....  313

ORBITAL ENERGIES
----------------

  NO   OCC          E(Eh)            E(eV)
   0   2.0000    -102.149685     -2779.6342
   1   2.0000    -102.101899     -2778.3339
   2   2.0000    -102.076981     -2777.6559
   3   2.0000     -14.596159      -397.1817
   4   2.0000     -10.405988      -283.1613
   5   2.0000     -10.401352      -283.0352
   6   2.0000     -10.392689      -282.7994
   7   2.0000     -10.384483      -282.5761
   8   2.0000     -10.377257      -282.3795
   9   2.0000     -10.373712      -282.2831
  10   2.0000     -10.372833      -282.2591
  11   2.0000     -10.365277      -282.0535
  12   2.0000     -10.351090      -281.6675
  13   2.0000     -10.349949      -281.6364
  14   2.0000     -10.348792      -281.6049
  15   2.0000     -10.332533      -281.1625
  16   2.0000     -10.331218      -281.1267
  17   2.0000      -9.614009      -261.6105
  18   2.0000      -9.565067      -260.2787
  19   2.0000      -9.541706      -259.6430
  20   2.0000      -7.301563      -198.6856
  21   2.0000      -7.293903      -198.4772
  22   2.0000      -7.293864      -198.4761
  23   2.0000      -7.250250      -197.2893
  24   2.0000      -7.247104      -197.2037
  25   2.0000      -7.245699      -197.1655
  26   2.0000      -7.226947      -196.6552
  27   2.0000      -7.223044      -196.5490
  28   2.0000      -7.222833      -196.5433
  29   2.0000      -3.511227       -95.5453
  30   2.0000      -2.157262       -58.7021
  31   2.0000      -2.153256       -58.5931
  32   2.0000      -2.123012       -57.7701
  33   2.0000      -0.989791       -26.9336
  34   2.0000      -0.880849       -23.9691
  35   2.0000      -0.844820       -22.9887
  36   2.0000      -0.810512       -22.0551
  37   2.0000      -0.776597       -21.1323
  38   2.0000      -0.742303       -20.1991
  39   2.0000      -0.737444       -20.0669
  40   2.0000      -0.714637       -19.4463
  41   2.0000      -0.689092       -18.7511
  42   2.0000      -0.671403       -18.2698
  43   2.0000      -0.644777       -17.5453
  44   2.0000      -0.637551       -17.3486
  45   2.0000      -0.607872       -16.5410
  46   2.0000      -0.569212       -15.4891
  47   2.0000      -0.525236       -14.2924
  48   2.0000      -0.512806       -13.9541
  49   2.0000      -0.492520       -13.4022
  50   2.0000      -0.455886       -12.4053
  51   2.0000      -0.455085       -12.3835
  52   2.0000      -0.428186       -11.6515
  53   2.0000      -0.409394       -11.1402
  54   2.0000      -0.405497       -11.0341
  55   2.0000      -0.401479       -10.9248
  56   2.0000      -0.381649       -10.3852
  57   2.0000      -0.373010       -10.1501
  58   2.0000      -0.352659        -9.5963
  59   2.0000      -0.338854        -9.2207
  60   2.0000      -0.336135        -9.1467
  61   2.0000      -0.331654        -9.0248
  62   2.0000      -0.314028        -8.5451
  63   2.0000      -0.300892        -8.1877
  64   2.0000      -0.291066        -7.9203
  65   2.0000      -0.261737        -7.1222
  66   2.0000      -0.261379        -7.1125
  67   2.0000      -0.251900        -6.8545
  68   2.0000      -0.236825        -6.4443
  69   2.0000      -0.224943        -6.1210
  70   2.0000      -0.223175        -6.0729
  71   2.0000      -0.221233        -6.0201
  72   2.0000      -0.219254        -5.9662
  73   2.0000      -0.210330        -5.7234
  74   2.0000      -0.182767        -4.9734
  75   2.0000      -0.179956        -4.8968
  76   2.0000      -0.165652        -4.5076
  77   2.0000      -0.158458        -4.3119
  78   2.0000      -0.153180        -4.1682
  79   2.0000      -0.148371        -4.0374
  80   2.0000      -0.147844        -4.0230
  81   2.0000      -0.135926        -3.6987
  82   0.0000       0.047831         1.3015
  83   0.0000       0.070906         1.9295
  84   0.0000       0.104565         2.8453
  85   0.0000       0.110644         3.0108
  86   0.0000       0.147812         4.0222

MULLIKEN ATOMIC CHARGES
-----------------------
   0 Pd:    0.167986
   1 Cl:   -0.375193
   2 Cl:   -0.396706
   3 Cl:   -0.427126
   4 N :   -0.580445
   5 C :    0.026303
   6 C :   -0.332064
   7 C :   -0.159117
   8 C :    0.406387
   9 C :    0.037593
  10 H :    0.209368
  11 H :    0.287299
  12 H :    0.218742
  13 C :    0.022386
  14 C :   -0.307245
  15 C :   -0.296967
  16 C :    0.139971
  17 H :    0.192546
  18 H :    0.194421
  19 C :   -0.064368
  20 C :   -0.329436
  21 C :   -0.344973
  22 C :   -0.192714
  23 H :    0.183573
  24 H :    0.192960
  25 H :    0.300598
  26 H :    0.226220
Sum of atomic charges:   -1.0000000

LOEWDIN ATOMIC CHARGES
----------------------
   0 Pd:   -0.801880
   1 Cl:   -0.106201
   2 Cl:   -0.312039
   3 Cl:   -0.160025
   4 N :    0.043025
   5 C :   -0.000362
   6 C :   -0.173558
   7 C :   -0.089774
   8 C :    0.089260
   9 C :   -0.058308
  10 H :    0.133949
  11 H :    0.168316
  12 H :    0.139481
  13 C :   -0.036255
  14 C :   -0.145982
  15 C :   -0.114982
  16 C :   -0.036158
  17 H :    0.129080
  18 H :    0.129905
  19 C :   -0.019623
  20 C :   -0.160207
  21 C :   -0.131943
  22 C :   -0.123041
  23 H :    0.123008
  24 H :    0.125827
  25 H :    0.243065
  26 H :    0.145422

  Mayer bond orders larger than 0.100000
B(  0-Pd,  1-Cl) :   0.7404 B(  0-Pd,  3-Cl) :   0.7520 B(  0-Pd,  4-N ) :   0.4193
B(  0-Pd, 19-C ) :   0.6981 B(  1-Cl, 25-H ) :   0.1531 B(  2-Cl, 25-H ) :   0.7507
B(  3-Cl, 19-C ) :   0.1085 B(  4-N ,  5-C ) :   1.4840 B(  4-N ,  8-C ) :   1.1344
B(  5-C ,  6-C ) :   1.3059 B(  5-C , 11-H ) :   0.8580 B(  6-C ,  7-C ) :   1.4579
B(  6-C , 12-H ) :   0.9212 B(  7-C ,  9-C ) :   1.2763 B(  7-C , 10-H ) :   0.9295
B(  8-C ,  9-C ) :   1.2278 B(  8-C , 13-C ) :   1.1387 B(  9-C , 14-C ) :   1.1643
B( 13-C , 16-C ) :   1.2630 B( 13-C , 19-C ) :   1.2178 B( 14-C , 15-C ) :   1.6515
B( 14-C , 17-H ) :   0.9308 B( 15-C , 16-C ) :   1.1541 B( 15-C , 18-H ) :   0.9287
B( 16-C , 20-C ) :   1.2807 B( 19-C , 21-C ) :   1.4782 B( 20-C , 22-C ) :   1.4870
B( 20-C , 23-H ) :   0.9329 B( 21-C , 22-C ) :   1.3474 B( 21-C , 26-H ) :   0.9020
B( 22-C , 24-H ) :   0.9251

Dispersion correction           -0.023682422
FINAL SINGLE POINT ENERGY     -2061.505804959007
Dispersion correction            ... done

DIPOLE MOMENT
-------------
                                X             Y             Z
Electronic contribution:    -81.93592     -46.95563      23.24157
Nuclear contribution   :     84.46490      50.76439     -23.25730
                        -----------------------------------------
Total Dipole Moment    :      2.52898       3.80876      -0.01573
                        -----------------------------------------
Magnitude (a.u.)       :      4.57194
Magnitude (Debye)      :     11.62095

Rotational constants in cm-1:     0.010625     0.007590     0.005133
Rotational constants in MHz :   318.528629   227.553529   153.885748

                             ****ORCA TERMINATED NORMALLY****
TOTAL RUN TIME: 0 days 0 hours 8 minutes 29 seconds 187 msec
