                         Program Version 5.0.3 -  RELEASE  -
|  1> ! EnGrad PBEh-3c
|  2> %output
|  3> xyzfile=True
|  4> end
|  5> %scf
|  6> maxiter 250
|  7> end
|  8> %output
|  9> Print[P_Hirshfeld] = 1
| 10> end
| 11> % maxcore
| 12> 4000
| 13> *xyz -1 1
| 14> Pd  -1.93031253  -1.48581543   0.46434865
| 15> Cl  -2.93947363  -3.31615150  -0.54274538
| 16> Cl   0.12971327  -5.11809252   0.14708608
| 17> Cl  -3.83937149  -1.44078744   1.99788051
| 18> N   -1.10759226   0.17520660   1.35977135
| 19> C   -1.46809191   0.77975069   2.47560614
| 20> C   -0.89412333   1.98274344   2.89286203
| 21> C    0.08836635   2.55918471   2.14206820
| 22> C   -0.11136062   0.71999849   0.59908479
| 23> C    0.51119173   1.93650752   0.96522166
| 24> H    0.54931829   3.49476814   2.45160043
| 25> H   -2.23829850   0.28381729   3.04092265
| 26> H   -1.24214633   2.44004231   3.81685983
| 27> C    0.28220892  -0.00224526  -0.57509163
| 28> C    1.52892910   2.44759312   0.10371503
| 29> C    1.88933607   1.79386997  -1.01650409
| 30> C    1.28922750   0.55657218  -1.39175670
| 31> H    2.00849069   3.38734332   0.37558769
| 32> H    2.66588667   2.20479408  -1.65584708
| 33> C   -0.44268199  -1.21995395  -0.80427040
| 34> C    1.65864136  -0.16172754  -2.53868025
| 35> C    0.01852675  -1.86292989  -2.00497203
| 36> C    1.04003419  -1.35382750  -2.83575182
| 37> H    2.43277578   0.23307902  -3.19083869
| 38> H    1.33711779  -1.90116140  -3.71831390
| 39> H   -0.72963264  -4.35594673  -0.23506750
| 40> H   -0.48932299  -2.77752339  -2.31927781
| 41> *
| 42>
| 43>                          ****END OF INPUT****

CARTESIAN COORDINATES (ANGSTROEM)
---------------------------------
  Pd    -1.930313   -1.485815    0.464349
  Cl    -2.939474   -3.316151   -0.542745
  Cl     0.129713   -5.118093    0.147086
  Cl    -3.839371   -1.440787    1.997881
  N     -1.107592    0.175207    1.359771
  C     -1.468092    0.779751    2.475606
  C     -0.894123    1.982743    2.892862
  C      0.088366    2.559185    2.142068
  C     -0.111361    0.719998    0.599085
  C      0.511192    1.936508    0.965222
  H      0.549318    3.494768    2.451600
  H     -2.238298    0.283817    3.040923
  H     -1.242146    2.440042    3.816860
  C      0.282209   -0.002245   -0.575092
  C      1.528929    2.447593    0.103715
  C      1.889336    1.793870   -1.016504
  C      1.289227    0.556572   -1.391757
  H      2.008491    3.387343    0.375588
  H      2.665887    2.204794   -1.655847
  C     -0.442682   -1.219954   -0.804270
  C      1.658641   -0.161728   -2.538680
  C      0.018527   -1.862930   -2.004972
  C      1.040034   -1.353827   -2.835752
  H      2.432776    0.233079   -3.190839
  H      1.337118   -1.901161   -3.718314
  H     -0.729633   -4.355947   -0.235067
  H     -0.489323   -2.777523   -2.319278

 Total Charge           Charge          ....   -1
 Multiplicity           Mult            ....    1
 Number of Electrons    NEL             ....  164
 Basis Dimension        Dim             ....  313

ORBITAL ENERGIES
----------------

  NO   OCC          E(Eh)            E(eV)
   0   2.0000    -102.154282     -2779.7593
   1   2.0000    -102.088913     -2777.9806
   2   2.0000    -102.060858     -2777.2171
   3   2.0000     -14.594842      -397.1458
   4   2.0000     -10.405223      -283.1405
   5   2.0000     -10.399298      -282.9793
   6   2.0000     -10.390278      -282.7338
   7   2.0000     -10.382299      -282.5167
   8   2.0000     -10.375241      -282.3247
   9   2.0000     -10.372445      -282.2486
  10   2.0000     -10.371603      -282.2257
  11   2.0000     -10.366095      -282.0758
  12   2.0000     -10.353755      -281.7400
  13   2.0000     -10.351684      -281.6836
  14   2.0000     -10.349193      -281.6159
  15   2.0000     -10.344901      -281.4991
  16   2.0000     -10.338524      -281.3255
  17   2.0000      -9.626157      -261.9411
  18   2.0000      -9.552620      -259.9400
  19   2.0000      -9.524455      -259.1736
  20   2.0000      -7.313158      -199.0011
  21   2.0000      -7.305629      -198.7963
  22   2.0000      -7.305581      -198.7950
  23   2.0000      -7.238161      -196.9604
  24   2.0000      -7.234125      -196.8505
  25   2.0000      -7.233400      -196.8308
  26   2.0000      -7.209404      -196.1778
  27   2.0000      -7.206115      -196.0884
  28   2.0000      -7.205907      -196.0827
  29   2.0000      -3.516667       -95.6934
  30   2.0000      -2.163049       -58.8595
  31   2.0000      -2.158507       -58.7360
  32   2.0000      -2.128556       -57.9209
  33   2.0000      -0.984551       -26.7910
  34   2.0000      -0.879523       -23.9330
  35   2.0000      -0.843018       -22.9397
  36   2.0000      -0.807913       -21.9844
  37   2.0000      -0.800302       -21.7773
  38   2.0000      -0.776263       -21.1232
  39   2.0000      -0.735621       -20.0173
  40   2.0000      -0.711842       -19.3702
  41   2.0000      -0.679155       -18.4807
  42   2.0000      -0.651592       -17.7307
  43   2.0000      -0.642657       -17.4876
  44   2.0000      -0.634393       -17.2627
  45   2.0000      -0.605333       -16.4719
  46   2.0000      -0.569117       -15.4865
  47   2.0000      -0.525799       -14.3077
  48   2.0000      -0.510228       -13.8840
  49   2.0000      -0.490965       -13.3598
  50   2.0000      -0.456461       -12.4209
  51   2.0000      -0.451752       -12.2928
  52   2.0000      -0.425189       -11.5700
  53   2.0000      -0.408911       -11.1270
  54   2.0000      -0.402833       -10.9617
  55   2.0000      -0.400880       -10.9085
  56   2.0000      -0.394056       -10.7228
  57   2.0000      -0.380260       -10.3474
  58   2.0000      -0.370929       -10.0935
  59   2.0000      -0.349643        -9.5143
  60   2.0000      -0.338507        -9.2113
  61   2.0000      -0.336046        -9.1443
  62   2.0000      -0.311336        -8.4719
  63   2.0000      -0.300926        -8.1886
  64   2.0000      -0.286526        -7.7968
  65   2.0000      -0.272287        -7.4093
  66   2.0000      -0.260932        -7.1003
  67   2.0000      -0.245175        -6.6716
  68   2.0000      -0.244352        -6.6492
  69   2.0000      -0.243048        -6.6137
  70   2.0000      -0.240035        -6.5317
  71   2.0000      -0.218642        -5.9496
  72   2.0000      -0.216434        -5.8895
  73   2.0000      -0.205647        -5.5959
  74   2.0000      -0.181569        -4.9408
  75   2.0000      -0.179075        -4.8729
  76   2.0000      -0.162857        -4.4316
  77   2.0000      -0.157867        -4.2958
  78   2.0000      -0.147395        -4.0108
  79   2.0000      -0.145278        -3.9532
  80   2.0000      -0.137590        -3.7440
  81   2.0000      -0.130682        -3.5561
  82   0.0000       0.049369         1.3434
  83   0.0000       0.070958         1.9309
  84   0.0000       0.109974         2.9926
  85   0.0000       0.112334         3.0568
  86   0.0000       0.147936         4.0256

MULLIKEN ATOMIC CHARGES
-----------------------
   0 Pd:    0.191030
   1 Cl:   -0.389604
   2 Cl:   -0.369822
   3 Cl:   -0.479857
   4 N :   -0.581085
   5 C :    0.027893
   6 C :   -0.339498
   7 C :   -0.152448
   8 C :    0.380316
   9 C :    0.050451
  10 H :    0.207362
  11 H :    0.291331
  12 H :    0.217574
  13 C :    0.016431
  14 C :   -0.308768
  15 C :   -0.285627
  16 C :    0.167128
  17 H :    0.190372
  18 H :    0.194619
  19 C :   -0.079247
  20 C :   -0.349825
  21 C :   -0.359785
  22 C :   -0.168993
  23 H :    0.182176
  24 H :    0.196188
  25 H :    0.328099
  26 H :    0.223591
Sum of atomic charges:   -1.0000000

LOEWDIN ATOMIC CHARGES
----------------------
   0 Pd:   -0.753941
   1 Cl:   -0.122077
   2 Cl:   -0.213743
   3 Cl:   -0.263606
   4 N :    0.039329
   5 C :   -0.000245
   6 C :   -0.173724
   7 C :   -0.090728
   8 C :    0.094102
   9 C :   -0.060854
  10 H :    0.133543
  11 H :    0.169404
  12 H :    0.139517
  13 C :   -0.030175
  14 C :   -0.144556
  15 C :   -0.116588
  16 C :   -0.039378
  17 H :    0.128118
  18 H :    0.130948
  19 C :    0.002121
  20 C :   -0.158546
  21 C :   -0.126789
  22 C :   -0.131765
  23 H :    0.121336
  24 H :    0.128498
  25 H :    0.195287
  26 H :    0.144513

  Mayer bond orders larger than 0.100000
B(  0-Pd,  1-Cl) :   0.7827 B(  0-Pd,  3-Cl) :   0.6706 B(  0-Pd,  4-N ) :   0.4213
B(  0-Pd, 19-C ) :   0.8396 B(  1-Cl, 25-H ) :   0.1030 B(  2-Cl, 25-H ) :   0.7943
B(  3-Cl, 19-C ) :   0.1050 B(  4-N ,  5-C ) :   1.4960 B(  4-N ,  8-C ) :   1.1139
B(  5-C ,  6-C ) :   1.2952 B(  5-C , 11-H ) :   0.8530 B(  6-C ,  7-C ) :   1.4587
B(  6-C , 12-H ) :   0.9217 B(  7-C ,  9-C ) :   1.2707 B(  7-C , 10-H ) :   0.9302
B(  8-C ,  9-C ) :   1.2340 B(  8-C , 13-C ) :   1.1593 B(  9-C , 14-C ) :   1.1619
B( 13-C , 16-C ) :   1.2334 B( 13-C , 19-C ) :   1.1676 B( 14-C , 15-C ) :   1.6470
B( 14-C , 17-H ) :   0.9309 B( 15-C , 16-C ) :   1.1543 B( 15-C , 18-H ) :   0.9287
B( 16-C , 20-C ) :   1.2841 B( 19-C , 21-C ) :   1.4262 B( 20-C , 22-C ) :   1.4764
B( 20-C , 23-H ) :   0.9317 B( 21-C , 22-C ) :   1.3522 B( 21-C , 26-H ) :   0.9063
B( 22-C , 24-H ) :   0.9255

Dispersion correction           -0.023797122
FINAL SINGLE POINT ENERGY     -2061.520624515455
Dispersion correction            ... done

DIPOLE MOMENT
-------------
                                X             Y             Z
Electronic contribution:    -76.82883     -47.41048      18.39252
Nuclear contribution   :     79.86601      50.79058     -18.52713
                        -----------------------------------------
Total Dipole Moment    :      3.03718       3.38010      -0.13460
                        -----------------------------------------
Magnitude (a.u.)       :      4.54617
Magnitude (Debye)      :     11.55544

Rotational constants in cm-1:     0.010950     0.007726     0.005221
Rotational constants in MHz :   328.261037   231.611421   156.513459

                             ****ORCA TERMINATED NORMALLY****
TOTAL RUN TIME: 0 days 0 hours 7 minutes 5 seconds 44 msec
