                         Program Version 5.0.3 -  RELEASE  -
|  1> ! EnGrad PBEh-3c
|  2> %output
|  3> xyzfile=True
|  4> end
|  5> %scf
|  6> maxiter 250
|  7> end
|  8> %output
|  9> Print[P_Hirshfeld] = 1
| 10> end
| 11> % maxcore
| 12> 4000
| 13> *xyz -1 1
| 14> Pd  -1.92486042  -1.48459640   0.45037569
| 15> Cl  -2.92997994  -3.31455867  -0.54292987
| 16> Cl   0.12048674  -5.11137712   0.16910813
| 17> Cl  -3.84710594  -1.42322696   1.98930359
| 18> N   -1.09824175   0.17395407   1.35490785
| 19> C   -1.46393803   0.77141845   2.47731592
| 20> C   -0.89513009   1.97739814   2.89974431
| 21> C    0.09178398   2.56045698   2.14102076
| 22> C   -0.10991599   0.71953603   0.60212147
| 23> C    0.50935690   1.92961900   0.96170354
| 24> H    0.54842860   3.49119289   2.45050558
| 25> H   -2.23769874   0.27685255   3.04419537
| 26> H   -1.23855389   2.43327543   3.81694074
| 27> C    0.27396072  -0.00736754  -0.56543557
| 28> C    1.52682336   2.45302374   0.10718294
| 29> C    1.88901952   1.79491211  -1.02168286
| 30> C    1.28743066   0.54907168  -1.39548273
| 31> H    2.00370669   3.38630204   0.37393358
| 32> H    2.66100331   2.20753001  -1.65787678
| 33> C   -0.43587445  -1.22231223  -0.82165436
| 34> C    1.66261958  -0.15722863  -2.54135655
| 35> C    0.00923419  -1.86302908  -1.99052097
| 36> C    1.03697551  -1.35267554  -2.82860239
| 37> H    2.43157038   0.23730906  -3.19226363
| 38> H    1.34109255  -1.90029718  -3.72218531
| 39> H   -0.73412870  -4.34811271  -0.23427323
| 40> H   -0.48147817  -2.77843067  -2.31956633
| 41> *
| 42>
| 43>                          ****END OF INPUT****

CARTESIAN COORDINATES (ANGSTROEM)
---------------------------------
  Pd    -1.924860   -1.484596    0.450376
  Cl    -2.929980   -3.314559   -0.542930
  Cl     0.120487   -5.111377    0.169108
  Cl    -3.847106   -1.423227    1.989304
  N     -1.098242    0.173954    1.354908
  C     -1.463938    0.771418    2.477316
  C     -0.895130    1.977398    2.899744
  C      0.091784    2.560457    2.141021
  C     -0.109916    0.719536    0.602121
  C      0.509357    1.929619    0.961704
  H      0.548429    3.491193    2.450506
  H     -2.237699    0.276853    3.044195
  H     -1.238554    2.433275    3.816941
  C      0.273961   -0.007368   -0.565436
  C      1.526823    2.453024    0.107183
  C      1.889020    1.794912   -1.021683
  C      1.287431    0.549072   -1.395483
  H      2.003707    3.386302    0.373934
  H      2.661003    2.207530   -1.657877
  C     -0.435874   -1.222312   -0.821654
  C      1.662620   -0.157229   -2.541357
  C      0.009234   -1.863029   -1.990521
  C      1.036976   -1.352676   -2.828602
  H      2.431570    0.237309   -3.192264
  H      1.341093   -1.900297   -3.722185
  H     -0.734129   -4.348113   -0.234273
  H     -0.481478   -2.778431   -2.319566

 Total Charge           Charge          ....   -1
 Multiplicity           Mult            ....    1
 Number of Electrons    NEL             ....  164
 Basis Dimension        Dim             ....  313

ORBITAL ENERGIES
----------------

  NO   OCC          E(Eh)            E(eV)
   0   2.0000    -102.153913     -2779.7493
   1   2.0000    -102.089037     -2777.9839
   2   2.0000    -102.058904     -2777.1640
   3   2.0000     -14.593774      -397.1168
   4   2.0000     -10.403872      -283.1037
   5   2.0000     -10.399680      -282.9897
   6   2.0000     -10.391088      -282.7559
   7   2.0000     -10.382423      -282.5201
   8   2.0000     -10.375662      -282.3361
   9   2.0000     -10.373142      -282.2676
  10   2.0000     -10.372235      -282.2429
  11   2.0000     -10.367400      -282.1113
  12   2.0000     -10.354408      -281.7578
  13   2.0000     -10.354288      -281.7545
  14   2.0000     -10.349494      -281.6241
  15   2.0000     -10.341395      -281.4037
  16   2.0000     -10.337062      -281.2857
  17   2.0000      -9.625638      -261.9269
  18   2.0000      -9.552818      -259.9454
  19   2.0000      -9.522422      -259.1183
  20   2.0000      -7.312632      -198.9868
  21   2.0000      -7.305128      -198.7826
  22   2.0000      -7.305081      -198.7814
  23   2.0000      -7.238343      -196.9653
  24   2.0000      -7.234328      -196.8561
  25   2.0000      -7.233593      -196.8361
  26   2.0000      -7.207338      -196.1216
  27   2.0000      -7.204111      -196.0338
  28   2.0000      -7.203908      -196.0283
  29   2.0000      -3.514964       -95.6470
  30   2.0000      -2.161340       -58.8130
  31   2.0000      -2.156859       -58.6911
  32   2.0000      -2.126988       -57.8783
  33   2.0000      -0.985699       -26.8222
  34   2.0000      -0.878437       -23.9035
  35   2.0000      -0.842898       -22.9364
  36   2.0000      -0.807667       -21.9777
  37   2.0000      -0.798966       -21.7410
  38   2.0000      -0.776484       -21.1292
  39   2.0000      -0.733988       -19.9728
  40   2.0000      -0.715721       -19.4758
  41   2.0000      -0.679626       -18.4936
  42   2.0000      -0.649647       -17.6778
  43   2.0000      -0.643205       -17.5025
  44   2.0000      -0.634119       -17.2553
  45   2.0000      -0.606923       -16.5152
  46   2.0000      -0.569571       -15.4988
  47   2.0000      -0.525985       -14.3128
  48   2.0000      -0.510518       -13.8919
  49   2.0000      -0.491238       -13.3673
  50   2.0000      -0.456509       -12.4222
  51   2.0000      -0.453405       -12.3378
  52   2.0000      -0.425694       -11.5837
  53   2.0000      -0.408929       -11.1275
  54   2.0000      -0.403317       -10.9748
  55   2.0000      -0.400468       -10.8973
  56   2.0000      -0.393134       -10.6977
  57   2.0000      -0.380409       -10.3515
  58   2.0000      -0.371894       -10.1198
  59   2.0000      -0.351918        -9.5762
  60   2.0000      -0.338317        -9.2061
  61   2.0000      -0.335713        -9.1352
  62   2.0000      -0.312185        -8.4950
  63   2.0000      -0.300651        -8.1811
  64   2.0000      -0.290179        -7.8962
  65   2.0000      -0.268102        -7.2954
  66   2.0000      -0.260339        -7.0842
  67   2.0000      -0.245117        -6.6700
  68   2.0000      -0.244139        -6.6434
  69   2.0000      -0.242570        -6.6007
  70   2.0000      -0.239804        -6.5254
  71   2.0000      -0.218581        -5.9479
  72   2.0000      -0.216535        -5.8922
  73   2.0000      -0.204477        -5.5641
  74   2.0000      -0.179666        -4.8889
  75   2.0000      -0.177312        -4.8249
  76   2.0000      -0.162715        -4.4277
  77   2.0000      -0.157208        -4.2778
  78   2.0000      -0.147058        -4.0017
  79   2.0000      -0.144344        -3.9278
  80   2.0000      -0.136428        -3.7124
  81   2.0000      -0.130676        -3.5559
  82   0.0000       0.048261         1.3133
  83   0.0000       0.071186         1.9371
  84   0.0000       0.109870         2.9897
  85   0.0000       0.113285         3.0826
  86   0.0000       0.147368         4.0101

MULLIKEN ATOMIC CHARGES
-----------------------
   0 Pd:    0.190006
   1 Cl:   -0.387618
   2 Cl:   -0.370543
   3 Cl:   -0.485868
   4 N :   -0.581637
   5 C :    0.026870
   6 C :   -0.338404
   7 C :   -0.156806
   8 C :    0.403861
   9 C :    0.045031
  10 H :    0.208842
  11 H :    0.291762
  12 H :    0.218406
  13 C :    0.014706
  14 C :   -0.307546
  15 C :   -0.291745
  16 C :    0.150618
  17 H :    0.192170
  18 H :    0.194547
  19 C :   -0.069616
  20 C :   -0.338471
  21 C :   -0.355205
  22 C :   -0.184487
  23 H :    0.184883
  24 H :    0.194471
  25 H :    0.327798
  26 H :    0.223976
Sum of atomic charges:   -1.0000000

LOEWDIN ATOMIC CHARGES
----------------------
   0 Pd:   -0.752940
   1 Cl:   -0.116973
   2 Cl:   -0.215213
   3 Cl:   -0.273113
   4 N :    0.040036
   5 C :    0.000521
   6 C :   -0.173594
   7 C :   -0.090060
   8 C :    0.088992
   9 C :   -0.059553
  10 H :    0.133813
  11 H :    0.169848
  12 H :    0.139307
  13 C :   -0.026434
  14 C :   -0.145202
  15 C :   -0.117246
  16 C :   -0.036444
  17 H :    0.128768
  18 H :    0.130315
  19 C :   -0.001510
  20 C :   -0.160964
  21 C :   -0.126896
  22 C :   -0.126773
  23 H :    0.122724
  24 H :    0.127321
  25 H :    0.195978
  26 H :    0.145293

  Mayer bond orders larger than 0.100000
B(  0-Pd,  1-Cl) :   0.7856 B(  0-Pd,  3-Cl) :   0.6614 B(  0-Pd,  4-N ) :   0.4183
B(  0-Pd, 19-C ) :   0.8410 B(  1-Cl, 25-H ) :   0.1048 B(  2-Cl, 25-H ) :   0.7929
B(  3-Cl, 19-C ) :   0.1042 B(  4-N ,  5-C ) :   1.4909 B(  4-N ,  8-C ) :   1.1198
B(  5-C ,  6-C ) :   1.2983 B(  5-C , 11-H ) :   0.8520 B(  6-C ,  7-C ) :   1.4590
B(  6-C , 12-H ) :   0.9215 B(  7-C ,  9-C ) :   1.2722 B(  7-C , 10-H ) :   0.9297
B(  8-C ,  9-C ) :   1.2255 B(  8-C , 13-C ) :   1.1543 B(  9-C , 14-C ) :   1.1665
B( 13-C , 16-C ) :   1.2493 B( 13-C , 19-C ) :   1.1699 B( 14-C , 15-C ) :   1.6466
B( 14-C , 17-H ) :   0.9306 B( 15-C , 16-C ) :   1.1569 B( 15-C , 18-H ) :   0.9284
B( 16-C , 20-C ) :   1.2838 B( 19-C , 21-C ) :   1.4414 B( 20-C , 22-C ) :   1.4842
B( 20-C , 23-H ) :   0.9311 B( 21-C , 22-C ) :   1.3438 B( 21-C , 26-H ) :   0.9058
B( 22-C , 24-H ) :   0.9260

Dispersion correction           -0.023819061
FINAL SINGLE POINT ENERGY     -2061.523887297686
Dispersion correction            ... done

DIPOLE MOMENT
-------------
                                X             Y             Z
Electronic contribution:    -76.48331     -47.40172      17.59673
Nuclear contribution   :     79.56932      50.79059     -17.77082
                        -----------------------------------------
Total Dipole Moment    :      3.08602       3.38887      -0.17409
                        -----------------------------------------
Magnitude (a.u.)       :      4.58675
Magnitude (Debye)      :     11.65859

Rotational constants in cm-1:     0.010976     0.007735     0.005237
Rotational constants in MHz :   329.046186   231.890146   156.997858

                             ****ORCA TERMINATED NORMALLY****
TOTAL RUN TIME: 0 days 0 hours 7 minutes 14 seconds 432 msec
