                         Program Version 5.0.3 -  RELEASE  -
|  1> ! EnGrad PBEh-3c
|  2> %output
|  3> xyzfile=True
|  4> end
|  5> %scf
|  6> maxiter 250
|  7> end
|  8> %output
|  9> Print[P_Hirshfeld] = 1
| 10> end
| 11> % maxcore
| 12> 4000
| 13> *xyz -1 1
| 14> Pd  -1.93884183  -1.48522393   0.46002632
| 15> Cl  -2.92656090  -3.31409545  -0.54583959
| 16> Cl   0.14497784  -5.13263714   0.18648276
| 17> Cl  -3.84294397  -1.41722133   1.98209117
| 18> N   -1.09287759   0.17502519   1.35253437
| 19> C   -1.46231263   0.76831111   2.47474849
| 20> C   -0.89428813   1.97519659   2.90119674
| 21> C    0.09143742   2.55888740   2.14087189
| 22> C   -0.10955129   0.71910469   0.60393560
| 23> C    0.50928096   1.92839403   0.96109119
| 24> H    0.54834478   3.49074552   2.45020609
| 25> H   -2.23809105   0.27409177   3.04516966
| 26> H   -1.23751733   2.43121406   3.81740904
| 27> C    0.27075501  -0.00544281  -0.56214584
| 28> C    1.52623025   2.45340094   0.10664287
| 29> C    1.88750316   1.79440160  -1.02156765
| 30> C    1.28373692   0.54507323  -1.39267400
| 31> H    2.00246554   3.38670243   0.37362032
| 32> H    2.65978739   2.20848095  -1.65905900
| 33> C   -0.41901545  -1.21917562  -0.83881994
| 34> C    1.66262797  -0.15800615  -2.54306090
| 35> C    0.00589891  -1.86517190  -1.98955639
| 36> C    1.03335371  -1.35249030  -2.82254236
| 37> H    2.43161043   0.23874141  -3.19316273
| 38> H    1.34061474  -1.89965401  -3.72082431
| 39> H   -0.76147353  -4.32283367  -0.24359086
| 40> H   -0.47851168  -2.77737495  -2.31861676
| 41> *
| 42>
| 43>                          ****END OF INPUT****

CARTESIAN COORDINATES (ANGSTROEM)
---------------------------------
  Pd    -1.938842   -1.485224    0.460026
  Cl    -2.926561   -3.314095   -0.545840
  Cl     0.144978   -5.132637    0.186483
  Cl    -3.842944   -1.417221    1.982091
  N     -1.092878    0.175025    1.352534
  C     -1.462313    0.768311    2.474748
  C     -0.894288    1.975197    2.901197
  C      0.091437    2.558887    2.140872
  C     -0.109551    0.719105    0.603936
  C      0.509281    1.928394    0.961091
  H      0.548345    3.490746    2.450206
  H     -2.238091    0.274092    3.045170
  H     -1.237517    2.431214    3.817409
  C      0.270755   -0.005443   -0.562146
  C      1.526230    2.453401    0.106643
  C      1.887503    1.794402   -1.021568
  C      1.283737    0.545073   -1.392674
  H      2.002466    3.386702    0.373620
  H      2.659787    2.208481   -1.659059
  C     -0.419015   -1.219176   -0.838820
  C      1.662628   -0.158006   -2.543061
  C      0.005899   -1.865172   -1.989556
  C      1.033354   -1.352490   -2.822542
  H      2.431610    0.238741   -3.193163
  H      1.340615   -1.899654   -3.720824
  H     -0.761474   -4.322834   -0.243591
  H     -0.478512   -2.777375   -2.318617

 Total Charge           Charge          ....   -1
 Multiplicity           Mult            ....    1
 Number of Electrons    NEL             ....  164
 Basis Dimension        Dim             ....  313

ORBITAL ENERGIES
----------------

  NO   OCC          E(Eh)            E(eV)
   0   2.0000    -102.154546     -2779.7665
   1   2.0000    -102.091517     -2778.0514
   2   2.0000    -102.061540     -2777.2357
   3   2.0000     -14.593529      -397.1101
   4   2.0000     -10.403733      -283.1000
   5   2.0000     -10.400209      -283.0041
   6   2.0000     -10.391434      -282.7653
   7   2.0000     -10.382744      -282.5288
   8   2.0000     -10.376066      -282.3471
   9   2.0000     -10.373466      -282.2764
  10   2.0000     -10.372520      -282.2506
  11   2.0000     -10.367567      -282.1159
  12   2.0000     -10.354217      -281.7526
  13   2.0000     -10.353747      -281.7398
  14   2.0000     -10.349887      -281.6347
  15   2.0000     -10.337986      -281.3109
  16   2.0000     -10.334798      -281.2242
  17   2.0000      -9.623816      -261.8773
  18   2.0000      -9.555260      -260.0118
  19   2.0000      -9.525180      -259.1933
  20   2.0000      -7.310914      -198.9401
  21   2.0000      -7.303491      -198.7381
  22   2.0000      -7.303449      -198.7369
  23   2.0000      -7.240715      -197.0299
  24   2.0000      -7.236861      -196.9250
  25   2.0000      -7.236010      -196.9018
  26   2.0000      -7.210142      -196.1980
  27   2.0000      -7.206824      -196.1077
  28   2.0000      -7.206623      -196.1022
  29   2.0000      -3.512783       -95.5877
  30   2.0000      -2.158923       -58.7473
  31   2.0000      -2.154727       -58.6331
  32   2.0000      -2.124821       -57.8193
  33   2.0000      -0.987709       -26.8769
  34   2.0000      -0.879090       -23.9213
  35   2.0000      -0.843708       -22.9585
  36   2.0000      -0.808651       -22.0045
  37   2.0000      -0.782989       -21.3062
  38   2.0000      -0.776743       -21.1363
  39   2.0000      -0.734604       -19.9896
  40   2.0000      -0.717175       -19.5153
  41   2.0000      -0.681818       -18.5532
  42   2.0000      -0.652568       -17.7573
  43   2.0000      -0.643504       -17.5106
  44   2.0000      -0.635043       -17.2804
  45   2.0000      -0.607839       -16.5401
  46   2.0000      -0.569527       -15.4976
  47   2.0000      -0.525734       -14.3060
  48   2.0000      -0.511349       -13.9145
  49   2.0000      -0.491771       -13.3818
  50   2.0000      -0.456200       -12.4138
  51   2.0000      -0.454297       -12.3620
  52   2.0000      -0.426311       -11.6005
  53   2.0000      -0.409008       -11.1297
  54   2.0000      -0.404354       -11.0030
  55   2.0000      -0.400339       -10.8938
  56   2.0000      -0.380558       -10.3555
  57   2.0000      -0.379546       -10.3280
  58   2.0000      -0.373188       -10.1550
  59   2.0000      -0.352428        -9.5900
  60   2.0000      -0.337960        -9.1964
  61   2.0000      -0.335783        -9.1371
  62   2.0000      -0.312474        -8.5028
  63   2.0000      -0.300992        -8.1904
  64   2.0000      -0.291094        -7.9211
  65   2.0000      -0.263050        -7.1580
  66   2.0000      -0.260803        -7.0968
  67   2.0000      -0.245725        -6.6865
  68   2.0000      -0.241158        -6.5622
  69   2.0000      -0.238225        -6.4824
  70   2.0000      -0.236516        -6.4359
  71   2.0000      -0.219155        -5.9635
  72   2.0000      -0.217586        -5.9208
  73   2.0000      -0.204443        -5.5632
  74   2.0000      -0.180168        -4.9026
  75   2.0000      -0.177824        -4.8388
  76   2.0000      -0.163741        -4.4556
  77   2.0000      -0.156688        -4.2637
  78   2.0000      -0.148049        -4.0286
  79   2.0000      -0.144860        -3.9418
  80   2.0000      -0.138695        -3.7741
  81   2.0000      -0.131746        -3.5850
  82   0.0000       0.048385         1.3166
  83   0.0000       0.071346         1.9414
  84   0.0000       0.109840         2.9889
  85   0.0000       0.112644         3.0652
  86   0.0000       0.147736         4.0201

MULLIKEN ATOMIC CHARGES
-----------------------
   0 Pd:    0.183422
   1 Cl:   -0.384032
   2 Cl:   -0.378296
   3 Cl:   -0.477936
   4 N :   -0.580143
   5 C :    0.025657
   6 C :   -0.337208
   7 C :   -0.157646
   8 C :    0.410689
   9 C :    0.042874
  10 H :    0.208860
  11 H :    0.291194
  12 H :    0.218632
  13 C :    0.024631
  14 C :   -0.306712
  15 C :   -0.294059
  16 C :    0.135563
  17 H :    0.192454
  18 H :    0.194340
  19 C :   -0.067315
  20 C :   -0.330044
  21 C :   -0.349770
  22 C :   -0.193259
  23 H :    0.185925
  24 H :    0.192597
  25 H :    0.324704
  26 H :    0.224878
Sum of atomic charges:   -1.0000000

LOEWDIN ATOMIC CHARGES
----------------------
   0 Pd:   -0.764667
   1 Cl:   -0.111011
   2 Cl:   -0.240103
   3 Cl:   -0.256935
   4 N :    0.041492
   5 C :    0.000647
   6 C :   -0.173290
   7 C :   -0.090171
   8 C :    0.087218
   9 C :   -0.058920
  10 H :    0.133757
  11 H :    0.169943
  12 H :    0.139303
  13 C :   -0.027090
  14 C :   -0.145134
  15 C :   -0.117188
  16 C :   -0.034601
  17 H :    0.128876
  18 H :    0.130040
  19 C :   -0.005355
  20 C :   -0.161784
  21 C :   -0.128273
  22 C :   -0.123599
  23 H :    0.123434
  24 H :    0.126168
  25 H :    0.211412
  26 H :    0.145831

  Mayer bond orders larger than 0.100000
B(  0-Pd,  1-Cl) :   0.7802 B(  0-Pd,  3-Cl) :   0.6731 B(  0-Pd,  4-N ) :   0.4169
B(  0-Pd, 19-C ) :   0.8107 B(  1-Cl, 25-H ) :   0.1148 B(  2-Cl, 25-H ) :   0.7840
B(  3-Cl, 19-C ) :   0.1042 B(  4-N ,  5-C ) :   1.4902 B(  4-N ,  8-C ) :   1.1260
B(  5-C ,  6-C ) :   1.2985 B(  5-C , 11-H ) :   0.8523 B(  6-C ,  7-C ) :   1.4594
B(  6-C , 12-H ) :   0.9215 B(  7-C ,  9-C ) :   1.2735 B(  7-C , 10-H ) :   0.9297
B(  8-C ,  9-C ) :   1.2236 B(  8-C , 13-C ) :   1.1477 B(  9-C , 14-C ) :   1.1675
B( 13-C , 16-C ) :   1.2612 B( 13-C , 19-C ) :   1.1770 B( 14-C , 15-C ) :   1.6477
B( 14-C , 17-H ) :   0.9305 B( 15-C , 16-C ) :   1.1566 B( 15-C , 18-H ) :   0.9285
B( 16-C , 20-C ) :   1.2806 B( 19-C , 21-C ) :   1.4587 B( 20-C , 22-C ) :   1.4908
B( 20-C , 23-H ) :   0.9311 B( 21-C , 22-C ) :   1.3393 B( 21-C , 26-H ) :   0.9048
B( 22-C , 24-H ) :   0.9261

Dispersion correction           -0.023807847
FINAL SINGLE POINT ENERGY     -2061.529879583573
Dispersion correction            ... done

DIPOLE MOMENT
-------------
                                X             Y             Z
Electronic contribution:    -77.38440     -47.30057      18.07994
Nuclear contribution   :     80.38844      50.76824     -18.24470
                        -----------------------------------------
Total Dipole Moment    :      3.00404       3.46767      -0.16476
                        -----------------------------------------
Magnitude (a.u.)       :      4.59087
Magnitude (Debye)      :     11.66907

Rotational constants in cm-1:     0.010927     0.007714     0.005233
Rotational constants in MHz :   327.580574   231.273499   156.885968

                             ****ORCA TERMINATED NORMALLY****
TOTAL RUN TIME: 0 days 0 hours 7 minutes 40 seconds 659 msec
