                         Program Version 5.0.3 -  RELEASE  -
|  1> ! EnGrad PBEh-3c
|  2> %output
|  3> xyzfile=True
|  4> end
|  5> %scf
|  6> maxiter 250
|  7> end
|  8> %output
|  9> Print[P_Hirshfeld] = 1
| 10> end
| 11> % maxcore
| 12> 4000
| 13> *xyz -1 1
| 14> Pd  -1.94717452  -1.48091804   0.45147783
| 15> Cl  -2.90557718  -3.31273336  -0.55220876
| 16> Cl   0.13999245  -5.12912380   0.23234954
| 17> Cl  -3.84634121  -1.38184613   1.95749846
| 18> N   -1.08114031   0.17074561   1.35077511
| 19> C   -1.45391861   0.75311598   2.47506350
| 20> C   -0.88839557   1.96235576   2.90445177
| 21> C    0.08997611   2.55126624   2.14081635
| 22> C   -0.10512386   0.71542044   0.60658451
| 23> C    0.50984800   1.92553289   0.96000903
| 24> H    0.54790189   3.48652388   2.44815072
| 25> H   -2.23577610   0.25978805   3.04849557
| 26> H   -1.23212284   2.41911206   3.82186861
| 27> C    0.26836692  -0.00599762  -0.55882100
| 28> C    1.52155774   2.45321148   0.10303789
| 29> C    1.87975189   1.79307561  -1.02354879
| 30> C    1.27613343   0.53783877  -1.38601266
| 31> H    1.99468983   3.38911546   0.37200955
| 32> H    2.65140600   2.21398597  -1.66500367
| 33> C   -0.40563069  -1.21388063  -0.85912072
| 34> C    1.66080396  -0.15976714  -2.54584244
| 35> C    0.00348601  -1.87066494  -1.98972410
| 36> C    1.02841766  -1.35328065  -2.81246470
| 37> H    2.43088916   0.24734663  -3.19773248
| 38> H    1.34196290  -1.89449900  -3.71676808
| 39> H   -0.78268371  -4.29817734  -0.24260098
| 40> H   -0.46563025  -2.78016216  -2.31639064
| 41> *
| 42>
| 43>                          ****END OF INPUT****

CARTESIAN COORDINATES (ANGSTROEM)
---------------------------------
  Pd    -1.947175   -1.480918    0.451478
  Cl    -2.905577   -3.312733   -0.552209
  Cl     0.139992   -5.129124    0.232350
  Cl    -3.846341   -1.381846    1.957498
  N     -1.081140    0.170746    1.350775
  C     -1.453919    0.753116    2.475064
  C     -0.888396    1.962356    2.904452
  C      0.089976    2.551266    2.140816
  C     -0.105124    0.715420    0.606585
  C      0.509848    1.925533    0.960009
  H      0.547902    3.486524    2.448151
  H     -2.235776    0.259788    3.048496
  H     -1.232123    2.419112    3.821869
  C      0.268367   -0.005998   -0.558821
  C      1.521558    2.453211    0.103038
  C      1.879752    1.793076   -1.023549
  C      1.276133    0.537839   -1.386013
  H      1.994690    3.389115    0.372010
  H      2.651406    2.213986   -1.665004
  C     -0.405631   -1.213881   -0.859121
  C      1.660804   -0.159767   -2.545842
  C      0.003486   -1.870665   -1.989724
  C      1.028418   -1.353281   -2.812465
  H      2.430889    0.247347   -3.197732
  H      1.341963   -1.894499   -3.716768
  H     -0.782684   -4.298177   -0.242601
  H     -0.465630   -2.780162   -2.316391

 Total Charge           Charge          ....   -1
 Multiplicity           Mult            ....    1
 Number of Electrons    NEL             ....  164
 Basis Dimension        Dim             ....  313

ORBITAL ENERGIES
----------------

  NO   OCC          E(Eh)            E(eV)
   0   2.0000    -102.153093     -2779.7270
   1   2.0000    -102.093956     -2778.1178
   2   2.0000    -102.062697     -2777.2672
   3   2.0000     -14.592502      -397.0822
   4   2.0000     -10.403056      -283.0816
   5   2.0000     -10.400459      -283.0109
   6   2.0000     -10.391326      -282.7624
   7   2.0000     -10.382385      -282.5191
   8   2.0000     -10.376170      -282.3499
   9   2.0000     -10.373674      -282.2820
  10   2.0000     -10.372551      -282.2515
  11   2.0000     -10.367318      -282.1091
  12   2.0000     -10.353396      -281.7302
  13   2.0000     -10.352377      -281.7025
  14   2.0000     -10.350476      -281.6508
  15   2.0000     -10.335126      -281.2331
  16   2.0000     -10.331985      -281.1476
  17   2.0000      -9.621291      -261.8086
  18   2.0000      -9.557759      -260.0798
  19   2.0000      -9.526423      -259.2271
  20   2.0000      -7.308440      -198.8728
  21   2.0000      -7.301041      -198.6714
  22   2.0000      -7.301001      -198.6703
  23   2.0000      -7.243144      -197.0960
  24   2.0000      -7.239440      -196.9952
  25   2.0000      -7.238482      -196.9691
  26   2.0000      -7.211384      -196.2317
  27   2.0000      -7.208058      -196.1412
  28   2.0000      -7.207854      -196.1357
  29   2.0000      -3.510902       -95.5365
  30   2.0000      -2.157089       -58.6974
  31   2.0000      -2.152835       -58.5816
  32   2.0000      -2.123005       -57.7699
  33   2.0000      -0.989992       -26.9391
  34   2.0000      -0.880360       -23.9558
  35   2.0000      -0.844782       -22.9877
  36   2.0000      -0.809791       -22.0355
  37   2.0000      -0.776962       -21.1422
  38   2.0000      -0.774007       -21.0618
  39   2.0000      -0.735959       -20.0265
  40   2.0000      -0.718216       -19.5436
  41   2.0000      -0.684512       -18.6265
  42   2.0000      -0.654260       -17.8033
  43   2.0000      -0.643303       -17.5052
  44   2.0000      -0.635820       -17.3016
  45   2.0000      -0.608922       -16.5696
  46   2.0000      -0.569455       -15.4957
  47   2.0000      -0.525267       -14.2932
  48   2.0000      -0.512045       -13.9335
  49   2.0000      -0.492169       -13.3926
  50   2.0000      -0.456617       -12.4252
  51   2.0000      -0.453914       -12.3516
  52   2.0000      -0.426526       -11.6064
  53   2.0000      -0.408920       -11.1273
  54   2.0000      -0.405674       -11.0390
  55   2.0000      -0.400366       -10.8945
  56   2.0000      -0.380171       -10.3450
  57   2.0000      -0.374323       -10.1859
  58   2.0000      -0.372256       -10.1296
  59   2.0000      -0.353416        -9.6169
  60   2.0000      -0.338117        -9.2006
  61   2.0000      -0.336065        -9.1448
  62   2.0000      -0.312291        -8.4979
  63   2.0000      -0.301663        -8.2087
  64   2.0000      -0.291502        -7.9322
  65   2.0000      -0.261516        -7.1162
  66   2.0000      -0.259488        -7.0610
  67   2.0000      -0.246220        -6.7000
  68   2.0000      -0.239462        -6.5161
  69   2.0000      -0.234871        -6.3912
  70   2.0000      -0.233539        -6.3549
  71   2.0000      -0.221400        -6.0246
  72   2.0000      -0.217706        -5.9241
  73   2.0000      -0.204292        -5.5591
  74   2.0000      -0.180661        -4.9160
  75   2.0000      -0.178392        -4.8543
  76   2.0000      -0.164543        -4.4774
  77   2.0000      -0.155850        -4.2409
  78   2.0000      -0.148289        -4.0351
  79   2.0000      -0.144378        -3.9287
  80   2.0000      -0.140289        -3.8175
  81   2.0000      -0.131980        -3.5914
  82   0.0000       0.049155         1.3376
  83   0.0000       0.071875         1.9558
  84   0.0000       0.109924         2.9912
  85   0.0000       0.113418         3.0863
  86   0.0000       0.148258         4.0343

MULLIKEN ATOMIC CHARGES
-----------------------
   0 Pd:    0.179902
   1 Cl:   -0.379143
   2 Cl:   -0.383287
   3 Cl:   -0.475672
   4 N :   -0.577152
   5 C :    0.024220
   6 C :   -0.337143
   7 C :   -0.157917
   8 C :    0.414968
   9 C :    0.043700
  10 H :    0.208359
  11 H :    0.290812
  12 H :    0.218452
  13 C :    0.047228
  14 C :   -0.306282
  15 C :   -0.296826
  16 C :    0.112846
  17 H :    0.192472
  18 H :    0.193896
  19 C :   -0.073710
  20 C :   -0.319962
  21 C :   -0.338430
  22 C :   -0.204743
  23 H :    0.186778
  24 H :    0.189871
  25 H :    0.320978
  26 H :    0.225783
Sum of atomic charges:   -1.0000000

LOEWDIN ATOMIC CHARGES
----------------------
   0 Pd:   -0.774792
   1 Cl:   -0.100735
   2 Cl:   -0.254254
   3 Cl:   -0.249307
   4 N :    0.042917
   5 C :    0.000449
   6 C :   -0.172805
   7 C :   -0.090515
   8 C :    0.085706
   9 C :   -0.058793
  10 H :    0.133512
  11 H :    0.170391
  12 H :    0.139229
  13 C :   -0.028392
  14 C :   -0.144816
  15 C :   -0.116901
  16 C :   -0.032299
  17 H :    0.128776
  18 H :    0.129805
  19 C :   -0.006474
  20 C :   -0.163012
  21 C :   -0.130128
  22 C :   -0.120353
  23 H :    0.124137
  24 H :    0.124555
  25 H :    0.217534
  26 H :    0.146566

  Mayer bond orders larger than 0.100000
B(  0-Pd,  1-Cl) :   0.7779 B(  0-Pd,  3-Cl) :   0.6758 B(  0-Pd,  4-N ) :   0.4135
B(  0-Pd, 19-C ) :   0.7955 B(  1-Cl, 25-H ) :   0.1247 B(  2-Cl, 25-H ) :   0.7759
B(  3-Cl, 19-C ) :   0.1036 B(  4-N ,  5-C ) :   1.4909 B(  4-N ,  8-C ) :   1.1337
B(  5-C ,  6-C ) :   1.2965 B(  5-C , 11-H ) :   0.8514 B(  6-C ,  7-C ) :   1.4602
B(  6-C , 12-H ) :   0.9216 B(  7-C ,  9-C ) :   1.2750 B(  7-C , 10-H ) :   0.9298
B(  8-C ,  9-C ) :   1.2222 B(  8-C , 13-C ) :   1.1392 B(  9-C , 14-C ) :   1.1682
B( 13-C , 16-C ) :   1.2751 B( 13-C , 19-C ) :   1.1803 B( 14-C , 15-C ) :   1.6493
B( 14-C , 17-H ) :   0.9304 B( 15-C , 16-C ) :   1.1554 B( 15-C , 18-H ) :   0.9289
B( 16-C , 20-C ) :   1.2755 B( 19-C , 21-C ) :   1.4741 B( 20-C , 22-C ) :   1.4978
B( 20-C , 23-H ) :   0.9312 B( 21-C , 22-C ) :   1.3362 B( 21-C , 26-H ) :   0.9042
B( 22-C , 24-H ) :   0.9263

Dispersion correction           -0.023835951
FINAL SINGLE POINT ENERGY     -2061.529290480501
Dispersion correction            ... done

DIPOLE MOMENT
-------------
                                X             Y             Z
Electronic contribution:    -77.91115     -47.13201      17.59991
Nuclear contribution   :     80.86259      50.62797     -17.76710
                        -----------------------------------------
Total Dipole Moment    :      2.95144       3.49597      -0.16719
                        -----------------------------------------
Magnitude (a.u.)       :      4.57829
Magnitude (Debye)      :     11.63708

Rotational constants in cm-1:     0.010944     0.007727     0.005262
Rotational constants in MHz :   328.086490   231.647657   157.737632

                             ****ORCA TERMINATED NORMALLY****
TOTAL RUN TIME: 0 days 0 hours 8 minutes 49 seconds 590 msec
