                         Program Version 5.0.3 -  RELEASE  -
|  1> ! EnGrad PBEh-3c
|  2> %output
|  3> xyzfile=True
|  4> end
|  5> %scf
|  6> maxiter 250
|  7> end
|  8> %output
|  9> Print[P_Hirshfeld] = 1
| 10> end
| 11> % maxcore
| 12> 4000
| 13> *xyz -1 1
| 14> Pd  -1.96062699  -1.47529453   0.45778774
| 15> Cl  -2.89165074  -3.31402314  -0.56052852
| 16> Cl   0.14242665  -5.12988379   0.25475175
| 17> Cl  -3.84001744  -1.36322073   1.94015297
| 18> N   -1.07953758   0.16526376   1.35224413
| 19> C   -1.45090625   0.74696670   2.47613222
| 20> C   -0.88520894   1.95324364   2.90530777
| 21> C    0.08974566   2.54742901   2.14141582
| 22> C   -0.10086774   0.71452215   0.60670467
| 23> C    0.51097945   1.92569577   0.96096897
| 24> H    0.54683055   3.48361513   2.44661279
| 25> H   -2.23306150   0.25265377   3.04696647
| 26> H   -1.22929130   2.41209316   3.82420350
| 27> C    0.27169837  -0.00178647  -0.56295092
| 28> C    1.51909414   2.45299382   0.10078306
| 29> C    1.87565510   1.79011741  -1.02488404
| 30> C    1.27569362   0.53799277  -1.38326464
| 31> H    1.99074235   3.39072935   0.37091977
| 32> H    2.64529199   2.21506543  -1.66753945
| 33> C   -0.40177689  -1.20779100  -0.86085652
| 34> C    1.65561134  -0.16108342  -2.54180903
| 35> C    0.00979465  -1.87338695  -2.00135904
| 36> C    1.02910873  -1.35609241  -2.81409241
| 37> H    2.42858896   0.24992636  -3.19886747
| 38> H    1.33835386  -1.89072826  -3.70796513
| 39> H   -0.79909601  -4.28307525  -0.23927765
| 40> H   -0.46222761  -2.78521322  -2.31427680
| 41> *
| 42>
| 43>                          ****END OF INPUT****

CARTESIAN COORDINATES (ANGSTROEM)
---------------------------------
  Pd    -1.960627   -1.475295    0.457788
  Cl    -2.891651   -3.314023   -0.560529
  Cl     0.142427   -5.129884    0.254752
  Cl    -3.840017   -1.363221    1.940153
  N     -1.079538    0.165264    1.352244
  C     -1.450906    0.746967    2.476132
  C     -0.885209    1.953244    2.905308
  C      0.089746    2.547429    2.141416
  C     -0.100868    0.714522    0.606705
  C      0.510979    1.925696    0.960969
  H      0.546831    3.483615    2.446613
  H     -2.233061    0.252654    3.046966
  H     -1.229291    2.412093    3.824203
  C      0.271698   -0.001786   -0.562951
  C      1.519094    2.452994    0.100783
  C      1.875655    1.790117   -1.024884
  C      1.275694    0.537993   -1.383265
  H      1.990742    3.390729    0.370920
  H      2.645292    2.215065   -1.667539
  C     -0.401777   -1.207791   -0.860857
  C      1.655611   -0.161083   -2.541809
  C      0.009795   -1.873387   -2.001359
  C      1.029109   -1.356092   -2.814092
  H      2.428589    0.249926   -3.198867
  H      1.338354   -1.890728   -3.707965
  H     -0.799096   -4.283075   -0.239278
  H     -0.462228   -2.785213   -2.314277

 Total Charge           Charge          ....   -1
 Multiplicity           Mult            ....    1
 Number of Electrons    NEL             ....  164
 Basis Dimension        Dim             ....  313

ORBITAL ENERGIES
----------------

  NO   OCC          E(Eh)            E(eV)
   0   2.0000    -102.151563     -2779.6853
   1   2.0000    -102.095920     -2778.1712
   2   2.0000    -102.065782     -2777.3511
   3   2.0000     -14.592844      -397.0915
   4   2.0000     -10.403177      -283.0848
   5   2.0000     -10.399937      -282.9967
   6   2.0000     -10.390999      -282.7535
   7   2.0000     -10.381914      -282.5062
   8   2.0000     -10.375985      -282.3449
   9   2.0000     -10.373231      -282.2700
  10   2.0000     -10.372283      -282.2442
  11   2.0000     -10.365471      -282.0588
  12   2.0000     -10.350801      -281.6596
  13   2.0000     -10.350698      -281.6568
  14   2.0000     -10.349902      -281.6351
  15   2.0000     -10.335420      -281.2411
  16   2.0000     -10.331735      -281.1408
  17   2.0000      -9.619054      -261.7478
  18   2.0000      -9.559680      -260.1321
  19   2.0000      -9.529718      -259.3168
  20   2.0000      -7.306242      -198.8129
  21   2.0000      -7.298853      -198.6119
  22   2.0000      -7.298812      -198.6108
  23   2.0000      -7.245002      -197.1465
  24   2.0000      -7.241444      -197.0497
  25   2.0000      -7.240388      -197.0210
  26   2.0000      -7.214712      -196.3223
  27   2.0000      -7.211315      -196.2299
  28   2.0000      -7.211096      -196.2239
  29   2.0000      -3.510956       -95.5380
  30   2.0000      -2.157144       -58.6989
  31   2.0000      -2.152922       -58.5840
  32   2.0000      -2.122974       -57.7690
  33   2.0000      -0.989308       -26.9205
  34   2.0000      -0.881353       -23.9828
  35   2.0000      -0.844839       -22.9892
  36   2.0000      -0.809807       -22.0360
  37   2.0000      -0.776670       -21.1343
  38   2.0000      -0.767537       -20.8857
  39   2.0000      -0.737356       -20.0645
  40   2.0000      -0.716064       -19.4851
  41   2.0000      -0.686253       -18.6739
  42   2.0000      -0.658157       -17.9094
  43   2.0000      -0.643307       -17.5053
  44   2.0000      -0.636290       -17.3143
  45   2.0000      -0.608693       -16.5634
  46   2.0000      -0.569564       -15.4986
  47   2.0000      -0.525061       -14.2876
  48   2.0000      -0.511946       -13.9308
  49   2.0000      -0.491838       -13.3836
  50   2.0000      -0.455815       -12.4034
  51   2.0000      -0.454254       -12.3609
  52   2.0000      -0.426474       -11.6049
  53   2.0000      -0.408774       -11.1233
  54   2.0000      -0.405493       -11.0340
  55   2.0000      -0.400956       -10.9106
  56   2.0000      -0.380275       -10.3478
  57   2.0000      -0.373868       -10.1735
  58   2.0000      -0.366456        -9.9718
  59   2.0000      -0.352035        -9.5794
  60   2.0000      -0.338394        -9.2082
  61   2.0000      -0.335673        -9.1341
  62   2.0000      -0.312623        -8.5069
  63   2.0000      -0.301407        -8.2017
  64   2.0000      -0.290863        -7.9148
  65   2.0000      -0.261503        -7.1159
  66   2.0000      -0.260368        -7.0850
  67   2.0000      -0.247425        -6.7328
  68   2.0000      -0.238610        -6.4929
  69   2.0000      -0.232193        -6.3183
  70   2.0000      -0.231005        -6.2860
  71   2.0000      -0.222728        -6.0607
  72   2.0000      -0.217824        -5.9273
  73   2.0000      -0.205655        -5.5961
  74   2.0000      -0.181986        -4.9521
  75   2.0000      -0.179831        -4.8935
  76   2.0000      -0.164643        -4.4802
  77   2.0000      -0.156255        -4.2519
  78   2.0000      -0.148757        -4.0479
  79   2.0000      -0.145121        -3.9489
  80   2.0000      -0.143044        -3.8924
  81   2.0000      -0.132447        -3.6041
  82   0.0000       0.049427         1.3450
  83   0.0000       0.071936         1.9575
  84   0.0000       0.110077         2.9954
  85   0.0000       0.113843         3.0978
  86   0.0000       0.149032         4.0554

MULLIKEN ATOMIC CHARGES
-----------------------
   0 Pd:    0.178612
   1 Cl:   -0.377590
   2 Cl:   -0.387600
   3 Cl:   -0.466605
   4 N :   -0.578872
   5 C :    0.026246
   6 C :   -0.337741
   7 C :   -0.157711
   8 C :    0.408366
   9 C :    0.046776
  10 H :    0.208205
  11 H :    0.289967
  12 H :    0.217817
  13 C :    0.050979
  14 C :   -0.307525
  15 C :   -0.299183
  16 C :    0.124953
  17 H :    0.192261
  18 H :    0.193680
  19 C :   -0.080279
  20 C :   -0.327533
  21 C :   -0.337873
  22 C :   -0.198683
  23 H :    0.184663
  24 H :    0.191187
  25 H :    0.317708
  26 H :    0.225774
Sum of atomic charges:   -1.0000000

LOEWDIN ATOMIC CHARGES
----------------------
   0 Pd:   -0.785053
   1 Cl:   -0.098181
   2 Cl:   -0.265532
   3 Cl:   -0.230310
   4 N :    0.043142
   5 C :   -0.000456
   6 C :   -0.172683
   7 C :   -0.090580
   8 C :    0.088097
   9 C :   -0.059541
  10 H :    0.133446
  11 H :    0.170054
  12 H :    0.139131
  13 C :   -0.031480
  14 C :   -0.144996
  15 C :   -0.115595
  16 C :   -0.034166
  17 H :    0.128640
  18 H :    0.129884
  19 C :   -0.005762
  20 C :   -0.161333
  21 C :   -0.130066
  22 C :   -0.122689
  23 H :    0.123357
  24 H :    0.125011
  25 H :    0.221395
  26 H :    0.146268

  Mayer bond orders larger than 0.100000
B(  0-Pd,  1-Cl) :   0.7703 B(  0-Pd,  3-Cl) :   0.6893 B(  0-Pd,  4-N ) :   0.4165
B(  0-Pd, 19-C ) :   0.7807 B(  1-Cl, 25-H ) :   0.1332 B(  2-Cl, 25-H ) :   0.7689
B(  3-Cl, 19-C ) :   0.1041 B(  4-N ,  5-C ) :   1.4890 B(  4-N ,  8-C ) :   1.1318
B(  5-C ,  6-C ) :   1.2978 B(  5-C , 11-H ) :   0.8520 B(  6-C ,  7-C ) :   1.4593
B(  6-C , 12-H ) :   0.9219 B(  7-C ,  9-C ) :   1.2755 B(  7-C , 10-H ) :   0.9297
B(  8-C ,  9-C ) :   1.2257 B(  8-C , 13-C ) :   1.1388 B(  9-C , 14-C ) :   1.1663
B( 13-C , 16-C ) :   1.2693 B( 13-C , 19-C ) :   1.1877 B( 14-C , 15-C ) :   1.6510
B( 14-C , 17-H ) :   0.9304 B( 15-C , 16-C ) :   1.1525 B( 15-C , 18-H ) :   0.9293
B( 16-C , 20-C ) :   1.2772 B( 19-C , 21-C ) :   1.4689 B( 20-C , 22-C ) :   1.4910
B( 20-C , 23-H ) :   0.9323 B( 21-C , 22-C ) :   1.3465 B( 21-C , 26-H ) :   0.9040
B( 22-C , 24-H ) :   0.9258

Dispersion correction           -0.023852805
FINAL SINGLE POINT ENERGY     -2061.529086862120
Dispersion correction            ... done

DIPOLE MOMENT
-------------
                                X             Y             Z
Electronic contribution:    -78.77202     -46.85427      17.97018
Nuclear contribution   :     81.62856      50.37297     -18.10453
                        -----------------------------------------
Total Dipole Moment    :      2.85655       3.51870      -0.13436
                        -----------------------------------------
Magnitude (a.u.)       :      4.53422
Magnitude (Debye)      :     11.52507

Rotational constants in cm-1:     0.010935     0.007732     0.005273
Rotational constants in MHz :   327.828094   231.787086   158.088792

                             ****ORCA TERMINATED NORMALLY****
TOTAL RUN TIME: 0 days 0 hours 10 minutes 42 seconds 318 msec
