                         Program Version 5.0.3 -  RELEASE  -
|  1> ! EnGrad PBEh-3c
|  2> %output
|  3> xyzfile=True
|  4> end
|  5> %scf
|  6> maxiter 250
|  7> end
|  8> %output
|  9> Print[P_Hirshfeld] = 1
| 10> end
| 11> % maxcore
| 12> 4000
| 13> *xyz -1 1
| 14> Pd  -1.96261325  -1.46356866   0.44923125
| 15> Cl  -2.86729722  -3.31651779  -0.57222980
| 16> Cl   0.11789300  -5.10694831   0.29023360
| 17> Cl  -3.83998271  -1.32631700   1.91211893
| 18> N   -1.07643205   0.15512390   1.35388165
| 19> C   -1.44522860   0.73393952   2.48164882
| 20> C   -0.87902155   1.93922163   2.90928129
| 21> C    0.09003993   2.54074134   2.14310060
| 22> C   -0.09618733   0.71036105   0.60729658
| 23> C    0.51208875   1.92398376   0.96239024
| 24> H    0.54446109   3.47760571   2.44422315
| 25> H   -2.22660388   0.23887930   3.04509882
| 26> H   -1.22312838   2.39715700   3.82775140
| 27> C    0.27465991  -0.00102265  -0.56684161
| 28> C    1.51479313   2.45345505   0.09668531
| 29> C    1.87070037   1.79046849  -1.02728783
| 30> C    1.28004123   0.53992541  -1.38678426
| 31> H    1.98242995   3.39298961   0.36798399
| 32> H    2.63262192   2.21708476  -1.67225274
| 33> C   -0.40954572  -1.20724878  -0.85815884
| 34> C    1.65245944  -0.15877453  -2.53814055
| 35> C    0.01617074  -1.87222030  -2.00629458
| 36> C    1.03413164  -1.35649886  -2.81845798
| 37> H    2.42074790   0.25383062  -3.19823982
| 38> H    1.33690236  -1.88714498  -3.70110770
| 39> H   -0.80445508  -4.27570985  -0.22315688
| 40> H   -0.45541516  -2.79709759  -2.31256489
| 41> *
| 42>
| 43>                          ****END OF INPUT****

CARTESIAN COORDINATES (ANGSTROEM)
---------------------------------
  Pd    -1.962613   -1.463569    0.449231
  Cl    -2.867297   -3.316518   -0.572230
  Cl     0.117893   -5.106948    0.290234
  Cl    -3.839983   -1.326317    1.912119
  N     -1.076432    0.155124    1.353882
  C     -1.445229    0.733940    2.481649
  C     -0.879022    1.939222    2.909281
  C      0.090040    2.540741    2.143101
  C     -0.096187    0.710361    0.607297
  C      0.512089    1.923984    0.962390
  H      0.544461    3.477606    2.444223
  H     -2.226604    0.238879    3.045099
  H     -1.223128    2.397157    3.827751
  C      0.274660   -0.001023   -0.566842
  C      1.514793    2.453455    0.096685
  C      1.870700    1.790468   -1.027288
  C      1.280041    0.539925   -1.386784
  H      1.982430    3.392990    0.367984
  H      2.632622    2.217085   -1.672253
  C     -0.409546   -1.207249   -0.858159
  C      1.652459   -0.158775   -2.538141
  C      0.016171   -1.872220   -2.006295
  C      1.034132   -1.356499   -2.818458
  H      2.420748    0.253831   -3.198240
  H      1.336902   -1.887145   -3.701108
  H     -0.804455   -4.275710   -0.223157
  H     -0.455415   -2.797098   -2.312565

 Total Charge           Charge          ....   -1
 Multiplicity           Mult            ....    1
 Number of Electrons    NEL             ....  164
 Basis Dimension        Dim             ....  313

ORBITAL ENERGIES
----------------

  NO   OCC          E(Eh)            E(eV)
   0   2.0000    -102.149881     -2779.6396
   1   2.0000    -102.095928     -2778.1715
   2   2.0000    -102.066721     -2777.3767
   3   2.0000     -14.592989      -397.0954
   4   2.0000     -10.402862      -283.0763
   5   2.0000     -10.399208      -282.9768
   6   2.0000     -10.390278      -282.7338
   7   2.0000     -10.381237      -282.4878
   8   2.0000     -10.375405      -282.3291
   9   2.0000     -10.372301      -282.2447
  10   2.0000     -10.371501      -282.2229
  11   2.0000     -10.363930      -282.0169
  12   2.0000     -10.350278      -281.6454
  13   2.0000     -10.349103      -281.6134
  14   2.0000     -10.348445      -281.5955
  15   2.0000     -10.336350      -281.2664
  16   2.0000     -10.332705      -281.1672
  17   2.0000      -9.617787      -261.7133
  18   2.0000      -9.559698      -260.1326
  19   2.0000      -9.530783      -259.3458
  20   2.0000      -7.304906      -198.7766
  21   2.0000      -7.297588      -198.5775
  22   2.0000      -7.297546      -198.5763
  23   2.0000      -7.244990      -197.1462
  24   2.0000      -7.241488      -197.0509
  25   2.0000      -7.240420      -197.0218
  26   2.0000      -7.215763      -196.3509
  27   2.0000      -7.212383      -196.2589
  28   2.0000      -7.212143      -196.2524
  29   2.0000      -3.511821       -95.5615
  30   2.0000      -2.157999       -58.7221
  31   2.0000      -2.153972       -58.6126
  32   2.0000      -2.123783       -57.7911
  33   2.0000      -0.987881       -26.8816
  34   2.0000      -0.881385       -23.9837
  35   2.0000      -0.844410       -22.9776
  36   2.0000      -0.809324       -22.0228
  37   2.0000      -0.776756       -21.1366
  38   2.0000      -0.768883       -20.9224
  39   2.0000      -0.737081       -20.0570
  40   2.0000      -0.715120       -19.4594
  41   2.0000      -0.686425       -18.6786
  42   2.0000      -0.659840       -17.9552
  43   2.0000      -0.643258       -17.5039
  44   2.0000      -0.636163       -17.3109
  45   2.0000      -0.607892       -16.5416
  46   2.0000      -0.569868       -15.5069
  47   2.0000      -0.525255       -14.2929
  48   2.0000      -0.511565       -13.9204
  49   2.0000      -0.491433       -13.3726
  50   2.0000      -0.455448       -12.3934
  51   2.0000      -0.454035       -12.3549
  52   2.0000      -0.426538       -11.6067
  53   2.0000      -0.408967       -11.1286
  54   2.0000      -0.404788       -11.0148
  55   2.0000      -0.400921       -10.9096
  56   2.0000      -0.380681       -10.3589
  57   2.0000      -0.373197       -10.1552
  58   2.0000      -0.367988       -10.0135
  59   2.0000      -0.351255        -9.5581
  60   2.0000      -0.338391        -9.2081
  61   2.0000      -0.335142        -9.1197
  62   2.0000      -0.313260        -8.5242
  63   2.0000      -0.301098        -8.1933
  64   2.0000      -0.290417        -7.9027
  65   2.0000      -0.263168        -7.1612
  66   2.0000      -0.260830        -7.0976
  67   2.0000      -0.247945        -6.7469
  68   2.0000      -0.239414        -6.5148
  69   2.0000      -0.231915        -6.3107
  70   2.0000      -0.230667        -6.2768
  71   2.0000      -0.223323        -6.0769
  72   2.0000      -0.216905        -5.9023
  73   2.0000      -0.206487        -5.6188
  74   2.0000      -0.182648        -4.9701
  75   2.0000      -0.179954        -4.8968
  76   2.0000      -0.164722        -4.4823
  77   2.0000      -0.156677        -4.2634
  78   2.0000      -0.148656        -4.0451
  79   2.0000      -0.145588        -3.9616
  80   2.0000      -0.144396        -3.9292
  81   2.0000      -0.132244        -3.5986
  82   0.0000       0.049570         1.3489
  83   0.0000       0.072057         1.9608
  84   0.0000       0.110618         3.0101
  85   0.0000       0.115614         3.1460
  86   0.0000       0.149639         4.0719

MULLIKEN ATOMIC CHARGES
-----------------------
   0 Pd:    0.181028
   1 Cl:   -0.379382
   2 Cl:   -0.388929
   3 Cl:   -0.464320
   4 N :   -0.582863
   5 C :    0.028768
   6 C :   -0.339444
   7 C :   -0.157186
   8 C :    0.405828
   9 C :    0.048952
  10 H :    0.207911
  11 H :    0.289825
  12 H :    0.217227
  13 C :    0.035709
  14 C :   -0.306751
  15 C :   -0.299703
  16 C :    0.146683
  17 H :    0.191826
  18 H :    0.193365
  19 C :   -0.075387
  20 C :   -0.337418
  21 C :   -0.345318
  22 C :   -0.189394
  23 H :    0.182867
  24 H :    0.193590
  25 H :    0.318281
  26 H :    0.224234
Sum of atomic charges:   -1.0000000

LOEWDIN ATOMIC CHARGES
----------------------
   0 Pd:   -0.788533
   1 Cl:   -0.099980
   2 Cl:   -0.263266
   3 Cl:   -0.223381
   4 N :    0.043048
   5 C :   -0.000588
   6 C :   -0.172722
   7 C :   -0.090787
   8 C :    0.089613
   9 C :   -0.059997
  10 H :    0.133340
  11 H :    0.169709
  12 H :    0.138986
  13 C :   -0.031215
  14 C :   -0.144993
  15 C :   -0.115061
  16 C :   -0.036381
  17 H :    0.128526
  18 H :    0.129878
  19 C :   -0.004357
  20 C :   -0.159891
  21 C :   -0.128769
  22 C :   -0.125230
  23 H :    0.122524
  24 H :    0.125982
  25 H :    0.217779
  26 H :    0.145765

  Mayer bond orders larger than 0.100000
B(  0-Pd,  1-Cl) :   0.7649 B(  0-Pd,  3-Cl) :   0.6927 B(  0-Pd,  4-N ) :   0.4216
B(  0-Pd, 19-C ) :   0.7869 B(  1-Cl, 25-H ) :   0.1365 B(  2-Cl, 25-H ) :   0.7667
B(  3-Cl, 19-C ) :   0.1043 B(  4-N ,  5-C ) :   1.4855 B(  4-N ,  8-C ) :   1.1268
B(  5-C ,  6-C ) :   1.3000 B(  5-C , 11-H ) :   0.8518 B(  6-C ,  7-C ) :   1.4576
B(  6-C , 12-H ) :   0.9222 B(  7-C ,  9-C ) :   1.2768 B(  7-C , 10-H ) :   0.9297
B(  8-C ,  9-C ) :   1.2279 B(  8-C , 13-C ) :   1.1428 B(  9-C , 14-C ) :   1.1650
B( 13-C , 16-C ) :   1.2619 B( 13-C , 19-C ) :   1.1896 B( 14-C , 15-C ) :   1.6516
B( 14-C , 17-H ) :   0.9304 B( 15-C , 16-C ) :   1.1515 B( 15-C , 18-H ) :   0.9294
B( 16-C , 20-C ) :   1.2808 B( 19-C , 21-C ) :   1.4583 B( 20-C , 22-C ) :   1.4844
B( 20-C , 23-H ) :   0.9329 B( 21-C , 22-C ) :   1.3529 B( 21-C , 26-H ) :   0.9043
B( 22-C , 24-H ) :   0.9253

Dispersion correction           -0.023900806
FINAL SINGLE POINT ENERGY     -2061.530726844524
Dispersion correction            ... done

DIPOLE MOMENT
-------------
                                X             Y             Z
Electronic contribution:    -78.91262     -46.43820      17.56850
Nuclear contribution   :     81.74428      49.92163     -17.68301
                        -----------------------------------------
Total Dipole Moment    :      2.83166       3.48342      -0.11451
                        -----------------------------------------
Magnitude (a.u.)       :      4.49062
Magnitude (Debye)      :     11.41425

Rotational constants in cm-1:     0.010982     0.007763     0.005307
Rotational constants in MHz :   329.242342   232.734446   159.090684

                             ****ORCA TERMINATED NORMALLY****
TOTAL RUN TIME: 0 days 0 hours 9 minutes 17 seconds 325 msec
