                         Program Version 5.0.3 -  RELEASE  -
|  1> ! EnGrad PBEh-3c
|  2> %output
|  3> xyzfile=True
|  4> end
|  5> %scf
|  6> maxiter 250
|  7> end
|  8> %output
|  9> Print[P_Hirshfeld] = 1
| 10> end
| 11> % maxcore
| 12> 4000
| 13> *xyz -1 1
| 14> Pd  -1.95937580  -1.44894874   0.43575975
| 15> Cl  -2.83807495  -3.32050562  -0.58879456
| 16> Cl   0.07973187  -5.07055852   0.32958778
| 17> Cl  -3.84120483  -1.28064562   1.87708263
| 18> N   -1.07293262   0.14599642   1.35632809
| 19> C   -1.43603746   0.71912296   2.48577702
| 20> C   -0.87031970   1.92304884   2.91426256
| 21> C    0.09019462   2.53073387   2.14658101
| 22> C   -0.09359473   0.70343730   0.60818463
| 23> C    0.51328943   1.92000971   0.96396331
| 24> H    0.54083508   3.47119167   2.44253754
| 25> H   -2.21907770   0.22106411   3.04302812
| 26> H   -1.21542547   2.37751428   3.83293839
| 27> C    0.27719357  -0.00295916  -0.57279487
| 28> C    1.50873000   2.45435415   0.09346910
| 29> C    1.86712457   1.79485614  -1.02952650
| 30> C    1.28265594   0.54446218  -1.38863021
| 31> H    1.97233644   3.39611960   0.36305511
| 32> H    2.61784876   2.21961063  -1.67937188
| 33> C   -0.41906247  -1.20818168  -0.85362363
| 34> C    1.65379047  -0.15655473  -2.54111592
| 35> C    0.01849219  -1.87412951  -2.00777510
| 36> C    1.03858368  -1.34968136  -2.81653013
| 37> H    2.40863790   0.25679829  -3.19528381
| 38> H    1.33841463  -1.88937865  -3.70242722
| 39> H   -0.80424550  -4.27365046  -0.19572110
| 40> H   -0.44578877  -2.80821337  -2.30906608
| 41> *
| 42>
| 43>                          ****END OF INPUT****

CARTESIAN COORDINATES (ANGSTROEM)
---------------------------------
  Pd    -1.959376   -1.448949    0.435760
  Cl    -2.838075   -3.320506   -0.588795
  Cl     0.079732   -5.070559    0.329588
  Cl    -3.841205   -1.280646    1.877083
  N     -1.072933    0.145996    1.356328
  C     -1.436037    0.719123    2.485777
  C     -0.870320    1.923049    2.914263
  C      0.090195    2.530734    2.146581
  C     -0.093595    0.703437    0.608185
  C      0.513289    1.920010    0.963963
  H      0.540835    3.471192    2.442538
  H     -2.219078    0.221064    3.043028
  H     -1.215425    2.377514    3.832938
  C      0.277194   -0.002959   -0.572795
  C      1.508730    2.454354    0.093469
  C      1.867125    1.794856   -1.029527
  C      1.282656    0.544462   -1.388630
  H      1.972336    3.396120    0.363055
  H      2.617849    2.219611   -1.679372
  C     -0.419062   -1.208182   -0.853624
  C      1.653790   -0.156555   -2.541116
  C      0.018492   -1.874130   -2.007775
  C      1.038584   -1.349681   -2.816530
  H      2.408638    0.256798   -3.195284
  H      1.338415   -1.889379   -3.702427
  H     -0.804245   -4.273650   -0.195721
  H     -0.445789   -2.808213   -2.309066

 Total Charge           Charge          ....   -1
 Multiplicity           Mult            ....    1
 Number of Electrons    NEL             ....  164
 Basis Dimension        Dim             ....  313

ORBITAL ENERGIES
----------------

  NO   OCC          E(Eh)            E(eV)
   0   2.0000    -102.148045     -2779.5896
   1   2.0000    -102.094512     -2778.1329
   2   2.0000    -102.066798     -2777.3788
   3   2.0000     -14.592716      -397.0880
   4   2.0000     -10.402435      -283.0646
   5   2.0000     -10.398306      -282.9523
   6   2.0000     -10.389459      -282.7116
   7   2.0000     -10.380575      -282.4698
   8   2.0000     -10.374482      -282.3040
   9   2.0000     -10.371472      -282.2221
  10   2.0000     -10.370381      -282.1924
  11   2.0000     -10.363194      -281.9968
  12   2.0000     -10.349913      -281.6354
  13   2.0000     -10.348435      -281.5952
  14   2.0000     -10.346434      -281.5408
  15   2.0000     -10.336936      -281.2823
  16   2.0000     -10.333236      -281.1816
  17   2.0000      -9.617123      -261.6952
  18   2.0000      -9.558294      -260.0944
  19   2.0000      -9.530967      -259.3508
  20   2.0000      -7.304114      -198.7551
  21   2.0000      -7.296886      -198.5584
  22   2.0000      -7.296842      -198.5572
  23   2.0000      -7.243579      -197.1078
  24   2.0000      -7.240072      -197.0124
  25   2.0000      -7.239051      -196.9846
  26   2.0000      -7.215914      -196.3550
  27   2.0000      -7.212588      -196.2645
  28   2.0000      -7.212324      -196.2573
  29   2.0000      -3.512603       -95.5828
  30   2.0000      -2.158750       -58.7426
  31   2.0000      -2.155010       -58.6408
  32   2.0000      -2.124556       -57.8121
  33   2.0000      -0.988041       -26.8860
  34   2.0000      -0.881037       -23.9742
  35   2.0000      -0.843986       -22.9660
  36   2.0000      -0.808857       -22.0101
  37   2.0000      -0.776928       -21.1413
  38   2.0000      -0.775254       -21.0957
  39   2.0000      -0.736160       -20.0319
  40   2.0000      -0.714715       -19.4484
  41   2.0000      -0.685248       -18.6465
  42   2.0000      -0.660692       -17.9784
  43   2.0000      -0.642913       -17.4945
  44   2.0000      -0.635533       -17.2937
  45   2.0000      -0.607550       -16.5323
  46   2.0000      -0.569398       -15.4941
  47   2.0000      -0.525306       -14.2943
  48   2.0000      -0.511564       -13.9204
  49   2.0000      -0.491296       -13.3688
  50   2.0000      -0.454909       -12.3787
  51   2.0000      -0.454021       -12.3545
  52   2.0000      -0.426427       -11.6037
  53   2.0000      -0.408888       -11.1264
  54   2.0000      -0.404445       -11.0055
  55   2.0000      -0.400426       -10.8961
  56   2.0000      -0.379875       -10.3369
  57   2.0000      -0.374107       -10.1800
  58   2.0000      -0.372777       -10.1438
  59   2.0000      -0.351558        -9.5664
  60   2.0000      -0.338321        -9.2062
  61   2.0000      -0.335734        -9.1358
  62   2.0000      -0.313255        -8.5241
  63   2.0000      -0.300995        -8.1905
  64   2.0000      -0.288547        -7.8518
  65   2.0000      -0.266412        -7.2494
  66   2.0000      -0.260648        -7.0926
  67   2.0000      -0.247545        -6.7360
  68   2.0000      -0.240447        -6.5429
  69   2.0000      -0.233021        -6.3408
  70   2.0000      -0.231707        -6.3051
  71   2.0000      -0.223171        -6.0728
  72   2.0000      -0.215071        -5.8524
  73   2.0000      -0.206776        -5.6267
  74   2.0000      -0.183102        -4.9825
  75   2.0000      -0.179563        -4.8862
  76   2.0000      -0.164873        -4.4864
  77   2.0000      -0.156869        -4.2686
  78   2.0000      -0.148054        -4.0288
  79   2.0000      -0.145989        -3.9725
  80   2.0000      -0.144674        -3.9368
  81   2.0000      -0.131611        -3.5813
  82   0.0000       0.050157         1.3648
  83   0.0000       0.072921         1.9843
  84   0.0000       0.110976         3.0198
  85   0.0000       0.117735         3.2037
  86   0.0000       0.150378         4.0920

MULLIKEN ATOMIC CHARGES
-----------------------
   0 Pd:    0.184786
   1 Cl:   -0.384500
   2 Cl:   -0.387992
   3 Cl:   -0.464339
   4 N :   -0.584349
   5 C :    0.029067
   6 C :   -0.340160
   7 C :   -0.156100
   8 C :    0.400616
   9 C :    0.051582
  10 H :    0.207227
  11 H :    0.289381
  12 H :    0.216839
  13 C :    0.031492
  14 C :   -0.307713
  15 C :   -0.295587
  16 C :    0.147101
  17 H :    0.191021
  18 H :    0.193795
  19 C :   -0.076079
  20 C :   -0.333025
  21 C :   -0.345724
  22 C :   -0.187845
  23 H :    0.183597
  24 H :    0.191691
  25 H :    0.320970
  26 H :    0.224250
Sum of atomic charges:   -1.0000000

LOEWDIN ATOMIC CHARGES
----------------------
   0 Pd:   -0.788772
   1 Cl:   -0.106663
   2 Cl:   -0.252141
   3 Cl:   -0.220041
   4 N :    0.043832
   5 C :   -0.001240
   6 C :   -0.172848
   7 C :   -0.090697
   8 C :    0.090895
   9 C :   -0.060296
  10 H :    0.133138
  11 H :    0.169608
  12 H :    0.138984
  13 C :   -0.030460
  14 C :   -0.144641
  15 C :   -0.115786
  16 C :   -0.036398
  17 H :    0.128307
  18 H :    0.130010
  19 C :   -0.002701
  20 C :   -0.161280
  21 C :   -0.128490
  22 C :   -0.125762
  23 H :    0.122723
  24 H :    0.125624
  25 H :    0.209280
  26 H :    0.145813

  Mayer bond orders larger than 0.100000
B(  0-Pd,  1-Cl) :   0.7597 B(  0-Pd,  3-Cl) :   0.6928 B(  0-Pd,  4-N ) :   0.4254
B(  0-Pd, 19-C ) :   0.8007 B(  1-Cl, 25-H ) :   0.1365 B(  2-Cl, 25-H ) :   0.7677
B(  3-Cl, 19-C ) :   0.1041 B(  4-N ,  5-C ) :   1.4878 B(  4-N ,  8-C ) :   1.1222
B(  5-C ,  6-C ) :   1.2988 B(  5-C , 11-H ) :   0.8511 B(  6-C ,  7-C ) :   1.4581
B(  6-C , 12-H ) :   0.9225 B(  7-C ,  9-C ) :   1.2766 B(  7-C , 10-H ) :   0.9299
B(  8-C ,  9-C ) :   1.2303 B(  8-C , 13-C ) :   1.1475 B(  9-C , 14-C ) :   1.1650
B( 13-C , 16-C ) :   1.2571 B( 13-C , 19-C ) :   1.1841 B( 14-C , 15-C ) :   1.6493
B( 14-C , 17-H ) :   0.9306 B( 15-C , 16-C ) :   1.1557 B( 15-C , 18-H ) :   0.9290
B( 16-C , 20-C ) :   1.2826 B( 19-C , 21-C ) :   1.4543 B( 20-C , 22-C ) :   1.4865
B( 20-C , 23-H ) :   0.9318 B( 21-C , 22-C ) :   1.3502 B( 21-C , 26-H ) :   0.9039
B( 22-C , 24-H ) :   0.9262

Dispersion correction           -0.023961985
FINAL SINGLE POINT ENERGY     -2061.531935045949
Dispersion correction            ... done

DIPOLE MOMENT
-------------
                                X             Y             Z
Electronic contribution:    -78.72214     -45.96014      16.94926
Nuclear contribution   :     81.56303      49.38639     -17.03036
                        -----------------------------------------
Total Dipole Moment    :      2.84089       3.42624      -0.08111
                        -----------------------------------------
Magnitude (a.u.)       :      4.45156
Magnitude (Debye)      :     11.31496

Rotational constants in cm-1:     0.011062     0.007809     0.005352
Rotational constants in MHz :   331.642863   234.107669   160.444227

                             ****ORCA TERMINATED NORMALLY****
TOTAL RUN TIME: 0 days 0 hours 13 minutes 41 seconds 623 msec
