                         Program Version 5.0.3 -  RELEASE  -
|  1> ! EnGrad PBEh-3c
|  2> %output
|  3> xyzfile=True
|  4> end
|  5> %scf
|  6> maxiter 250
|  7> end
|  8> %output
|  9> Print[P_Hirshfeld] = 1
| 10> end
| 11> % maxcore
| 12> 4000
| 13> *xyz -1 1
| 14> C   -1.84320747   0.05347111   0.56888710
| 15> C   -1.59665503   1.06560353   1.49728041
| 16> C   -3.08157531   0.01939463  -0.07136881
| 17> C   -4.09481943   0.91345978   0.22504357
| 18> C   -3.83273342   1.95950069   1.08791389
| 19> C   -2.60396511   2.01178527   1.71506977
| 20> H   -1.91325508  -2.98886108  -2.19245673
| 21> H   -3.33165461  -0.74247358  -0.79578110
| 22> H   -2.51258843   2.72401032   2.53106293
| 23> H   -5.06523832   0.81616151  -0.24767368
| 24> H   -4.61325267   2.67277300   1.32329441
| 25> C   -0.44348602   1.11031745   2.46463522
| 26> C    0.82612003   0.29362022   2.28414984
| 27> H   -0.83308986   0.88741873   3.46720336
| 28> H   -0.11992523   2.15539186   2.53420415
| 29> C    1.60600136   0.70688839   1.06913032
| 30> H    0.58483403  -0.77047367   2.25393591
| 31> H    1.45522565   0.40010333   3.17803053
| 32> C    1.32618405   0.13501081  -0.17745982
| 33> C    2.15782340   0.48910581  -1.23914138
| 34> C    3.18856105   1.41376887  -1.10971984
| 35> C    2.72827222   1.52049627   1.22264567
| 36> C    3.40725217   2.01596110   0.11795166
| 37> H    2.09488538  -0.02986055  -2.18825592
| 38> H    3.82730108   1.65097476  -1.95307711
| 39> H    3.04180543   1.83402317   2.21426102
| 40> H    4.17229185   2.77468135   0.23029067
| 41> Pd   0.01709848  -1.33870634  -0.33954681
| 42> Br  -1.61112757  -3.56830277   0.21430287
| 43> P    1.51373670  -2.99376101  -0.28883674
| 44> H    1.68316808  -3.72980475   0.90075431
| 45> C    0.02107004  -1.70353881  -3.71865895
| 46> O    1.12348271  -1.69993878  -4.20669521
| 47> O   -0.55703754  -2.79887525  -3.31739638
| 48> O   -0.78040186  -0.62841503  -3.73269671
| 49> H    2.88091253  -2.70007956  -0.45343161
| 50> H    1.43873690  -4.08903427  -1.16077749
| 51> H   -0.26077882   0.15819885  -3.90706532
| 52> *
| 53>
| 54>                          ****END OF INPUT****

CARTESIAN COORDINATES (ANGSTROEM)
---------------------------------
  C     -1.843207    0.053471    0.568887
  C     -1.596655    1.065604    1.497280
  C     -3.081575    0.019395   -0.071369
  C     -4.094819    0.913460    0.225044
  C     -3.832733    1.959501    1.087914
  C     -2.603965    2.011785    1.715070
  H     -1.913255   -2.988861   -2.192457
  H     -3.331655   -0.742474   -0.795781
  H     -2.512588    2.724010    2.531063
  H     -5.065238    0.816162   -0.247674
  H     -4.613253    2.672773    1.323294
  C     -0.443486    1.110317    2.464635
  C      0.826120    0.293620    2.284150
  H     -0.833090    0.887419    3.467203
  H     -0.119925    2.155392    2.534204
  C      1.606001    0.706888    1.069130
  H      0.584834   -0.770474    2.253936
  H      1.455226    0.400103    3.178031
  C      1.326184    0.135011   -0.177460
  C      2.157823    0.489106   -1.239141
  C      3.188561    1.413769   -1.109720
  C      2.728272    1.520496    1.222646
  C      3.407252    2.015961    0.117952
  H      2.094885   -0.029861   -2.188256
  H      3.827301    1.650975   -1.953077
  H      3.041805    1.834023    2.214261
  H      4.172292    2.774681    0.230291
  Pd     0.017098   -1.338706   -0.339547
  Br    -1.611128   -3.568303    0.214303
  P      1.513737   -2.993761   -0.288837
  H      1.683168   -3.729805    0.900754
  C      0.021070   -1.703539   -3.718659
  O      1.123483   -1.699939   -4.206695
  O     -0.557038   -2.798875   -3.317396
  O     -0.780402   -0.628415   -3.732697
  H      2.880913   -2.700080   -0.453432
  H      1.438737   -4.089034   -1.160777
  H     -0.260779    0.158199   -3.907065

 Total Charge           Charge          ....   -1
 Multiplicity           Mult            ....    1
 Number of Electrons    NEL             ....  200
 Basis Dimension        Dim             ....  385

ORBITAL ENERGIES
----------------

  NO   OCC          E(Eh)            E(eV)
   0   2.0000    -484.367258    -13180.3032
   1   2.0000     -77.660651     -2113.2537
   2   2.0000     -63.028073     -1715.0811
   3   2.0000     -56.731390     -1543.7396
   4   2.0000     -56.731168     -1543.7336
   5   2.0000     -56.730547     -1543.7167
   6   2.0000     -19.412246      -528.2341
   7   2.0000     -19.382305      -527.4193
   8   2.0000     -19.340398      -526.2790
   9   2.0000     -10.479385      -285.1586
  10   2.0000     -10.338802      -281.3331
  11   2.0000     -10.336907      -281.2815
  12   2.0000     -10.336331      -281.2659
  13   2.0000     -10.335618      -281.2465
  14   2.0000     -10.334968      -281.2288
  15   2.0000     -10.326940      -281.0103
  16   2.0000     -10.326231      -280.9910
  17   2.0000     -10.325332      -280.9666
  18   2.0000     -10.323745      -280.9234
  19   2.0000     -10.320162      -280.8259
  20   2.0000     -10.317773      -280.7609
  21   2.0000     -10.316382      -280.7230
  22   2.0000     -10.308568      -280.5104
  23   2.0000     -10.306785      -280.4619
  24   2.0000      -8.854818      -240.9518
  25   2.0000      -6.736637      -183.3132
  26   2.0000      -6.623697      -180.2400
  27   2.0000      -6.621083      -180.1688
  28   2.0000      -6.617953      -180.0836
  29   2.0000      -4.827521      -131.3635
  30   2.0000      -4.827117      -131.3525
  31   2.0000      -4.825941      -131.3205
  32   2.0000      -3.517334       -95.7115
  33   2.0000      -2.638175       -71.7884
  34   2.0000      -2.637953       -71.7823
  35   2.0000      -2.635311       -71.7105
  36   2.0000      -2.633051       -71.6489
  37   2.0000      -2.632558       -71.6355
  38   2.0000      -2.163763       -58.8790
  39   2.0000      -2.158029       -58.7229
  40   2.0000      -2.133831       -58.0645
  41   2.0000      -1.111059       -30.2335
  42   2.0000      -1.002487       -27.2791
  43   2.0000      -0.955361       -25.9967
  44   2.0000      -0.844919       -22.9914
  45   2.0000      -0.826216       -22.4825
  46   2.0000      -0.775387       -21.0994
  47   2.0000      -0.727846       -19.8057
  48   2.0000      -0.716669       -19.5015
  49   2.0000      -0.695026       -18.9126
  50   2.0000      -0.677101       -18.4249
  51   2.0000      -0.670697       -18.2506
  52   2.0000      -0.636226       -17.3126
  53   2.0000      -0.602575       -16.3969
  54   2.0000      -0.571613       -15.5544
  55   2.0000      -0.563103       -15.3228
  56   2.0000      -0.542386       -14.7591
  57   2.0000      -0.540735       -14.7142
  58   2.0000      -0.509437       -13.8625
  59   2.0000      -0.460588       -12.5332
  60   2.0000      -0.443420       -12.0661
  61   2.0000      -0.439332       -11.9548
  62   2.0000      -0.421700       -11.4750
  63   2.0000      -0.416454       -11.3323
  64   2.0000      -0.408337       -11.1114
  65   2.0000      -0.404689       -11.0121
  66   2.0000      -0.387427       -10.5424
  67   2.0000      -0.380198       -10.3457
  68   2.0000      -0.375805       -10.2262
  69   2.0000      -0.360732        -9.8160
  70   2.0000      -0.356793        -9.7088
  71   2.0000      -0.352499        -9.5920
  72   2.0000      -0.349406        -9.5078
  73   2.0000      -0.340578        -9.2676
  74   2.0000      -0.332334        -9.0433
  75   2.0000      -0.328475        -8.9383
  76   2.0000      -0.321669        -8.7531
  77   2.0000      -0.307579        -8.3697
  78   2.0000      -0.298038        -8.1100
  79   2.0000      -0.291293        -7.9265
  80   2.0000      -0.283165        -7.7053
  81   2.0000      -0.270174        -7.3518
  82   2.0000      -0.267288        -7.2733
  83   2.0000      -0.262013        -7.1297
  84   2.0000      -0.257399        -7.0042
  85   2.0000      -0.255124        -6.9423
  86   2.0000      -0.244499        -6.6532
  87   2.0000      -0.230642        -6.2761
  88   2.0000      -0.217488        -5.9181
  89   2.0000      -0.212933        -5.7942
  90   2.0000      -0.210995        -5.7415
  91   2.0000      -0.192663        -5.2426
  92   2.0000      -0.184689        -5.0257
  93   2.0000      -0.181281        -4.9329
  94   2.0000      -0.172274        -4.6878
  95   2.0000      -0.163447        -4.4476
  96   2.0000      -0.155383        -4.2282
  97   2.0000      -0.155145        -4.2217
  98   2.0000      -0.148244        -4.0339
  99   2.0000      -0.114890        -3.1263
 100   0.0000       0.021889         0.5956
 101   0.0000       0.083010         2.2588
 102   0.0000       0.127979         3.4825
 103   0.0000       0.131300         3.5728
 104   0.0000       0.144647         3.9361

MULLIKEN ATOMIC CHARGES
-----------------------
   0 C :   -0.077885
   1 C :    0.060542
   2 C :   -0.278228
   3 C :   -0.225004
   4 C :   -0.231124
   5 C :   -0.251993
   6 H :    0.317658
   7 H :    0.191502
   8 H :    0.163892
   9 H :    0.174526
  10 H :    0.172368
  11 C :   -0.458162
  12 C :   -0.523312
  13 H :    0.210775
  14 H :    0.208033
  15 C :    0.138805
  16 H :    0.270143
  17 H :    0.196616
  18 C :   -0.105120
  19 C :   -0.291463
  20 C :   -0.232040
  21 C :   -0.294413
  22 C :   -0.226133
  23 H :    0.235772
  24 H :    0.190135
  25 H :    0.179967
  26 H :    0.179345
  27 Pd:    0.066503
  28 Br:   -0.443976
  29 P :   -0.160438
  30 H :    0.104537
  31 C :    0.677414
  32 O :   -0.479667
  33 O :   -0.522448
  34 O :   -0.594948
  35 H :    0.086104
  36 H :    0.133743
  37 H :    0.437975
Sum of atomic charges:   -1.0000000

LOEWDIN ATOMIC CHARGES
----------------------
   0 C :   -0.087972
   1 C :   -0.055954
   2 C :   -0.135364
   3 C :   -0.163039
   4 C :   -0.168463
   5 C :   -0.150480
   6 H :    0.332804
   7 H :    0.128938
   8 H :    0.113474
   9 H :    0.115025
  10 H :    0.114569
  11 C :   -0.213938
  12 C :   -0.210041
  13 H :    0.125905
  14 H :    0.125740
  15 C :   -0.032796
  16 H :    0.157632
  17 H :    0.117354
  18 C :    0.000062
  19 C :   -0.137270
  20 C :   -0.152356
  21 C :   -0.144635
  22 C :   -0.164567
  23 H :    0.149060
  24 H :    0.122951
  25 H :    0.120143
  26 H :    0.118110
  27 Pd:   -0.825299
  28 Br:   -0.252454
  29 P :    0.381519
  30 H :    0.045365
  31 C :    0.094154
  32 O :   -0.289930
  33 O :   -0.302654
  34 O :   -0.299640
  35 H :    0.031462
  36 H :    0.061198
  37 H :    0.331386

  Mayer bond orders larger than 0.100000
B(  0-C ,  1-C ) :   1.4142 B(  0-C ,  2-C ) :   1.4160 B(  0-C , 27-Pd) :   0.5882
B(  1-C ,  5-C ) :   1.3653 B(  1-C , 11-C ) :   0.9625 B(  2-C ,  3-C ) :   1.4334
B(  2-C ,  7-H ) :   0.9185 B(  3-C ,  4-C ) :   1.4202 B(  3-C ,  9-H ) :   0.9266
B(  4-C ,  5-C ) :   1.4511 B(  4-C , 10-H ) :   0.9300 B(  5-C ,  8-H ) :   0.9301
B(  6-H , 28-Br) :   0.3187 B(  6-H , 33-O ) :   0.4766 B( 11-C , 12-C ) :   0.9867
B( 11-C , 13-H ) :   0.9127 B( 11-C , 14-H ) :   0.9179 B( 12-C , 15-C ) :   0.9586
B( 12-C , 16-H ) :   0.8785 B( 12-C , 17-H ) :   0.9255 B( 15-C , 18-C ) :   1.3376
B( 15-C , 21-C ) :   1.4079 B( 18-C , 19-C ) :   1.3929 B( 18-C , 27-Pd) :   0.8312
B( 19-C , 20-C ) :   1.4154 B( 19-C , 23-H ) :   0.8932 B( 20-C , 22-C ) :   1.4348
B( 20-C , 24-H ) :   0.9254 B( 21-C , 22-C ) :   1.4208 B( 21-C , 25-H ) :   0.9275
B( 22-C , 26-H ) :   0.9290 B( 27-Pd, 28-Br) :   0.3382 B( 27-Pd, 29-P ) :   0.6140
B( 29-P , 30-H ) :   0.9322 B( 29-P , 35-H ) :   0.9224 B( 29-P , 36-H ) :   0.9292
B( 31-C , 32-O ) :   1.8820 B( 31-C , 33-O ) :   1.3393 B( 31-C , 34-O ) :   1.0755
B( 34-O , 37-H ) :   0.7602

Dispersion correction           -0.031994969
FINAL SINGLE POINT ENERGY     -3847.562718002592
Dispersion correction            ... done

DIPOLE MOMENT
-------------
                                X             Y             Z
Electronic contribution:      0.20833     -65.51132      -7.59576
Nuclear contribution   :      0.72312      65.72372       8.87587
                        -----------------------------------------
Total Dipole Moment    :      0.93145       0.21240       1.28011
                        -----------------------------------------
Magnitude (a.u.)       :      1.59730
Magnitude (Debye)      :      4.06002

Rotational constants in cm-1:     0.006902     0.006368     0.004806
Rotational constants in MHz :   206.919063   190.902067   144.090854

                             ****ORCA TERMINATED NORMALLY****
TOTAL RUN TIME: 0 days 0 hours 14 minutes 23 seconds 903 msec
