                         Program Version 5.0.3 -  RELEASE  -
|  1> ! EnGrad PBEh-3c
|  2> %output
|  3> xyzfile=True
|  4> end
|  5> %scf
|  6> maxiter 250
|  7> end
|  8> %output
|  9> Print[P_Hirshfeld] = 1
| 10> end
| 11> % maxcore
| 12> 4000
| 13> *xyz -1 1
| 14> C   -1.76826314   0.02997318   0.51397226
| 15> C   -1.63167894   1.04652507   1.49455382
| 16> C   -3.10281738  -0.00307036  -0.04907263
| 17> C   -4.11446525   0.90746545   0.23907498
| 18> C   -3.85839197   1.94170571   1.11151330
| 19> C   -2.62037552   2.01356492   1.74364205
| 20> H   -1.83399132  -2.92840168  -2.22500101
| 21> H   -3.34995058  -0.78022979  -0.75048964
| 22> H   -2.50136290   2.74262291   2.51428549
| 23> H   -5.09026934   0.79467889  -0.21012609
| 24> H   -4.62679994   2.66301515   1.34982171
| 25> C   -0.42677050   1.15366352   2.46773861
| 26> C    0.81867881   0.28753903   2.26838406
| 27> H   -0.82634869   0.91689898   3.45031697
| 28> H   -0.11814044   2.16993697   2.49535135
| 29> C    1.63042349   0.66933663   1.07407014
| 30> H    0.57367165  -0.76370537   2.23900019
| 31> H    1.44415600   0.41396886   3.16537243
| 32> C    1.34221915   0.13821634  -0.19841492
| 33> C    2.18339149   0.46757355  -1.25904209
| 34> C    3.18970832   1.41934897  -1.10748863
| 35> C    2.71323436   1.54529552   1.21206810
| 36> C    3.44223329   1.98656528   0.11870500
| 37> H    2.10808429  -0.04252017  -2.19307945
| 38> H    3.84328666   1.64013981  -1.95438719
| 39> H    3.03767587   1.83253530   2.21138690
| 40> H    4.18934973   2.76246871   0.23291291
| 41> Pd  -0.09269538  -1.30303571  -0.27880539
| 42> Br  -1.61033580  -3.55569498   0.13229656
| 43> P    1.54731965  -3.00031024  -0.29418398
| 44> H    1.65846678  -3.71958191   0.91671765
| 45> C   -0.02521577  -1.74122877  -3.73789604
| 46> O    1.16817383  -1.68981706  -4.19840005
| 47> O   -0.62658880  -2.78288652  -3.24504875
| 48> O   -0.77334269  -0.60499935  -3.72934848
| 49> H    2.88587857  -2.70665964  -0.43200198
| 50> H    1.44418248  -4.09162149  -1.15051802
| 51> H   -0.22397574   0.16986934  -3.94046247
| 52> *
| 53>
| 54>                          ****END OF INPUT****

CARTESIAN COORDINATES (ANGSTROEM)
---------------------------------
  C     -1.768263    0.029973    0.513972
  C     -1.631679    1.046525    1.494554
  C     -3.102817   -0.003070   -0.049073
  C     -4.114465    0.907465    0.239075
  C     -3.858392    1.941706    1.111513
  C     -2.620376    2.013565    1.743642
  H     -1.833991   -2.928402   -2.225001
  H     -3.349951   -0.780230   -0.750490
  H     -2.501363    2.742623    2.514285
  H     -5.090269    0.794679   -0.210126
  H     -4.626800    2.663015    1.349822
  C     -0.426770    1.153664    2.467739
  C      0.818679    0.287539    2.268384
  H     -0.826349    0.916899    3.450317
  H     -0.118140    2.169937    2.495351
  C      1.630423    0.669337    1.074070
  H      0.573672   -0.763705    2.239000
  H      1.444156    0.413969    3.165372
  C      1.342219    0.138216   -0.198415
  C      2.183391    0.467574   -1.259042
  C      3.189708    1.419349   -1.107489
  C      2.713234    1.545296    1.212068
  C      3.442233    1.986565    0.118705
  H      2.108084   -0.042520   -2.193079
  H      3.843287    1.640140   -1.954387
  H      3.037676    1.832535    2.211387
  H      4.189350    2.762469    0.232913
  Pd    -0.092695   -1.303036   -0.278805
  Br    -1.610336   -3.555695    0.132297
  P      1.547320   -3.000310   -0.294184
  H      1.658467   -3.719582    0.916718
  C     -0.025216   -1.741229   -3.737896
  O      1.168174   -1.689817   -4.198400
  O     -0.626589   -2.782887   -3.245049
  O     -0.773343   -0.604999   -3.729348
  H      2.885879   -2.706660   -0.432002
  H      1.444182   -4.091621   -1.150518
  H     -0.223976    0.169869   -3.940462

 Total Charge           Charge          ....   -1
 Multiplicity           Mult            ....    1
 Number of Electrons    NEL             ....  200
 Basis Dimension        Dim             ....  385

ORBITAL ENERGIES
----------------

  NO   OCC          E(Eh)            E(eV)
   0   2.0000    -484.365643    -13180.2592
   1   2.0000     -77.658778     -2113.2028
   2   2.0000     -63.026570     -1715.0402
   3   2.0000     -56.729899     -1543.6990
   4   2.0000     -56.729653     -1543.6924
   5   2.0000     -56.729054     -1543.6760
   6   2.0000     -19.414548      -528.2967
   7   2.0000     -19.402390      -527.9659
   8   2.0000     -19.341396      -526.3062
   9   2.0000     -10.496837      -285.6335
  10   2.0000     -10.336061      -281.2585
  11   2.0000     -10.334821      -281.2248
  12   2.0000     -10.334204      -281.2080
  13   2.0000     -10.333528      -281.1896
  14   2.0000     -10.332861      -281.1715
  15   2.0000     -10.326306      -280.9931
  16   2.0000     -10.324333      -280.9394
  17   2.0000     -10.322652      -280.8936
  18   2.0000     -10.321803      -280.8705
  19   2.0000     -10.319593      -280.8104
  20   2.0000     -10.316545      -280.7275
  21   2.0000     -10.315677      -280.7038
  22   2.0000     -10.315160      -280.6898
  23   2.0000     -10.312486      -280.6170
  24   2.0000      -8.853434      -240.9142
  25   2.0000      -6.735594      -183.2848
  26   2.0000      -6.621979      -180.1932
  27   2.0000      -6.619905      -180.1368
  28   2.0000      -6.616783      -180.0518
  29   2.0000      -4.826527      -131.3365
  30   2.0000      -4.826173      -131.3268
  31   2.0000      -4.824553      -131.2828
  32   2.0000      -3.510285       -95.5197
  33   2.0000      -2.636573       -71.7448
  34   2.0000      -2.636446       -71.7414
  35   2.0000      -2.633815       -71.6697
  36   2.0000      -2.631964       -71.6194
  37   2.0000      -2.631481       -71.6062
  38   2.0000      -2.155149       -58.6446
  39   2.0000      -2.151029       -58.5325
  40   2.0000      -2.126476       -57.8644
  41   2.0000      -1.097596       -29.8671
  42   2.0000      -0.993362       -27.0308
  43   2.0000      -0.946727       -25.7617
  44   2.0000      -0.841576       -22.9005
  45   2.0000      -0.818005       -22.2591
  46   2.0000      -0.771831       -21.0026
  47   2.0000      -0.722689       -19.6654
  48   2.0000      -0.714414       -19.4402
  49   2.0000      -0.690090       -18.7783
  50   2.0000      -0.673604       -18.3297
  51   2.0000      -0.670771       -18.2526
  52   2.0000      -0.638646       -17.3785
  53   2.0000      -0.600419       -16.3382
  54   2.0000      -0.571746       -15.5580
  55   2.0000      -0.560090       -15.2408
  56   2.0000      -0.542891       -14.7728
  57   2.0000      -0.536414       -14.5966
  58   2.0000      -0.507658       -13.8141
  59   2.0000      -0.460370       -12.5273
  60   2.0000      -0.457464       -12.4482
  61   2.0000      -0.442171       -12.0321
  62   2.0000      -0.417006       -11.3473
  63   2.0000      -0.414300       -11.2737
  64   2.0000      -0.403950       -10.9920
  65   2.0000      -0.398368       -10.8401
  66   2.0000      -0.383109       -10.4249
  67   2.0000      -0.378713       -10.3053
  68   2.0000      -0.374785       -10.1984
  69   2.0000      -0.367118        -9.9898
  70   2.0000      -0.358107        -9.7446
  71   2.0000      -0.350364        -9.5339
  72   2.0000      -0.345901        -9.4124
  73   2.0000      -0.337881        -9.1942
  74   2.0000      -0.331457        -9.0194
  75   2.0000      -0.325945        -8.8694
  76   2.0000      -0.313919        -8.5422
  77   2.0000      -0.301422        -8.2021
  78   2.0000      -0.293418        -7.9843
  79   2.0000      -0.287992        -7.8366
  80   2.0000      -0.282934        -7.6990
  81   2.0000      -0.275531        -7.4976
  82   2.0000      -0.268772        -7.3136
  83   2.0000      -0.265648        -7.2286
  84   2.0000      -0.254081        -6.9139
  85   2.0000      -0.244935        -6.6650
  86   2.0000      -0.238999        -6.5035
  87   2.0000      -0.225536        -6.1372
  88   2.0000      -0.214349        -5.8327
  89   2.0000      -0.211084        -5.7439
  90   2.0000      -0.204290        -5.5590
  91   2.0000      -0.191205        -5.2030
  92   2.0000      -0.189244        -5.1496
  93   2.0000      -0.179191        -4.8760
  94   2.0000      -0.170055        -4.6274
  95   2.0000      -0.164600        -4.4790
  96   2.0000      -0.156648        -4.2626
  97   2.0000      -0.151631        -4.1261
  98   2.0000      -0.146223        -3.9789
  99   2.0000      -0.126402        -3.4396
 100   0.0000       0.044099         1.2000
 101   0.0000       0.093339         2.5399
 102   0.0000       0.129002         3.5103
 103   0.0000       0.133961         3.6453
 104   0.0000       0.147946         4.0258

MULLIKEN ATOMIC CHARGES
-----------------------
   0 C :   -0.063597
   1 C :    0.020571
   2 C :   -0.291159
   3 C :   -0.204779
   4 C :   -0.245630
   5 C :   -0.227629
   6 H :    0.369436
   7 H :    0.187958
   8 H :    0.170956
   9 H :    0.174860
  10 H :    0.170470
  11 C :   -0.455108
  12 C :   -0.523310
  13 H :    0.209564
  14 H :    0.217985
  15 C :    0.147031
  16 H :    0.272202
  17 H :    0.192888
  18 C :   -0.106401
  19 C :   -0.302652
  20 C :   -0.235334
  21 C :   -0.294801
  22 C :   -0.220608
  23 H :    0.245375
  24 H :    0.183937
  25 H :    0.173865
  26 H :    0.180510
  27 Pd:    0.044045
  28 Br:   -0.458564
  29 P :   -0.149739
  30 H :    0.105032
  31 C :    0.723927
  32 O :   -0.541862
  33 O :   -0.539891
  34 O :   -0.600345
  35 H :    0.095324
  36 H :    0.133229
  37 H :    0.442245
Sum of atomic charges:   -1.0000000

LOEWDIN ATOMIC CHARGES
----------------------
   0 C :   -0.072342
   1 C :   -0.042784
   2 C :   -0.125206
   3 C :   -0.171613
   4 C :   -0.164361
   5 C :   -0.161297
   6 H :    0.372274
   7 H :    0.127757
   8 H :    0.117424
   9 H :    0.117117
  10 H :    0.112791
  11 C :   -0.220034
  12 C :   -0.210310
  13 H :    0.126021
  14 H :    0.128365
  15 C :   -0.035402
  16 H :    0.159590
  17 H :    0.116492
  18 C :   -0.000970
  19 C :   -0.143092
  20 C :   -0.150618
  21 C :   -0.146031
  22 C :   -0.167994
  23 H :    0.150145
  24 H :    0.121129
  25 H :    0.118571
  26 H :    0.119439
  27 Pd:   -0.838191
  28 Br:   -0.247883
  29 P :    0.358065
  30 H :    0.046788
  31 C :    0.162903
  32 O :   -0.370847
  33 O :   -0.306280
  34 O :   -0.312823
  35 H :    0.036672
  36 H :    0.061046
  37 H :    0.335490

  Mayer bond orders larger than 0.100000
B(  0-C ,  1-C ) :   1.3971 B(  0-C ,  2-C ) :   1.3751 B(  0-C , 27-Pd) :   0.6537
B(  1-C ,  5-C ) :   1.3595 B(  1-C , 11-C ) :   0.9629 B(  2-C ,  3-C ) :   1.4351
B(  2-C ,  7-H ) :   0.9206 B(  3-C ,  4-C ) :   1.4156 B(  3-C ,  9-H ) :   0.9287
B(  4-C ,  5-C ) :   1.4524 B(  4-C , 10-H ) :   0.9290 B(  5-C ,  8-H ) :   0.9296
B(  6-H , 28-Br) :   0.3039 B(  6-H , 33-O ) :   0.4751 B( 11-C , 12-C ) :   0.9888
B( 11-C , 13-H ) :   0.9155 B( 11-C , 14-H ) :   0.9155 B( 12-C , 15-C ) :   0.9638
B( 12-C , 16-H ) :   0.8767 B( 12-C , 17-H ) :   0.9244 B( 15-C , 18-C ) :   1.3392
B( 15-C , 21-C ) :   1.4137 B( 18-C , 19-C ) :   1.4144 B( 18-C , 27-Pd) :   0.8125
B( 19-C , 20-C ) :   1.4091 B( 19-C , 23-H ) :   0.8875 B( 20-C , 22-C ) :   1.4402
B( 20-C , 24-H ) :   0.9274 B( 21-C , 22-C ) :   1.4131 B( 21-C , 25-H ) :   0.9282
B( 22-C , 26-H ) :   0.9291 B( 27-Pd, 28-Br) :   0.3736 B( 27-Pd, 29-P ) :   0.5126
B( 29-P , 30-H ) :   0.9396 B( 29-P , 35-H ) :   0.9257 B( 29-P , 36-H ) :   0.9352
B( 31-C , 32-O ) :   1.8045 B( 31-C , 33-O ) :   1.3467 B( 31-C , 34-O ) :   1.0693
B( 34-O , 37-H ) :   0.7570

Dispersion correction           -0.031997981
FINAL SINGLE POINT ENERGY     -3847.602098032382
Dispersion correction            ... done

DIPOLE MOMENT
-------------
                                X             Y             Z
Electronic contribution:     -5.79622     -63.76352      -4.46505
Nuclear contribution   :      6.65685      63.78005       5.66453
                        -----------------------------------------
Total Dipole Moment    :      0.86063       0.01653       1.19948
                        -----------------------------------------
Magnitude (a.u.)       :      1.47638
Magnitude (Debye)      :      3.75266

Rotational constants in cm-1:     0.006944     0.006403     0.004801
Rotational constants in MHz :   208.179964   191.957469   143.920311

                             ****ORCA TERMINATED NORMALLY****
TOTAL RUN TIME: 0 days 0 hours 13 minutes 59 seconds 42 msec
