                         Program Version 5.0.3 -  RELEASE  -
|  1> ! EnGrad PBEh-3c
|  2> %output
|  3> xyzfile=True
|  4> end
|  5> %scf
|  6> maxiter 250
|  7> end
|  8> %output
|  9> Print[P_Hirshfeld] = 1
| 10> end
| 11> % maxcore
| 12> 4000
| 13> *xyz -1 1
| 14> C   -1.75570379   0.02776319   0.49625220
| 15> C   -1.63490712   1.04009938   1.49452037
| 16> C   -3.10241741  -0.01239330  -0.03782321
| 17> C   -4.11965851   0.90034769   0.24732774
| 18> C   -3.86575303   1.93729604   1.12415541
| 19> C   -2.63123273   2.00591551   1.74685937
| 20> H   -1.79832843  -2.90115725  -2.24150294
| 21> H   -3.35948140  -0.79706893  -0.73171160
| 22> H   -2.49648203   2.75233783   2.51049159
| 23> H   -5.10182397   0.78484862  -0.19383247
| 24> H   -4.63387687   2.65886109   1.36125980
| 25> C   -0.42682322   1.16029618   2.45978867
| 26> C    0.81724727   0.28994405   2.26453167
| 27> H   -0.82303679   0.93090000   3.44534857
| 28> H   -0.11488174   2.18291419   2.47817344
| 29> C    1.64014211   0.65964071   1.06981025
| 30> H    0.56739246  -0.76265972   2.23325119
| 31> H    1.43952753   0.41865982   3.15958522
| 32> C    1.34454550   0.13604541  -0.20273589
| 33> C    2.19266187   0.46206655  -1.26172535
| 34> C    3.19449447   1.41749684  -1.11184105
| 35> C    2.70915189   1.54992049   1.21053441
| 36> C    3.45362649   1.97780092   0.12048030
| 37> H    2.11406220  -0.04942054  -2.19881357
| 38> H    3.84964408   1.63548571  -1.95356509
| 39> H    3.03567858   1.83250114   2.20947650
| 40> H    4.19713868   2.75681309   0.23386590
| 41> Pd  -0.12646724  -1.29078688  -0.25666962
| 42> Br  -1.61066411  -3.54985203   0.09802296
| 43> P    1.55018485  -2.99867467  -0.29310644
| 44> H    1.64824318  -3.71506804   0.92282251
| 45> C   -0.01838932  -1.74250463  -3.74734124
| 46> O    1.15530311  -1.69274935  -4.18529122
| 47> O   -0.65413481  -2.77556358  -3.21846529
| 48> O   -0.76690647  -0.59765551  -3.73154425
| 49> H    2.89212883  -2.70866823  -0.42285316
| 50> H    1.44727281  -4.09400148  -1.14675319
| 51> H   -0.20953189   0.16984603  -3.95422470
| 52> *
| 53>
| 54>                          ****END OF INPUT****

CARTESIAN COORDINATES (ANGSTROEM)
---------------------------------
  C     -1.755704    0.027763    0.496252
  C     -1.634907    1.040099    1.494520
  C     -3.102417   -0.012393   -0.037823
  C     -4.119659    0.900348    0.247328
  C     -3.865753    1.937296    1.124155
  C     -2.631233    2.005916    1.746859
  H     -1.798328   -2.901157   -2.241503
  H     -3.359481   -0.797069   -0.731712
  H     -2.496482    2.752338    2.510492
  H     -5.101824    0.784849   -0.193832
  H     -4.633877    2.658861    1.361260
  C     -0.426823    1.160296    2.459789
  C      0.817247    0.289944    2.264532
  H     -0.823037    0.930900    3.445349
  H     -0.114882    2.182914    2.478173
  C      1.640142    0.659641    1.069810
  H      0.567392   -0.762660    2.233251
  H      1.439528    0.418660    3.159585
  C      1.344545    0.136045   -0.202736
  C      2.192662    0.462067   -1.261725
  C      3.194494    1.417497   -1.111841
  C      2.709152    1.549920    1.210534
  C      3.453626    1.977801    0.120480
  H      2.114062   -0.049421   -2.198814
  H      3.849644    1.635486   -1.953565
  H      3.035679    1.832501    2.209476
  H      4.197139    2.756813    0.233866
  Pd    -0.126467   -1.290787   -0.256670
  Br    -1.610664   -3.549852    0.098023
  P      1.550185   -2.998675   -0.293106
  H      1.648243   -3.715068    0.922823
  C     -0.018389   -1.742505   -3.747341
  O      1.155303   -1.692749   -4.185291
  O     -0.654135   -2.775564   -3.218465
  O     -0.766906   -0.597656   -3.731544
  H      2.892129   -2.708668   -0.422853
  H      1.447273   -4.094001   -1.146753
  H     -0.209532    0.169846   -3.954225

 Total Charge           Charge          ....   -1
 Multiplicity           Mult            ....    1
 Number of Electrons    NEL             ....  200
 Basis Dimension        Dim             ....  385

ORBITAL ENERGIES
----------------

  NO   OCC          E(Eh)            E(eV)
   0   2.0000    -484.360730    -13180.1255
   1   2.0000     -77.657900     -2113.1789
   2   2.0000     -63.021723     -1714.9083
   3   2.0000     -56.725071     -1543.5677
   4   2.0000     -56.724776     -1543.5596
   5   2.0000     -56.724229     -1543.5447
   6   2.0000     -19.414351      -528.2914
   7   2.0000     -19.403768      -528.0034
   8   2.0000     -19.351902      -526.5920
   9   2.0000     -10.502053      -285.7754
  10   2.0000     -10.334338      -281.2116
  11   2.0000     -10.333625      -281.1922
  12   2.0000     -10.333261      -281.1823
  13   2.0000     -10.332917      -281.1730
  14   2.0000     -10.332533      -281.1625
  15   2.0000     -10.327087      -281.0143
  16   2.0000     -10.323511      -280.9170
  17   2.0000     -10.323068      -280.9050
  18   2.0000     -10.321989      -280.8756
  19   2.0000     -10.318957      -280.7931
  20   2.0000     -10.316728      -280.7324
  21   2.0000     -10.316487      -280.7259
  22   2.0000     -10.316184      -280.7176
  23   2.0000     -10.312877      -280.6276
  24   2.0000      -8.848647      -240.7839
  25   2.0000      -6.734548      -183.2564
  26   2.0000      -6.616904      -180.0551
  27   2.0000      -6.615281      -180.0109
  28   2.0000      -6.612182      -179.9266
  29   2.0000      -4.825479      -131.3080
  30   2.0000      -4.825155      -131.2992
  31   2.0000      -4.823453      -131.2528
  32   2.0000      -3.508225       -95.4637
  33   2.0000      -2.631608       -71.6097
  34   2.0000      -2.631543       -71.6079
  35   2.0000      -2.628927       -71.5367
  36   2.0000      -2.627444       -71.4964
  37   2.0000      -2.626932       -71.4825
  38   2.0000      -2.152482       -58.5720
  39   2.0000      -2.149424       -58.4888
  40   2.0000      -2.124228       -57.8032
  41   2.0000      -1.098788       -29.8995
  42   2.0000      -0.990138       -26.9430
  43   2.0000      -0.962923       -26.2025
  44   2.0000      -0.840239       -22.8641
  45   2.0000      -0.816759       -22.2251
  46   2.0000      -0.770451       -20.9650
  47   2.0000      -0.721242       -19.6260
  48   2.0000      -0.713056       -19.4032
  49   2.0000      -0.690144       -18.7798
  50   2.0000      -0.671862       -18.2823
  51   2.0000      -0.667902       -18.1745
  52   2.0000      -0.636825       -17.3289
  53   2.0000      -0.599360       -16.3094
  54   2.0000      -0.571393       -15.5484
  55   2.0000      -0.559277       -15.2187
  56   2.0000      -0.541064       -14.7231
  57   2.0000      -0.535368       -14.5681
  58   2.0000      -0.507147       -13.8002
  59   2.0000      -0.466534       -12.6950
  60   2.0000      -0.456507       -12.4222
  61   2.0000      -0.441119       -12.0034
  62   2.0000      -0.422002       -11.4832
  63   2.0000      -0.413467       -11.2510
  64   2.0000      -0.403236       -10.9726
  65   2.0000      -0.399988       -10.8842
  66   2.0000      -0.382134       -10.3984
  67   2.0000      -0.378253       -10.2928
  68   2.0000      -0.373416       -10.1612
  69   2.0000      -0.366022        -9.9600
  70   2.0000      -0.356768        -9.7081
  71   2.0000      -0.348657        -9.4874
  72   2.0000      -0.345688        -9.4066
  73   2.0000      -0.344483        -9.3739
  74   2.0000      -0.331130        -9.0105
  75   2.0000      -0.324948        -8.8423
  76   2.0000      -0.312791        -8.5115
  77   2.0000      -0.299448        -8.1484
  78   2.0000      -0.291511        -7.9324
  79   2.0000      -0.286655        -7.8003
  80   2.0000      -0.281699        -7.6654
  81   2.0000      -0.275590        -7.4992
  82   2.0000      -0.268157        -7.2969
  83   2.0000      -0.265416        -7.2223
  84   2.0000      -0.252284        -6.8650
  85   2.0000      -0.244273        -6.6470
  86   2.0000      -0.237393        -6.4598
  87   2.0000      -0.232179        -6.3179
  88   2.0000      -0.217633        -5.9221
  89   2.0000      -0.214309        -5.8317
  90   2.0000      -0.207341        -5.6420
  91   2.0000      -0.190561        -5.1854
  92   2.0000      -0.188221        -5.1217
  93   2.0000      -0.176269        -4.7965
  94   2.0000      -0.169840        -4.6216
  95   2.0000      -0.164229        -4.4689
  96   2.0000      -0.156244        -4.2516
  97   2.0000      -0.150132        -4.0853
  98   2.0000      -0.145215        -3.9515
  99   2.0000      -0.126045        -3.4299
 100   0.0000       0.061995         1.6870
 101   0.0000       0.096581         2.6281
 102   0.0000       0.129416         3.5216
 103   0.0000       0.134637         3.6636
 104   0.0000       0.148106         4.0302

MULLIKEN ATOMIC CHARGES
-----------------------
   0 C :   -0.057097
   1 C :    0.022371
   2 C :   -0.288121
   3 C :   -0.207982
   4 C :   -0.242706
   5 C :   -0.226535
   6 H :    0.389133
   7 H :    0.187862
   8 H :    0.169661
   9 H :    0.174838
  10 H :    0.170966
  11 C :   -0.455330
  12 C :   -0.521996
  13 H :    0.209794
  14 H :    0.216498
  15 C :    0.140909
  16 H :    0.271871
  17 H :    0.193012
  18 C :   -0.102122
  19 C :   -0.309592
  20 C :   -0.231123
  21 C :   -0.288229
  22 C :   -0.226776
  23 H :    0.241399
  24 H :    0.182966
  25 H :    0.172760
  26 H :    0.180289
  27 Pd:    0.038029
  28 Br:   -0.473295
  29 P :   -0.149434
  30 H :    0.105382
  31 C :    0.731662
  32 O :   -0.513644
  33 O :   -0.568339
  34 O :   -0.602554
  35 H :    0.094143
  36 H :    0.131873
  37 H :    0.439455
Sum of atomic charges:   -1.0000000

LOEWDIN ATOMIC CHARGES
----------------------
   0 C :   -0.064706
   1 C :   -0.040097
   2 C :   -0.122908
   3 C :   -0.172195
   4 C :   -0.165372
   5 C :   -0.161245
   6 H :    0.382892
   7 H :    0.128335
   8 H :    0.117043
   9 H :    0.117214
  10 H :    0.113029
  11 C :   -0.219611
  12 C :   -0.210692
  13 H :    0.126214
  14 H :    0.128309
  15 C :   -0.036601
  16 H :    0.160213
  17 H :    0.116555
  18 C :   -0.004857
  19 C :   -0.143854
  20 C :   -0.151988
  21 C :   -0.146757
  22 C :   -0.168320
  23 H :    0.147852
  24 H :    0.120743
  25 H :    0.118469
  26 H :    0.119184
  27 Pd:   -0.840888
  28 Br:   -0.256653
  29 P :    0.349211
  30 H :    0.047230
  31 C :    0.169570
  32 O :   -0.336135
  33 O :   -0.330310
  34 O :   -0.318271
  35 H :    0.035807
  36 H :    0.060176
  37 H :    0.333416

  Mayer bond orders larger than 0.100000
B(  0-C ,  1-C ) :   1.3914 B(  0-C ,  2-C ) :   1.3667 B(  0-C , 27-Pd) :   0.6792
B(  1-C ,  5-C ) :   1.3533 B(  1-C , 11-C ) :   0.9630 B(  2-C ,  3-C ) :   1.4360
B(  2-C ,  7-H ) :   0.9205 B(  3-C ,  4-C ) :   1.4104 B(  3-C ,  9-H ) :   0.9291
B(  4-C ,  5-C ) :   1.4566 B(  4-C , 10-H ) :   0.9286 B(  5-C ,  8-H ) :   0.9303
B(  6-H , 28-Br) :   0.2761 B(  6-H , 33-O ) :   0.4989 B( 11-C , 12-C ) :   0.9885
B( 11-C , 13-H ) :   0.9150 B( 11-C , 14-H ) :   0.9158 B( 12-C , 15-C ) :   0.9657
B( 12-C , 16-H ) :   0.8762 B( 12-C , 17-H ) :   0.9236 B( 15-C , 18-C ) :   1.3397
B( 15-C , 21-C ) :   1.4111 B( 18-C , 19-C ) :   1.4131 B( 18-C , 27-Pd) :   0.8034
B( 19-C , 20-C ) :   1.4124 B( 19-C , 23-H ) :   0.8906 B( 20-C , 22-C ) :   1.4377
B( 20-C , 24-H ) :   0.9276 B( 21-C , 22-C ) :   1.4157 B( 21-C , 25-H ) :   0.9284
B( 22-C , 26-H ) :   0.9289 B( 27-Pd, 28-Br) :   0.3911 B( 27-Pd, 29-P ) :   0.4831
B( 29-P , 30-H ) :   0.9412 B( 29-P , 35-H ) :   0.9256 B( 29-P , 36-H ) :   0.9362
B( 31-C , 32-O ) :   1.8535 B( 31-C , 33-O ) :   1.2946 B( 31-C , 34-O ) :   1.0636
B( 34-O , 37-H ) :   0.7595

Dispersion correction           -0.031986201
FINAL SINGLE POINT ENERGY     -3847.618419556002
Dispersion correction            ... done

DIPOLE MOMENT
-------------
                                X             Y             Z
Electronic contribution:     -7.50556     -63.08782      -3.48364
Nuclear contribution   :      8.44827      63.11428       4.50615
                        -----------------------------------------
Total Dipole Moment    :      0.94271       0.02646       1.02251
                        -----------------------------------------
Magnitude (a.u.)       :      1.39102
Magnitude (Debye)      :      3.53568

Rotational constants in cm-1:     0.006969     0.006423     0.004803
Rotational constants in MHz :   208.927056   192.542716   143.977876

                             ****ORCA TERMINATED NORMALLY****
TOTAL RUN TIME: 0 days 0 hours 13 minutes 59 seconds 401 msec
