                         Program Version 5.0.3 -  RELEASE  -
|  1> ! EnGrad PBEh-3c
|  2> %output
|  3> xyzfile=True
|  4> end
|  5> %scf
|  6> maxiter 250
|  7> end
|  8> %output
|  9> Print[P_Hirshfeld] = 1
| 10> end
| 11> % maxcore
| 12> 4000
| 13> *xyz -1 1
| 14> C   -1.75049601   0.03039582   0.47995907
| 15> C   -1.63446808   1.03296380   1.49281071
| 16> C   -3.10047191  -0.02481886  -0.02341355
| 17> C   -4.12503081   0.88827226   0.26116675
| 18> C   -3.87608989   1.93113779   1.13985463
| 19> C   -2.64365677   1.99357656   1.75017970
| 20> H   -1.74962253  -2.86266992  -2.26706372
| 21> H   -3.37329390  -0.81972560  -0.70559572
| 22> H   -2.49063763   2.76388144   2.50492981
| 23> H   -5.11714025   0.77068922  -0.17083675
| 24> H   -4.64424248   2.65305946   1.37711717
| 25> C   -0.42913748   1.16596513   2.44472459
| 26> C    0.81603651   0.29471220   2.25910918
| 27> H   -0.81802427   0.95126931   3.43936165
| 28> H   -0.11014907   2.20108580   2.45364179
| 29> C    1.65077385   0.65105490   1.06199586
| 30> H    0.55839152  -0.76114474   2.22603358
| 31> H    1.43370396   0.42434256   3.15220726
| 32> C    1.34548138   0.13139178  -0.20623488
| 33> C    2.20336567   0.45561446  -1.26368786
| 34> C    3.20369936   1.41246341  -1.11751841
| 35> C    2.70716873   1.55226679   1.20887285
| 36> C    3.46580595   1.96793906   0.12240363
| 37> H    2.12281303  -0.05880357  -2.20708400
| 38> H    3.85903578   1.62918376  -1.95267019
| 39> H    3.03296469   1.83279802   2.20684512
| 40> H    4.20809522   2.74894516   0.23511468
| 41> Pd  -0.16110599  -1.27750797  -0.23210000
| 42> Br  -1.61156806  -3.54234963   0.05403653
| 43> P    1.54785532  -2.99444758  -0.28932544
| 44> H    1.63451346  -3.70882370   0.93055728
| 45> C   -0.01140141  -1.73757440  -3.75128397
| 46> O    1.13333699  -1.70163884  -4.16820641
| 47> O   -0.68666342  -2.76286971  -3.18759363
| 48> O   -0.75505720  -0.58950322  -3.73789209
| 49> H    2.90170168  -2.71109771  -0.40986489
| 50> H    1.45200372  -4.09750609  -1.14142433
| 51> H   -0.19072331   0.16792931  -3.97279113
| 52> *
| 53>
| 54>                          ****END OF INPUT****

CARTESIAN COORDINATES (ANGSTROEM)
---------------------------------
  C     -1.750496    0.030396    0.479959
  C     -1.634468    1.032964    1.492811
  C     -3.100472   -0.024819   -0.023414
  C     -4.125031    0.888272    0.261167
  C     -3.876090    1.931138    1.139855
  C     -2.643657    1.993577    1.750180
  H     -1.749623   -2.862670   -2.267064
  H     -3.373294   -0.819726   -0.705596
  H     -2.490638    2.763881    2.504930
  H     -5.117140    0.770689   -0.170837
  H     -4.644242    2.653059    1.377117
  C     -0.429137    1.165965    2.444725
  C      0.816037    0.294712    2.259109
  H     -0.818024    0.951269    3.439362
  H     -0.110149    2.201086    2.453642
  C      1.650774    0.651055    1.061996
  H      0.558392   -0.761145    2.226034
  H      1.433704    0.424343    3.152207
  C      1.345481    0.131392   -0.206235
  C      2.203366    0.455614   -1.263688
  C      3.203699    1.412463   -1.117518
  C      2.707169    1.552267    1.208873
  C      3.465806    1.967939    0.122404
  H      2.122813   -0.058804   -2.207084
  H      3.859036    1.629184   -1.952670
  H      3.032965    1.832798    2.206845
  H      4.208095    2.748945    0.235115
  Pd    -0.161106   -1.277508   -0.232100
  Br    -1.611568   -3.542350    0.054037
  P      1.547855   -2.994448   -0.289325
  H      1.634513   -3.708824    0.930557
  C     -0.011401   -1.737574   -3.751284
  O      1.133337   -1.701639   -4.168206
  O     -0.686663   -2.762870   -3.187594
  O     -0.755057   -0.589503   -3.737892
  H      2.901702   -2.711098   -0.409865
  H      1.452004   -4.097506   -1.141424
  H     -0.190723    0.167929   -3.972791

 Total Charge           Charge          ....   -1
 Multiplicity           Mult            ....    1
 Number of Electrons    NEL             ....  200
 Basis Dimension        Dim             ....  385

ORBITAL ENERGIES
----------------

  NO   OCC          E(Eh)            E(eV)
   0   2.0000    -484.353714    -13179.9346
   1   2.0000     -77.657130     -2113.1579
   2   2.0000     -63.014798     -1714.7198
   3   2.0000     -56.718185     -1543.3803
   4   2.0000     -56.717787     -1543.3694
   5   2.0000     -56.717336     -1543.3572
   6   2.0000     -19.415961      -528.3352
   7   2.0000     -19.404699      -528.0287
   8   2.0000     -19.363974      -526.9205
   9   2.0000     -10.507656      -285.9278
  10   2.0000     -10.333160      -281.1796
  11   2.0000     -10.332373      -281.1582
  12   2.0000     -10.332309      -281.1564
  13   2.0000     -10.332018      -281.1485
  14   2.0000     -10.331337      -281.1300
  15   2.0000     -10.327397      -281.0228
  16   2.0000     -10.324112      -280.9334
  17   2.0000     -10.322962      -280.9021
  18   2.0000     -10.322638      -280.8933
  19   2.0000     -10.318488      -280.7803
  20   2.0000     -10.317289      -280.7477
  21   2.0000     -10.316969      -280.7390
  22   2.0000     -10.316620      -280.7295
  23   2.0000     -10.312876      -280.6276
  24   2.0000      -8.841797      -240.5975
  25   2.0000      -6.733312      -183.2227
  26   2.0000      -6.609818      -179.8623
  27   2.0000      -6.608490      -179.8262
  28   2.0000      -6.605587      -179.7471
  29   2.0000      -4.824230      -131.2740
  30   2.0000      -4.823956      -131.2665
  31   2.0000      -4.822190      -131.2185
  32   2.0000      -3.506279       -95.4107
  33   2.0000      -2.624581       -71.4185
  34   2.0000      -2.624524       -71.4169
  35   2.0000      -2.622069       -71.3501
  36   2.0000      -2.620840       -71.3167
  37   2.0000      -2.620333       -71.3029
  38   2.0000      -2.149899       -58.5017
  39   2.0000      -2.148040       -58.4511
  40   2.0000      -2.122115       -57.7457
  41   2.0000      -1.107532       -30.1375
  42   2.0000      -0.998513       -27.1709
  43   2.0000      -0.972916       -26.4744
  44   2.0000      -0.838810       -22.8252
  45   2.0000      -0.816277       -22.2120
  46   2.0000      -0.769028       -20.9263
  47   2.0000      -0.720189       -19.5973
  48   2.0000      -0.711433       -19.3591
  49   2.0000      -0.690942       -18.8015
  50   2.0000      -0.670321       -18.2404
  51   2.0000      -0.663357       -18.0509
  52   2.0000      -0.633534       -17.2393
  53   2.0000      -0.598119       -16.2756
  54   2.0000      -0.575735       -15.6665
  55   2.0000      -0.558575       -15.1996
  56   2.0000      -0.539276       -14.6745
  57   2.0000      -0.534330       -14.5399
  58   2.0000      -0.506373       -13.7791
  59   2.0000      -0.476629       -12.9697
  60   2.0000      -0.455468       -12.3939
  61   2.0000      -0.439818       -11.9680
  62   2.0000      -0.431060       -11.7297
  63   2.0000      -0.412542       -11.2258
  64   2.0000      -0.408147       -11.1063
  65   2.0000      -0.400484       -10.8977
  66   2.0000      -0.381210       -10.3732
  67   2.0000      -0.378309       -10.2943
  68   2.0000      -0.371772       -10.1164
  69   2.0000      -0.362943        -9.8762
  70   2.0000      -0.357227        -9.7206
  71   2.0000      -0.353429        -9.6173
  72   2.0000      -0.346750        -9.4356
  73   2.0000      -0.342854        -9.3295
  74   2.0000      -0.331158        -9.0113
  75   2.0000      -0.323432        -8.8010
  76   2.0000      -0.311949        -8.4886
  77   2.0000      -0.297761        -8.1025
  78   2.0000      -0.289444        -7.8762
  79   2.0000      -0.285412        -7.7665
  80   2.0000      -0.280333        -7.6282
  81   2.0000      -0.276654        -7.5281
  82   2.0000      -0.269603        -7.3363
  83   2.0000      -0.264376        -7.1940
  84   2.0000      -0.251097        -6.8327
  85   2.0000      -0.245648        -6.6844
  86   2.0000      -0.241603        -6.5744
  87   2.0000      -0.236662        -6.4399
  88   2.0000      -0.227843        -6.1999
  89   2.0000      -0.213900        -5.8205
  90   2.0000      -0.207625        -5.6498
  91   2.0000      -0.190171        -5.1748
  92   2.0000      -0.183956        -5.0057
  93   2.0000      -0.172556        -4.6955
  94   2.0000      -0.169350        -4.6082
  95   2.0000      -0.162559        -4.4235
  96   2.0000      -0.155338        -4.2270
  97   2.0000      -0.149061        -4.0561
  98   2.0000      -0.143485        -3.9044
  99   2.0000      -0.124928        -3.3995
 100   0.0000       0.088097         2.3973
 101   0.0000       0.099892         2.7182
 102   0.0000       0.129908         3.5350
 103   0.0000       0.135373         3.6837
 104   0.0000       0.147648         4.0177

MULLIKEN ATOMIC CHARGES
-----------------------
   0 C :   -0.050243
   1 C :    0.031515
   2 C :   -0.283142
   3 C :   -0.214298
   4 C :   -0.237311
   5 C :   -0.229312
   6 H :    0.413795
   7 H :    0.189041
   8 H :    0.167368
   9 H :    0.174189
  10 H :    0.171998
  11 C :   -0.455886
  12 C :   -0.520687
  13 H :    0.209834
  14 H :    0.213384
  15 C :    0.133576
  16 H :    0.271106
  17 H :    0.193487
  18 C :   -0.097913
  19 C :   -0.317877
  20 C :   -0.225624
  21 C :   -0.280520
  22 C :   -0.234107
  23 H :    0.234671
  24 H :    0.182512
  25 H :    0.172279
  26 H :    0.179579
  27 Pd:    0.030356
  28 Br:   -0.492589
  29 P :   -0.149110
  30 H :    0.105897
  31 C :    0.734504
  32 O :   -0.475209
  33 O :   -0.602562
  34 O :   -0.600735
  35 H :    0.090973
  36 H :    0.129721
  37 H :    0.437339
Sum of atomic charges:   -1.0000000

LOEWDIN ATOMIC CHARGES
----------------------
   0 C :   -0.057364
   1 C :   -0.038552
   2 C :   -0.120986
   3 C :   -0.171626
   4 C :   -0.167419
   5 C :   -0.159454
   6 H :    0.391704
   7 H :    0.129666
   8 H :    0.116004
   9 H :    0.116838
  10 H :    0.113644
  11 C :   -0.217819
  12 C :   -0.211105
  13 H :    0.126327
  14 H :    0.127884
  15 C :   -0.037978
  16 H :    0.160914
  17 H :    0.116614
  18 C :   -0.010449
  19 C :   -0.144037
  20 C :   -0.154251
  21 C :   -0.147695
  22 C :   -0.168193
  23 H :    0.144557
  24 H :    0.120476
  25 H :    0.118602
  26 H :    0.118611
  27 Pd:   -0.843596
  28 Br:   -0.269909
  29 P :    0.340657
  30 H :    0.047636
  31 C :    0.169163
  32 O :   -0.289620
  33 O :   -0.355926
  34 O :   -0.317630
  35 H :    0.033801
  36 H :    0.058786
  37 H :    0.331724

  Mayer bond orders larger than 0.100000
B(  0-C ,  1-C ) :   1.3881 B(  0-C ,  2-C ) :   1.3603 B(  0-C , 27-Pd) :   0.7061
B(  1-C ,  5-C ) :   1.3464 B(  1-C , 11-C ) :   0.9626 B(  2-C ,  3-C ) :   1.4365
B(  2-C ,  7-H ) :   0.9199 B(  3-C ,  4-C ) :   1.4049 B(  3-C ,  9-H ) :   0.9295
B(  4-C ,  5-C ) :   1.4614 B(  4-C , 10-H ) :   0.9283 B(  5-C ,  8-H ) :   0.9313
B(  6-H , 28-Br) :   0.2361 B(  6-H , 33-O ) :   0.5303 B( 11-C , 12-C ) :   0.9875
B( 11-C , 13-H ) :   0.9143 B( 11-C , 14-H ) :   0.9162 B( 12-C , 15-C ) :   0.9668
B( 12-C , 16-H ) :   0.8757 B( 12-C , 17-H ) :   0.9229 B( 15-C , 18-C ) :   1.3413
B( 15-C , 21-C ) :   1.4065 B( 18-C , 19-C ) :   1.4080 B( 18-C , 27-Pd) :   0.7924
B( 19-C , 20-C ) :   1.4177 B( 19-C , 23-H ) :   0.8951 B( 20-C , 22-C ) :   1.4336
B( 20-C , 24-H ) :   0.9276 B( 21-C , 22-C ) :   1.4203 B( 21-C , 25-H ) :   0.9285
B( 22-C , 26-H ) :   0.9288 B( 27-Pd, 28-Br) :   0.4134 B( 27-Pd, 29-P ) :   0.4551
B( 29-P , 30-H ) :   0.9422 B( 29-P , 35-H ) :   0.9250 B( 29-P , 36-H ) :   0.9367
B( 31-C , 32-O ) :   1.9153 B( 31-C , 33-O ) :   1.2302 B( 31-C , 34-O ) :   1.0649
B( 34-O , 37-H ) :   0.7613

Dispersion correction           -0.031915565
FINAL SINGLE POINT ENERGY     -3847.637723253460
Dispersion correction            ... done

DIPOLE MOMENT
-------------
                                X             Y             Z
Electronic contribution:     -9.22848     -62.31292      -2.43951
Nuclear contribution   :     10.26617      62.39381       3.22911
                        -----------------------------------------
Total Dipole Moment    :      1.03768       0.08090       0.78960
                        -----------------------------------------
Magnitude (a.u.)       :      1.30644
Magnitude (Debye)      :      3.32072

Rotational constants in cm-1:     0.007003     0.006450     0.004806
Rotational constants in MHz :   209.932954   193.361085   144.073067

                             ****ORCA TERMINATED NORMALLY****
TOTAL RUN TIME: 0 days 0 hours 16 minutes 29 seconds 845 msec
