                         Program Version 5.0.3 -  RELEASE  -
|  1> ! EnGrad PBEh-3c
|  2> %output
|  3> xyzfile=True
|  4> end
|  5> %scf
|  6> maxiter 250
|  7> end
|  8> %output
|  9> Print[P_Hirshfeld] = 1
| 10> end
| 11> % maxcore
| 12> 4000
| 13> *xyz -1 1
| 14> C   -1.74961876   0.04289261   0.45385149
| 15> C   -1.63294264   1.02029624   1.48376209
| 16> C   -3.10196567  -0.05484694   0.00859083
| 17> C   -4.13835402   0.85495647   0.29982990
| 18> C   -3.90422661   1.91207963   1.17358613
| 19> C   -2.66451045   1.96559014   1.76367552
| 20> H   -1.62139103  -2.76212047  -2.34206370
| 21> H   -3.40745367  -0.87510740  -0.63871251
| 22> H   -2.47805625   2.78558638   2.48677622
| 23> H   -5.15179077   0.73345770  -0.11102066
| 24> H   -4.67078498   2.63805758   1.41724483
| 25> C   -0.43260996   1.18369418   2.40537529
| 26> C    0.81298749   0.30526984   2.24184481
| 27> H   -0.80437415   1.00478304   3.42334671
| 28> H   -0.10033494   2.24011529   2.38948359
| 29> C    1.67030391   0.63610827   1.04413620
| 30> H    0.53617475  -0.75486715   2.20928388
| 31> H    1.42028406   0.43806129   3.13583917
| 32> C    1.34633465   0.11837674  -0.21382859
| 33> C    2.22571945   0.43815205  -1.26960688
| 34> C    3.22898586   1.39599076  -1.12556357
| 35> C    2.70964230   1.55284113   1.20280368
| 36> C    3.49111150   1.94617105   0.12435867
| 37> H    2.14565796  -0.08038516  -2.22515845
| 38> H    3.88495166   1.61372663  -1.95272486
| 39> H    3.02583744   1.83449141   2.20097436
| 40> H    4.23591839   2.72840440   0.23837419
| 41> Pd  -0.22999096  -1.25102978  -0.18082756
| 42> Br  -1.61508700  -3.52394243  -0.05015269
| 43> P    1.53708398  -2.98223077  -0.27754358
| 44> H    1.60006057  -3.69278427   0.94873163
| 45> C   -0.02948523  -1.71988521  -3.73427851
| 46> O    1.10121000  -1.73217339  -4.13686588
| 47> O   -0.76079309  -2.72674722  -3.11720261
| 48> O   -0.72419530  -0.57023536  -3.75828646
| 49> H    2.92316953  -2.71729081  -0.37583771
| 50> H    1.46455753  -4.10520684  -1.12659457
| 51> H   -0.14402147   0.16245365  -4.01941212
| 52> *
| 53>
| 54>                          ****END OF INPUT****

CARTESIAN COORDINATES (ANGSTROEM)
---------------------------------
  C     -1.749619    0.042893    0.453851
  C     -1.632943    1.020296    1.483762
  C     -3.101966   -0.054847    0.008591
  C     -4.138354    0.854956    0.299830
  C     -3.904227    1.912080    1.173586
  C     -2.664510    1.965590    1.763676
  H     -1.621391   -2.762120   -2.342064
  H     -3.407454   -0.875107   -0.638713
  H     -2.478056    2.785586    2.486776
  H     -5.151791    0.733458   -0.111021
  H     -4.670785    2.638058    1.417245
  C     -0.432610    1.183694    2.405375
  C      0.812987    0.305270    2.241845
  H     -0.804374    1.004783    3.423347
  H     -0.100335    2.240115    2.389484
  C      1.670304    0.636108    1.044136
  H      0.536175   -0.754867    2.209284
  H      1.420284    0.438061    3.135839
  C      1.346335    0.118377   -0.213829
  C      2.225719    0.438152   -1.269607
  C      3.228986    1.395991   -1.125564
  C      2.709642    1.552841    1.202804
  C      3.491111    1.946171    0.124359
  H      2.145658   -0.080385   -2.225158
  H      3.884952    1.613727   -1.952725
  H      3.025837    1.834491    2.200974
  H      4.235918    2.728404    0.238374
  Pd    -0.229991   -1.251030   -0.180828
  Br    -1.615087   -3.523942   -0.050153
  P      1.537084   -2.982231   -0.277544
  H      1.600061   -3.692784    0.948732
  C     -0.029485   -1.719885   -3.734279
  O      1.101210   -1.732173   -4.136866
  O     -0.760793   -2.726747   -3.117203
  O     -0.724195   -0.570235   -3.758286
  H      2.923170   -2.717291   -0.375838
  H      1.464558   -4.105207   -1.126595
  H     -0.144021    0.162454   -4.019412

 Total Charge           Charge          ....   -1
 Multiplicity           Mult            ....    1
 Number of Electrons    NEL             ....  200
 Basis Dimension        Dim             ....  385

ORBITAL ENERGIES
----------------

  NO   OCC          E(Eh)            E(eV)
   0   2.0000    -484.339310    -13179.5427
   1   2.0000     -77.655655     -2113.1178
   2   2.0000     -63.000603     -1714.3336
   3   2.0000     -56.704100     -1542.9970
   4   2.0000     -56.703425     -1542.9787
   5   2.0000     -56.703215     -1542.9729
   6   2.0000     -19.429530      -528.7044
   7   2.0000     -19.410753      -528.1935
   8   2.0000     -19.378899      -527.3267
   9   2.0000     -10.523602      -286.3618
  10   2.0000     -10.332906      -281.1727
  11   2.0000     -10.332021      -281.1486
  12   2.0000     -10.330133      -281.0972
  13   2.0000     -10.328983      -281.0659
  14   2.0000     -10.328302      -281.0474
  15   2.0000     -10.327470      -281.0248
  16   2.0000     -10.326459      -280.9972
  17   2.0000     -10.325094      -280.9601
  18   2.0000     -10.321465      -280.8613
  19   2.0000     -10.319559      -280.8095
  20   2.0000     -10.319109      -280.7972
  21   2.0000     -10.318550      -280.7820
  22   2.0000     -10.316416      -280.7239
  23   2.0000     -10.313416      -280.6423
  24   2.0000      -8.827758      -240.2155
  25   2.0000      -6.730707      -183.1518
  26   2.0000      -6.595991      -179.4860
  27   2.0000      -6.593854      -179.4279
  28   2.0000      -6.592083      -179.3797
  29   2.0000      -4.821594      -131.2023
  30   2.0000      -4.821413      -131.1973
  31   2.0000      -4.819557      -131.1468
  32   2.0000      -3.503655       -95.3393
  33   2.0000      -2.610456       -71.0341
  34   2.0000      -2.610134       -71.0253
  35   2.0000      -2.608634       -70.9845
  36   2.0000      -2.606721       -70.9325
  37   2.0000      -2.606505       -70.9266
  38   2.0000      -2.147067       -58.4247
  39   2.0000      -2.145606       -58.3849
  40   2.0000      -2.119380       -57.6713
  41   2.0000      -1.130351       -30.7584
  42   2.0000      -1.019121       -27.7317
  43   2.0000      -0.989631       -26.9292
  44   2.0000      -0.836266       -22.7560
  45   2.0000      -0.816591       -22.2206
  46   2.0000      -0.766855       -20.8672
  47   2.0000      -0.719236       -19.5714
  48   2.0000      -0.708685       -19.2843
  49   2.0000      -0.693075       -18.8595
  50   2.0000      -0.668002       -18.1773
  51   2.0000      -0.653995       -17.7961
  52   2.0000      -0.625836       -17.0299
  53   2.0000      -0.604451       -16.4480
  54   2.0000      -0.596118       -16.2212
  55   2.0000      -0.557311       -15.1652
  56   2.0000      -0.537785       -14.6339
  57   2.0000      -0.532817       -14.4987
  58   2.0000      -0.514556       -14.0018
  59   2.0000      -0.504736       -13.7346
  60   2.0000      -0.453688       -12.3455
  61   2.0000      -0.447896       -12.1879
  62   2.0000      -0.437918       -11.9163
  63   2.0000      -0.424438       -11.5495
  64   2.0000      -0.410595       -11.1729
  65   2.0000      -0.398404       -10.8411
  66   2.0000      -0.380936       -10.3658
  67   2.0000      -0.378721       -10.3055
  68   2.0000      -0.374829       -10.1996
  69   2.0000      -0.367895       -10.0109
  70   2.0000      -0.354660        -9.6508
  71   2.0000      -0.348740        -9.4897
  72   2.0000      -0.344455        -9.3731
  73   2.0000      -0.339861        -9.2481
  74   2.0000      -0.331646        -9.0245
  75   2.0000      -0.320343        -8.7170
  76   2.0000      -0.311521        -8.4769
  77   2.0000      -0.295828        -8.0499
  78   2.0000      -0.291842        -7.9414
  79   2.0000      -0.286760        -7.8031
  80   2.0000      -0.284314        -7.7366
  81   2.0000      -0.280313        -7.6277
  82   2.0000      -0.277534        -7.5521
  83   2.0000      -0.262365        -7.1393
  84   2.0000      -0.260574        -7.0906
  85   2.0000      -0.246794        -6.7156
  86   2.0000      -0.245491        -6.6802
  87   2.0000      -0.243665        -6.6305
  88   2.0000      -0.235424        -6.4062
  89   2.0000      -0.212249        -5.7756
  90   2.0000      -0.205119        -5.5816
  91   2.0000      -0.192365        -5.2345
  92   2.0000      -0.174428        -4.7464
  93   2.0000      -0.169439        -4.6107
  94   2.0000      -0.164041        -4.4638
  95   2.0000      -0.157302        -4.2804
  96   2.0000      -0.151900        -4.1334
  97   2.0000      -0.147905        -4.0247
  98   2.0000      -0.140249        -3.8164
  99   2.0000      -0.122624        -3.3368
 100   0.0000       0.104013         2.8303
 101   0.0000       0.129598         3.5265
 102   0.0000       0.135003         3.6736
 103   0.0000       0.142305         3.8723
 104   0.0000       0.150825         4.1042

MULLIKEN ATOMIC CHARGES
-----------------------
   0 C :   -0.039617
   1 C :    0.055516
   2 C :   -0.274696
   3 C :   -0.224320
   4 C :   -0.229016
   5 C :   -0.238168
   6 H :    0.472523
   7 H :    0.195221
   8 H :    0.164530
   9 H :    0.172232
  10 H :    0.174244
  11 C :   -0.457047
  12 C :   -0.520224
  13 H :    0.208806
  14 H :    0.208558
  15 C :    0.122530
  16 H :    0.270007
  17 H :    0.193799
  18 C :   -0.096548
  19 C :   -0.332958
  20 C :   -0.217389
  21 C :   -0.268828
  22 C :   -0.242978
  23 H :    0.223377
  24 H :    0.181832
  25 H :    0.172106
  26 H :    0.177777
  27 Pd:    0.009548
  28 Br:   -0.528463
  29 P :   -0.148047
  30 H :    0.106568
  31 C :    0.743585
  32 O :   -0.446149
  33 O :   -0.659006
  34 O :   -0.580287
  35 H :    0.083575
  36 H :    0.124624
  37 H :    0.442784
Sum of atomic charges:   -1.0000000

LOEWDIN ATOMIC CHARGES
----------------------
   0 C :   -0.045269
   1 C :   -0.037013
   2 C :   -0.117690
   3 C :   -0.169716
   4 C :   -0.171230
   5 C :   -0.155458
   6 H :    0.389310
   7 H :    0.133852
   8 H :    0.114279
   9 H :    0.115681
  10 H :    0.114950
  11 C :   -0.213533
  12 C :   -0.211613
  13 H :    0.126253
  14 H :    0.127085
  15 C :   -0.040819
  16 H :    0.162532
  17 H :    0.116386
  18 C :   -0.022386
  19 C :   -0.144460
  20 C :   -0.158268
  21 C :   -0.149422
  22 C :   -0.167792
  23 H :    0.138873
  24 H :    0.119949
  25 H :    0.118904
  26 H :    0.117499
  27 Pd:   -0.848028
  28 Br:   -0.293918
  29 P :    0.324402
  30 H :    0.048066
  31 C :    0.181523
  32 O :   -0.257205
  33 O :   -0.373539
  34 O :   -0.292672
  35 H :    0.029025
  36 H :    0.055538
  37 H :    0.335925

  Mayer bond orders larger than 0.100000
B(  0-C ,  1-C ) :   1.3846 B(  0-C ,  2-C ) :   1.3475 B(  0-C , 27-Pd) :   0.7589
B(  1-C ,  5-C ) :   1.3356 B(  1-C , 11-C ) :   0.9617 B(  2-C ,  3-C ) :   1.4360
B(  2-C ,  7-H ) :   0.9177 B(  3-C ,  4-C ) :   1.3978 B(  3-C ,  9-H ) :   0.9302
B(  4-C ,  5-C ) :   1.4660 B(  4-C , 10-H ) :   0.9278 B(  5-C ,  8-H ) :   0.9323
B(  6-H , 28-Br) :   0.1521 B(  6-H , 33-O ) :   0.5843 B( 11-C , 12-C ) :   0.9844
B( 11-C , 13-H ) :   0.9139 B( 11-C , 14-H ) :   0.9159 B( 12-C , 15-C ) :   0.9679
B( 12-C , 16-H ) :   0.8746 B( 12-C , 17-H ) :   0.9223 B( 15-C , 18-C ) :   1.3445
B( 15-C , 21-C ) :   1.3972 B( 18-C , 19-C ) :   1.3965 B( 18-C , 27-Pd) :   0.7673
B( 19-C , 20-C ) :   1.4263 B( 19-C , 23-H ) :   0.9011 B( 20-C , 22-C ) :   1.4260
B( 20-C , 24-H ) :   0.9276 B( 21-C , 22-C ) :   1.4287 B( 21-C , 25-H ) :   0.9282
B( 22-C , 26-H ) :   0.9288 B( 27-Pd, 28-Br) :   0.4625 B( 27-Pd, 29-P ) :   0.4039
B( 29-P , 30-H ) :   0.9434 B( 29-P , 35-H ) :   0.9234 B( 29-P , 36-H ) :   0.9375
B( 31-C , 32-O ) :   1.9639 B( 31-C , 33-O ) :   1.1301 B( 31-C , 34-O ) :   1.1007
B( 34-O , 37-H ) :   0.7564

Dispersion correction           -0.031451585
FINAL SINGLE POINT ENERGY     -3847.678174297486
Dispersion correction            ... done

DIPOLE MOMENT
-------------
                                X             Y             Z
Electronic contribution:    -12.75604     -60.68631      -0.20776
Nuclear contribution   :     13.85903      60.95739       0.58031
                        -----------------------------------------
Total Dipole Moment    :      1.10299       0.27107       0.37256
                        -----------------------------------------
Magnitude (a.u.)       :      1.19535
Magnitude (Debye)      :      3.03834

Rotational constants in cm-1:     0.007077     0.006515     0.004809
Rotational constants in MHz :   212.149088   195.315879   144.163667

                             ****ORCA TERMINATED NORMALLY****
TOTAL RUN TIME: 0 days 0 hours 13 minutes 15 seconds 484 msec
