                         Program Version 5.0.3 -  RELEASE  -
|  1> ! EnGrad PBEh-3c
|  2> %output
|  3> xyzfile=True
|  4> end
|  5> %scf
|  6> maxiter 250
|  7> end
|  8> %output
|  9> Print[P_Hirshfeld] = 1
| 10> end
| 11> % maxcore
| 12> 4000
| 13> *xyz -1 1
| 14> C   -1.77729199   0.06884198   0.44408345
| 15> C   -1.62684369   1.01806164   1.46772119
| 16> C   -3.11193292  -0.09246900   0.04600365
| 17> C   -4.15831827   0.80262404   0.35745908
| 18> C   -3.93513016   1.88320960   1.21639945
| 19> C   -2.68378139   1.92982236   1.77923859
| 20> H   -1.44359650  -2.61863349  -2.45793402
| 21> H   -3.45105442  -0.94706281  -0.54822649
| 22> H   -2.46413966   2.80260899   2.45931024
| 23> H   -5.18998279   0.67948245  -0.02723437
| 24> H   -4.70679441   2.61583914   1.47066050
| 25> C   -0.43425754   1.20588538   2.34896946
| 26> C    0.80954252   0.32047297   2.21579400
| 27> H   -0.78356161   1.08184945   3.39802141
| 28> H   -0.08913707   2.28514093   2.29866886
| 29> C    1.68431075   0.63041767   1.02049768
| 30> H    0.50646350  -0.74310950   2.18979179
| 31> H    1.40360229   0.45497524   3.11683523
| 32> C    1.34442746   0.09785322  -0.22130082
| 33> C    2.24691468   0.41491487  -1.27466474
| 34> C    3.26654912   1.36290684  -1.13147626
| 35> C    2.72448686   1.54051755   1.19391849
| 36> C    3.51642467   1.92575812   0.12361920
| 37> H    2.17707267  -0.10654315  -2.24679678
| 38> H    3.92212003   1.59329461  -1.95492274
| 39> H    3.01481541   1.83953592   2.19371755
| 40> H    4.27359756   2.69782360   0.24280710
| 41> Pd  -0.28520178  -1.23017399  -0.13147926
| 42> Br  -1.62446642  -3.49799973  -0.17887411
| 43> P    1.51306554  -2.96246850  -0.25785880
| 44> H    1.55357971  -3.67015365   0.97018269
| 45> C   -0.05024444  -1.68393501  -3.68579604
| 46> O    1.03979900  -1.79415756  -4.09152083
| 47> O   -0.83881623  -2.66885639  -3.04490412
| 48> O   -0.69139389  -0.54082837  -3.79067948
| 49> H    2.94625332  -2.72550680  -0.32772502
| 50> H    1.48262546  -4.11263730  -1.10357771
| 51> H   -0.08128014   0.14938150  -4.08186726
| 52> *
| 53>
| 54>                          ****END OF INPUT****

CARTESIAN COORDINATES (ANGSTROEM)
---------------------------------
  C     -1.777292    0.068842    0.444083
  C     -1.626844    1.018062    1.467721
  C     -3.111933   -0.092469    0.046004
  C     -4.158318    0.802624    0.357459
  C     -3.935130    1.883210    1.216399
  C     -2.683781    1.929822    1.779239
  H     -1.443596   -2.618633   -2.457934
  H     -3.451054   -0.947063   -0.548226
  H     -2.464140    2.802609    2.459310
  H     -5.189983    0.679482   -0.027234
  H     -4.706794    2.615839    1.470660
  C     -0.434258    1.205885    2.348969
  C      0.809543    0.320473    2.215794
  H     -0.783562    1.081849    3.398021
  H     -0.089137    2.285141    2.298669
  C      1.684311    0.630418    1.020498
  H      0.506463   -0.743109    2.189792
  H      1.403602    0.454975    3.116835
  C      1.344427    0.097853   -0.221301
  C      2.246915    0.414915   -1.274665
  C      3.266549    1.362907   -1.131476
  C      2.724487    1.540518    1.193918
  C      3.516425    1.925758    0.123619
  H      2.177073   -0.106543   -2.246797
  H      3.922120    1.593295   -1.954923
  H      3.014815    1.839536    2.193718
  H      4.273598    2.697824    0.242807
  Pd    -0.285202   -1.230174   -0.131479
  Br    -1.624466   -3.498000   -0.178874
  P      1.513066   -2.962468   -0.257859
  H      1.553580   -3.670154    0.970183
  C     -0.050244   -1.683935   -3.685796
  O      1.039799   -1.794158   -4.091521
  O     -0.838816   -2.668856   -3.044904
  O     -0.691394   -0.540828   -3.790679
  H      2.946253   -2.725507   -0.327725
  H      1.482625   -4.112637   -1.103578
  H     -0.081280    0.149382   -4.081867

 Total Charge           Charge          ....   -1
 Multiplicity           Mult            ....    1
 Number of Electrons    NEL             ....  200
 Basis Dimension        Dim             ....  385

ORBITAL ENERGIES
----------------

  NO   OCC          E(Eh)            E(eV)
   0   2.0000    -484.326364    -13179.1904
   1   2.0000     -77.655644     -2113.1175
   2   2.0000     -62.987850     -1713.9865
   3   2.0000     -56.691458     -1542.6530
   4   2.0000     -56.690541     -1542.6281
   5   2.0000     -56.690495     -1542.6268
   6   2.0000     -19.443933      -529.0963
   7   2.0000     -19.397474      -527.8321
   8   2.0000     -19.389775      -527.6226
   9   2.0000     -10.533302      -286.6257
  10   2.0000     -10.333500      -281.1888
  11   2.0000     -10.332914      -281.1729
  12   2.0000     -10.330185      -281.0986
  13   2.0000     -10.329029      -281.0672
  14   2.0000     -10.328250      -281.0460
  15   2.0000     -10.326905      -281.0094
  16   2.0000     -10.326011      -280.9851
  17   2.0000     -10.325754      -280.9781
  18   2.0000     -10.321398      -280.8595
  19   2.0000     -10.321286      -280.8565
  20   2.0000     -10.320790      -280.8430
  21   2.0000     -10.320304      -280.8298
  22   2.0000     -10.313536      -280.6456
  23   2.0000     -10.312701      -280.6229
  24   2.0000      -8.815122      -239.8717
  25   2.0000      -6.729200      -183.1108
  26   2.0000      -6.583815      -179.1547
  27   2.0000      -6.580543      -179.0657
  28   2.0000      -6.579755      -179.0442
  29   2.0000      -4.820092      -131.1614
  30   2.0000      -4.819941      -131.1573
  31   2.0000      -4.818056      -131.1060
  32   2.0000      -3.501673       -95.2854
  33   2.0000      -2.598078       -70.6973
  34   2.0000      -2.597322       -70.6767
  35   2.0000      -2.596638       -70.6581
  36   2.0000      -2.593734       -70.5791
  37   2.0000      -2.593690       -70.5779
  38   2.0000      -2.145962       -58.3946
  39   2.0000      -2.142670       -58.3050
  40   2.0000      -2.117596       -57.6227
  41   2.0000      -1.160729       -31.5850
  42   2.0000      -1.046405       -28.4741
  43   2.0000      -1.042516       -28.3683
  44   2.0000      -0.834939       -22.7199
  45   2.0000      -0.819944       -22.3118
  46   2.0000      -0.766375       -20.8541
  47   2.0000      -0.720084       -19.5945
  48   2.0000      -0.707193       -19.2437
  49   2.0000      -0.696606       -18.9556
  50   2.0000      -0.666848       -18.1459
  51   2.0000      -0.657308       -17.8863
  52   2.0000      -0.639982       -17.4148
  53   2.0000      -0.617100       -16.7921
  54   2.0000      -0.595295       -16.1988
  55   2.0000      -0.562400       -15.3037
  56   2.0000      -0.556893       -15.1538
  57   2.0000      -0.537497       -14.6260
  58   2.0000      -0.532613       -14.4931
  59   2.0000      -0.503384       -13.6978
  60   2.0000      -0.464229       -12.6323
  61   2.0000      -0.453387       -12.3373
  62   2.0000      -0.444994       -12.1089
  63   2.0000      -0.436941       -11.8898
  64   2.0000      -0.409794       -11.1511
  65   2.0000      -0.398073       -10.8321
  66   2.0000      -0.393939       -10.7196
  67   2.0000      -0.383590       -10.4380
  68   2.0000      -0.377917       -10.2836
  69   2.0000      -0.365535        -9.9467
  70   2.0000      -0.347851        -9.4655
  71   2.0000      -0.343537        -9.3481
  72   2.0000      -0.341219        -9.2850
  73   2.0000      -0.337929        -9.1955
  74   2.0000      -0.331799        -9.0287
  75   2.0000      -0.318769        -8.6741
  76   2.0000      -0.314084        -8.5467
  77   2.0000      -0.312375        -8.5002
  78   2.0000      -0.299034        -8.1371
  79   2.0000      -0.294423        -8.0117
  80   2.0000      -0.284411        -7.7392
  81   2.0000      -0.281529        -7.6608
  82   2.0000      -0.279102        -7.5948
  83   2.0000      -0.274865        -7.4794
  84   2.0000      -0.261365        -7.1121
  85   2.0000      -0.259131        -7.0513
  86   2.0000      -0.249403        -6.7866
  87   2.0000      -0.243454        -6.6247
  88   2.0000      -0.235098        -6.3973
  89   2.0000      -0.208191        -5.6652
  90   2.0000      -0.202075        -5.4987
  91   2.0000      -0.194515        -5.2930
  92   2.0000      -0.168694        -4.5904
  93   2.0000      -0.166502        -4.5307
  94   2.0000      -0.159448        -4.3388
  95   2.0000      -0.149906        -4.0792
  96   2.0000      -0.149270        -4.0619
  97   2.0000      -0.143193        -3.8965
  98   2.0000      -0.137633        -3.7452
  99   2.0000      -0.120784        -3.2867
 100   0.0000       0.105327         2.8661
 101   0.0000       0.130330         3.5464
 102   0.0000       0.135698         3.6925
 103   0.0000       0.143810         3.9133
 104   0.0000       0.151273         4.1164

MULLIKEN ATOMIC CHARGES
-----------------------
   0 C :   -0.045586
   1 C :    0.093508
   2 C :   -0.264931
   3 C :   -0.235883
   4 C :   -0.223150
   5 C :   -0.249698
   6 H :    0.470327
   7 H :    0.209031
   8 H :    0.160091
   9 H :    0.170932
  10 H :    0.175907
  11 C :   -0.458086
  12 C :   -0.522924
  13 H :    0.206962
  14 H :    0.203543
  15 C :    0.122587
  16 H :    0.268756
  17 H :    0.194493
  18 C :   -0.099965
  19 C :   -0.345595
  20 C :   -0.212261
  21 C :   -0.264890
  22 C :   -0.246099
  23 H :    0.208142
  24 H :    0.181318
  25 H :    0.173035
  26 H :    0.176695
  27 Pd:   -0.009994
  28 Br:   -0.543606
  29 P :   -0.144381
  30 H :    0.107290
  31 C :    0.723271
  32 O :   -0.406080
  33 O :   -0.654681
  34 O :   -0.558768
  35 H :    0.073395
  36 H :    0.119341
  37 H :    0.447956
Sum of atomic charges:   -1.0000000

LOEWDIN ATOMIC CHARGES
----------------------
   0 C :   -0.040060
   1 C :   -0.039341
   2 C :   -0.115863
   3 C :   -0.165929
   4 C :   -0.174313
   5 C :   -0.149110
   6 H :    0.303724
   7 H :    0.141359
   8 H :    0.111635
   9 H :    0.114235
  10 H :    0.116423
  11 C :   -0.207313
  12 C :   -0.211003
  13 H :    0.126020
  14 H :    0.125923
  15 C :   -0.043177
  16 H :    0.164494
  17 H :    0.116052
  18 C :   -0.033603
  19 C :   -0.144361
  20 C :   -0.161938
  21 C :   -0.150638
  22 C :   -0.167304
  23 H :    0.132147
  24 H :    0.119484
  25 H :    0.119368
  26 H :    0.116637
  27 Pd:   -0.854069
  28 Br:   -0.299730
  29 P :    0.316896
  30 H :    0.048199
  31 C :    0.178124
  32 O :   -0.212080
  33 O :   -0.330956
  34 O :   -0.264391
  35 H :    0.022054
  36 H :    0.051849
  37 H :    0.340555

  Mayer bond orders larger than 0.100000
B(  0-C ,  1-C ) :   1.3957 B(  0-C ,  2-C ) :   1.3422 B(  0-C , 27-Pd) :   0.7860
B(  1-C ,  5-C ) :   1.3238 B(  1-C , 11-C ) :   0.9589 B(  2-C ,  3-C ) :   1.4387
B(  2-C ,  7-H ) :   0.9124 B(  3-C ,  4-C ) :   1.3895 B(  3-C ,  9-H ) :   0.9304
B(  4-C ,  5-C ) :   1.4705 B(  4-C , 10-H ) :   0.9281 B(  5-C ,  8-H ) :   0.9330
B(  6-H , 33-O ) :   0.6735 B( 11-C , 12-C ) :   0.9798 B( 11-C , 13-H ) :   0.9149
B( 11-C , 14-H ) :   0.9145 B( 12-C , 15-C ) :   0.9633 B( 12-C , 16-H ) :   0.8738
B( 12-C , 17-H ) :   0.9228 B( 15-C , 18-C ) :   1.3488 B( 15-C , 21-C ) :   1.3895
B( 18-C , 19-C ) :   1.3814 B( 18-C , 27-Pd) :   0.7445 B( 19-C , 20-C ) :   1.4333
B( 19-C , 23-H ) :   0.9083 B( 20-C , 22-C ) :   1.4196 B( 20-C , 24-H ) :   0.9277
B( 21-C , 22-C ) :   1.4378 B( 21-C , 25-H ) :   0.9282 B( 22-C , 26-H ) :   0.9287
B( 27-Pd, 28-Br) :   0.5129 B( 27-Pd, 29-P ) :   0.3746 B( 29-P , 30-H ) :   0.9428
B( 29-P , 35-H ) :   0.9204 B( 29-P , 36-H ) :   0.9366 B( 31-C , 32-O ) :   2.0246
B( 31-C , 33-O ) :   1.0587 B( 31-C , 34-O ) :   1.1394 B( 34-O , 37-H ) :   0.7522

Dispersion correction           -0.031576022
FINAL SINGLE POINT ENERGY     -3847.667793184298
Dispersion correction            ... done

DIPOLE MOMENT
-------------
                                X             Y             Z
Electronic contribution:    -15.43781     -59.29802       1.97776
Nuclear contribution   :     16.64559      59.82841      -1.92541
                        -----------------------------------------
Total Dipole Moment    :      1.20778       0.53039       0.05235
                        -----------------------------------------
Magnitude (a.u.)       :      1.32015
Magnitude (Debye)      :      3.35555

Rotational constants in cm-1:     0.007169     0.006597     0.004810
Rotational constants in MHz :   214.909646   197.786880   144.214373

                             ****ORCA TERMINATED NORMALLY****
TOTAL RUN TIME: 0 days 0 hours 13 minutes 27 seconds 485 msec
