                         Program Version 5.0.3 -  RELEASE  -
|  1> ! EnGrad PBEh-3c
|  2> %output
|  3> xyzfile=True
|  4> end
|  5> %scf
|  6> maxiter 250
|  7> end
|  8> %output
|  9> Print[P_Hirshfeld] = 1
| 10> end
| 11> % maxcore
| 12> 4000
| 13> *xyz 0 1
| 14> Pd   0.53692663   0.42997327  -0.44723228
| 15> O    2.09915989   1.48856803   0.55468681
| 16> C    1.73152329   2.65078934   0.31492893
| 17> O    0.55631645   2.77893251  -0.17191457
| 18> C    2.60317406   3.83631555   0.58587106
| 19> H    2.04766266   4.64654087   1.05345681
| 20> H    2.98881296   4.21095697  -0.36420678
| 21> H    3.44959039   3.56296108   1.21086837
| 22> N   -1.25193802  -0.55021821  -1.09332334
| 23> C   -1.24917623  -1.37991651  -2.32549868
| 24> H   -0.91961123  -0.84463631  -3.21275253
| 25> H   -2.24925322  -1.75106720  -2.59347271
| 26> H   -0.60064194  -2.23763752  -2.18728795
| 27> C   -2.14102527   0.57269396  -1.46511593
| 28> H   -2.23700691   1.27682368  -0.65566730
| 29> H   -3.16163578   0.28064892  -1.73758465
| 30> H   -1.72838908   1.14366543  -2.29266350
| 31> C   -1.50398635  -0.94514019   1.36596672
| 32> C   -0.72431467  -1.85000930   2.07725741
| 33> C   -0.61227811  -1.80099693   3.44941607
| 34> C   -1.19661470  -0.76117267   4.13723534
| 35> C   -2.06908659   0.06376115   3.44620739
| 36> C   -2.11583667   0.11019813   2.05489443
| 37> H   -1.04573546  -0.67661977   5.20562735
| 38> H   -2.71538015   0.67427728   4.06468942
| 39> H   -0.25852977  -2.71143968   1.61182382
| 40> H   -0.04205355  -2.54071835   3.99605942
| 41> H   -2.71559764   2.51625017   1.91054962
| 42> C   -1.92244278  -1.33247942  -0.02341755
| 43> H   -3.02288552  -1.29962802  -0.05832839
| 44> H   -1.74693684  -2.40358714  -0.17527132
| 45> O    1.85973071  -0.82157044  -1.15584213
| 46> C    2.28620182  -0.64762081  -2.36768746
| 47> O    1.70559757   0.03219637  -3.18882482
| 48> C    3.58306563  -1.29395770  -2.80723208
| 49> H    3.47720125  -2.37778944  -2.77893632
| 50> H    4.39260130  -1.02337726  -2.12769126
| 51> H    3.91278772  -1.02596986  -3.80957158
| 52> *
| 53>
| 54>                          ****END OF INPUT****

CARTESIAN COORDINATES (ANGSTROEM)
---------------------------------
  Pd     0.536927    0.429973   -0.447232
  O      2.099160    1.488568    0.554687
  C      1.731523    2.650789    0.314929
  O      0.556316    2.778933   -0.171915
  C      2.603174    3.836316    0.585871
  H      2.047663    4.646541    1.053457
  H      2.988813    4.210957   -0.364207
  H      3.449590    3.562961    1.210868
  N     -1.251938   -0.550218   -1.093323
  C     -1.249176   -1.379917   -2.325499
  H     -0.919611   -0.844636   -3.212753
  H     -2.249253   -1.751067   -2.593473
  H     -0.600642   -2.237638   -2.187288
  C     -2.141025    0.572694   -1.465116
  H     -2.237007    1.276824   -0.655667
  H     -3.161636    0.280649   -1.737585
  H     -1.728389    1.143665   -2.292663
  C     -1.503986   -0.945140    1.365967
  C     -0.724315   -1.850009    2.077257
  C     -0.612278   -1.800997    3.449416
  C     -1.196615   -0.761173    4.137235
  C     -2.069087    0.063761    3.446207
  C     -2.115837    0.110198    2.054894
  H     -1.045735   -0.676620    5.205627
  H     -2.715380    0.674277    4.064689
  H     -0.258530   -2.711440    1.611824
  H     -0.042054   -2.540718    3.996059
  H     -2.715598    2.516250    1.910550
  C     -1.922443   -1.332479   -0.023418
  H     -3.022886   -1.299628   -0.058328
  H     -1.746937   -2.403587   -0.175271
  O      1.859731   -0.821570   -1.155842
  C      2.286202   -0.647621   -2.367687
  O      1.705598    0.032196   -3.188825
  C      3.583066   -1.293958   -2.807232
  H      3.477201   -2.377789   -2.778936
  H      4.392601   -1.023377   -2.127691
  H      3.912788   -1.025970   -3.809572

 Total Charge           Charge          ....    0
 Multiplicity           Mult            ....    1
 Number of Electrons    NEL             ....  154
 Basis Dimension        Dim             ....  339

ORBITAL ENERGIES
----------------

  NO   OCC          E(Eh)            E(eV)
   0   2.0000     -19.483711      -530.1787
   1   2.0000     -19.480523      -530.0920
   2   2.0000     -19.450914      -529.2863
   3   2.0000     -19.425800      -528.6029
   4   2.0000     -14.731848      -400.8740
   5   2.0000     -10.546599      -286.9875
   6   2.0000     -10.531026      -286.5638
   7   2.0000     -10.526317      -286.4356
   8   2.0000     -10.510340      -286.0009
   9   2.0000     -10.495035      -285.5844
  10   2.0000     -10.481795      -285.2242
  11   2.0000     -10.481005      -285.2026
  12   2.0000     -10.473467      -284.9975
  13   2.0000     -10.472738      -284.9777
  14   2.0000     -10.468944      -284.8744
  15   2.0000     -10.464247      -284.7466
  16   2.0000     -10.429464      -283.8001
  17   2.0000     -10.416331      -283.4428
  18   2.0000      -3.663010       -99.6756
  19   2.0000      -2.311401       -62.8964
  20   2.0000      -2.307472       -62.7895
  21   2.0000      -2.271378       -61.8073
  22   2.0000      -1.176398       -32.0114
  23   2.0000      -1.152206       -31.3531
  24   2.0000      -1.082817       -29.4649
  25   2.0000      -1.052267       -28.6337
  26   2.0000      -1.046930       -28.4884
  27   2.0000      -0.987979       -26.8843
  28   2.0000      -0.894665       -24.3451
  29   2.0000      -0.855973       -23.2922
  30   2.0000      -0.818696       -22.2778
  31   2.0000      -0.817745       -22.2520
  32   2.0000      -0.808935       -22.0122
  33   2.0000      -0.797014       -21.6879
  34   2.0000      -0.729398       -19.8479
  35   2.0000      -0.700853       -19.0712
  36   2.0000      -0.678660       -18.4673
  37   2.0000      -0.603825       -16.4309
  38   2.0000      -0.597179       -16.2501
  39   2.0000      -0.589148       -16.0315
  40   2.0000      -0.579849       -15.7785
  41   2.0000      -0.576503       -15.6875
  42   2.0000      -0.561547       -15.2805
  43   2.0000      -0.538688       -14.6585
  44   2.0000      -0.524101       -14.2615
  45   2.0000      -0.520535       -14.1645
  46   2.0000      -0.514226       -13.9928
  47   2.0000      -0.512387       -13.9428
  48   2.0000      -0.506614       -13.7857
  49   2.0000      -0.499706       -13.5977
  50   2.0000      -0.495085       -13.4719
  51   2.0000      -0.488027       -13.2799
  52   2.0000      -0.480594       -13.0776
  53   2.0000      -0.472005       -12.8439
  54   2.0000      -0.456993       -12.4354
  55   2.0000      -0.443907       -12.0793
  56   2.0000      -0.441237       -12.0067
  57   2.0000      -0.438914       -11.9435
  58   2.0000      -0.433037       -11.7835
  59   2.0000      -0.430811       -11.7230
  60   2.0000      -0.429784       -11.6950
  61   2.0000      -0.422027       -11.4839
  62   2.0000      -0.420026       -11.4295
  63   2.0000      -0.405599       -11.0369
  64   2.0000      -0.380599       -10.3566
  65   2.0000      -0.374792       -10.1986
  66   2.0000      -0.351406        -9.5622
  67   2.0000      -0.342807        -9.3283
  68   2.0000      -0.335916        -9.1407
  69   2.0000      -0.326413        -8.8821
  70   2.0000      -0.321758        -8.7555
  71   2.0000      -0.310345        -8.4449
  72   2.0000      -0.300405        -8.1744
  73   2.0000      -0.295812        -8.0494
  74   2.0000      -0.288630        -7.8540
  75   2.0000      -0.279829        -7.6145
  76   2.0000      -0.271768        -7.3952
  77   0.0000      -0.136020        -3.7013
  78   0.0000      -0.077087        -2.0977
  79   0.0000      -0.015021        -0.4087
  80   0.0000      -0.002418        -0.0658
  81   0.0000       0.066144         1.7999

MULLIKEN ATOMIC CHARGES
-----------------------
   0 Pd:    0.542399
   1 O :   -0.461870
   2 C :    0.623744
   3 O :   -0.527811
   4 C :   -0.761598
   5 H :    0.251011
   6 H :    0.257204
   7 H :    0.246800
   8 N :   -0.479855
   9 C :   -0.539621
  10 H :    0.298552
  11 H :    0.224254
  12 H :    0.265982
  13 C :   -0.575857
  14 H :    0.293951
  15 H :    0.236154
  16 H :    0.295513
  17 C :   -0.036576
  18 C :   -0.207220
  19 C :   -0.224244
  20 C :   -0.196220
  21 C :   -0.266340
  22 C :   -0.012216
  23 H :    0.240311
  24 H :    0.246270
  25 H :    0.237806
  26 H :    0.237903
  27 H :    0.057432
  28 C :   -0.325354
  29 H :    0.259184
  30 H :    0.261766
  31 O :   -0.546099
  32 C :    0.563348
  33 O :   -0.456269
  34 C :   -0.738760
  35 H :    0.225953
  36 H :    0.240873
  37 H :    0.249501
Sum of atomic charges:   -0.0000000

LOEWDIN ATOMIC CHARGES
----------------------
   0 Pd:   -0.215424
   1 O :   -0.144335
   2 C :    0.158568
   3 O :   -0.261888
   4 C :   -0.379039
   5 H :    0.153410
   6 H :    0.162005
   7 H :    0.148400
   8 N :   -0.045882
   9 C :   -0.238943
  10 H :    0.163257
  11 H :    0.122046
  12 H :    0.145554
  13 C :   -0.244368
  14 H :    0.158376
  15 H :    0.127214
  16 H :    0.161923
  17 C :   -0.066867
  18 C :   -0.103508
  19 C :   -0.124627
  20 C :   -0.123199
  21 C :   -0.136723
  22 C :   -0.010739
  23 H :    0.145596
  24 H :    0.146967
  25 H :    0.154466
  26 H :    0.143640
  27 H :    0.059961
  28 C :   -0.103780
  29 H :    0.147205
  30 H :    0.148401
  31 O :   -0.171145
  32 C :    0.125667
  33 O :   -0.257492
  34 C :   -0.379240
  35 H :    0.141902
  36 H :    0.146962
  37 H :    0.145681

  Mayer bond orders larger than 0.100000
B(  0-Pd,  1-O ) :   0.5673 B(  0-Pd,  3-O ) :   0.3745 B(  0-Pd,  8-N ) :   0.4173
B(  0-Pd, 31-O ) :   0.6744 B(  0-Pd, 33-O ) :   0.1060 B(  1-O ,  2-C ) :   1.4395
B(  2-C ,  3-O ) :   1.5665 B(  2-C ,  4-C ) :   0.9467 B(  4-C ,  5-H ) :   0.9116
B(  4-C ,  6-H ) :   0.9060 B(  4-C ,  7-H ) :   0.9109 B(  8-N ,  9-C ) :   0.9167
B(  8-N , 13-C ) :   0.9144 B(  8-N , 28-C ) :   0.8944 B(  9-C , 10-H ) :   0.8867
B(  9-C , 11-H ) :   0.9007 B(  9-C , 12-H ) :   0.9074 B( 13-C , 14-H ) :   0.8792
B( 13-C , 15-H ) :   0.9006 B( 13-C , 16-H ) :   0.8904 B( 17-C , 18-C ) :   1.3874
B( 17-C , 22-C ) :   1.4189 B( 17-C , 28-C ) :   0.9476 B( 18-C , 19-C ) :   1.4452
B( 18-C , 25-H ) :   0.9064 B( 19-C , 20-C ) :   1.4311 B( 19-C , 26-H ) :   0.9086
B( 20-C , 21-C ) :   1.4012 B( 20-C , 23-H ) :   0.9081 B( 21-C , 22-C ) :   1.4534
B( 21-C , 24-H ) :   0.9087 B( 22-C , 27-H ) :   0.8110 B( 28-C , 29-H ) :   0.8935
B( 28-C , 30-H ) :   0.9118 B( 31-O , 32-C ) :   1.2443 B( 32-C , 33-O ) :   1.8721
B( 32-C , 34-C ) :   0.9386 B( 34-C , 35-H ) :   0.9162 B( 34-C , 36-H ) :   0.9118
B( 34-C , 37-H ) :   0.9177

Dispersion correction           -0.025774723
FINAL SINGLE POINT ENERGY      -988.272088205522
Dispersion correction            ... done

DIPOLE MOMENT
-------------
                                X             Y             Z
Electronic contribution:     22.73821      19.75889     -22.02665
Nuclear contribution   :    -24.54330     -20.99612      23.12774
                        -----------------------------------------
Total Dipole Moment    :     -1.80509      -1.23722       1.10110
                        -----------------------------------------
Magnitude (a.u.)       :      2.44979
Magnitude (Debye)      :      6.22687

Rotational constants in cm-1:     0.013392     0.008280     0.006809
Rotational constants in MHz :   401.468130   248.236999   204.119044

                             ****ORCA TERMINATED NORMALLY****
TOTAL RUN TIME: 0 days 0 hours 21 minutes 51 seconds 646 msec
