                         Program Version 5.0.3 -  RELEASE  -
|  1> ! EnGrad PBEh-3c
|  2> %output
|  3> xyzfile=True
|  4> end
|  5> %scf
|  6> maxiter 250
|  7> end
|  8> %output
|  9> Print[P_Hirshfeld] = 1
| 10> end
| 11> % maxcore
| 12> 4000
| 13> *xyz 0 1
| 14> Pd   0.55942753   0.43736960  -0.41644327
| 15> O    2.11117102   1.42351435   0.55509364
| 16> C    1.64392141   2.66482377   0.29287970
| 17> O    0.59394047   2.79488078  -0.16029777
| 18> C    2.62160531   3.82118110   0.58716904
| 19> H    2.06582868   4.63848720   1.05280824
| 20> H    3.00611758   4.19398876  -0.36110488
| 21> H    3.46042385   3.54629915   1.21655346
| 22> N   -1.30184242  -0.56070302  -1.12830648
| 23> C   -1.23401603  -1.43643338  -2.30048333
| 24> H   -0.89595386  -0.89710065  -3.17669702
| 25> H   -2.24218219  -1.78951037  -2.55591718
| 26> H   -0.59088033  -2.27020281  -2.12947859
| 27> C   -2.13603581   0.57523931  -1.47889051
| 28> H   -2.23865946   1.27428362  -0.67636491
| 29> H   -3.14924916   0.24309596  -1.76172741
| 30> H   -1.70921059   1.09536380  -2.32082093
| 31> C   -1.53516947  -0.93177441   1.34498243
| 32> C   -0.77359000  -1.89598782   2.11273400
| 33> C   -0.63008607  -1.80313223   3.47303312
| 34> C   -1.20203020  -0.78309558   4.13726219
| 35> C   -2.02993740   0.13614716   3.44385659
| 36> C   -2.07479413   0.11937054   2.11066772
| 37> H   -1.04310959  -0.66667917   5.21022344
| 38> H   -2.60597462   0.74714993   4.04131051
| 39> H   -0.36833147  -2.74693461   1.63038879
| 40> H   -0.12261308  -2.56747533   4.01883895
| 41> H   -2.65876607   2.52749951   1.85404569
| 42> C   -1.93996780  -1.33714446  -0.00478105
| 43> H   -3.03702076  -1.24531178  -0.05097445
| 44> H   -1.79790584  -2.39244311  -0.15528540
| 45> O    1.89211444  -0.80678898  -1.17345431
| 46> C    2.27318219  -0.60409267  -2.42571789
| 47> O    1.66399442  -0.01318091  -3.22699363
| 48> C    3.60533409  -1.25801530  -2.80492290
| 49> H    3.52225310  -2.32510674  -2.82233530
| 50> H    4.39020823  -0.97590007  -2.13407870
| 51> H    3.90908587  -0.93308488  -3.81598787
| 52> *
| 53>
| 54>                          ****END OF INPUT****

CARTESIAN COORDINATES (ANGSTROEM)
---------------------------------
  Pd     0.559428    0.437370   -0.416443
  O      2.111171    1.423514    0.555094
  C      1.643921    2.664824    0.292880
  O      0.593940    2.794881   -0.160298
  C      2.621605    3.821181    0.587169
  H      2.065829    4.638487    1.052808
  H      3.006118    4.193989   -0.361105
  H      3.460424    3.546299    1.216553
  N     -1.301842   -0.560703   -1.128306
  C     -1.234016   -1.436433   -2.300483
  H     -0.895954   -0.897101   -3.176697
  H     -2.242182   -1.789510   -2.555917
  H     -0.590880   -2.270203   -2.129479
  C     -2.136036    0.575239   -1.478891
  H     -2.238659    1.274284   -0.676365
  H     -3.149249    0.243096   -1.761727
  H     -1.709211    1.095364   -2.320821
  C     -1.535169   -0.931774    1.344982
  C     -0.773590   -1.895988    2.112734
  C     -0.630086   -1.803132    3.473033
  C     -1.202030   -0.783096    4.137262
  C     -2.029937    0.136147    3.443857
  C     -2.074794    0.119371    2.110668
  H     -1.043110   -0.666679    5.210223
  H     -2.605975    0.747150    4.041311
  H     -0.368331   -2.746935    1.630389
  H     -0.122613   -2.567475    4.018839
  H     -2.658766    2.527500    1.854046
  C     -1.939968   -1.337144   -0.004781
  H     -3.037021   -1.245312   -0.050974
  H     -1.797906   -2.392443   -0.155285
  O      1.892114   -0.806789   -1.173454
  C      2.273182   -0.604093   -2.425718
  O      1.663994   -0.013181   -3.226994
  C      3.605334   -1.258015   -2.804923
  H      3.522253   -2.325107   -2.822335
  H      4.390208   -0.975900   -2.134079
  H      3.909086   -0.933085   -3.815988

 Total Charge           Charge          ....    0
 Multiplicity           Mult            ....    1
 Number of Electrons    NEL             ....  154
 Basis Dimension        Dim             ....  339

ORBITAL ENERGIES
----------------

  NO   OCC          E(Eh)            E(eV)
   0   2.0000     -19.480471      -530.0906
   1   2.0000     -19.474278      -529.9221
   2   2.0000     -19.471701      -529.8519
   3   2.0000     -19.436561      -528.8957
   4   2.0000     -14.719682      -400.5429
   5   2.0000     -10.551130      -287.1108
   6   2.0000     -10.529089      -286.5111
   7   2.0000     -10.527494      -286.4677
   8   2.0000     -10.508961      -285.9634
   9   2.0000     -10.503308      -285.8095
  10   2.0000     -10.480269      -285.1826
  11   2.0000     -10.478412      -285.1321
  12   2.0000     -10.476261      -285.0736
  13   2.0000     -10.474190      -285.0172
  14   2.0000     -10.470022      -284.9038
  15   2.0000     -10.462956      -284.7115
  16   2.0000     -10.428804      -283.7822
  17   2.0000     -10.410487      -283.2837
  18   2.0000      -3.656099       -99.4875
  19   2.0000      -2.304449       -62.7073
  20   2.0000      -2.299993       -62.5860
  21   2.0000      -2.266165       -61.6655
  22   2.0000      -1.208791       -32.8929
  23   2.0000      -1.163447       -31.6590
  24   2.0000      -1.079880       -29.3850
  25   2.0000      -1.056273       -28.7426
  26   2.0000      -1.053226       -28.6597
  27   2.0000      -0.992628       -27.0108
  28   2.0000      -0.900639       -24.5076
  29   2.0000      -0.869367       -23.6567
  30   2.0000      -0.823814       -22.4171
  31   2.0000      -0.809331       -22.0230
  32   2.0000      -0.807740       -21.9797
  33   2.0000      -0.792986       -21.5783
  34   2.0000      -0.726626       -19.7725
  35   2.0000      -0.709430       -19.3046
  36   2.0000      -0.679096       -18.4792
  37   2.0000      -0.609094       -16.5743
  38   2.0000      -0.593313       -16.1449
  39   2.0000      -0.582734       -15.8570
  40   2.0000      -0.580728       -15.8024
  41   2.0000      -0.579682       -15.7739
  42   2.0000      -0.564336       -15.3564
  43   2.0000      -0.542725       -14.7683
  44   2.0000      -0.533990       -14.5306
  45   2.0000      -0.532892       -14.5007
  46   2.0000      -0.520961       -14.1761
  47   2.0000      -0.514972       -14.0131
  48   2.0000      -0.513450       -13.9717
  49   2.0000      -0.500883       -13.6297
  50   2.0000      -0.496788       -13.5183
  51   2.0000      -0.491784       -13.3821
  52   2.0000      -0.484662       -13.1883
  53   2.0000      -0.472690       -12.8626
  54   2.0000      -0.462244       -12.5783
  55   2.0000      -0.450419       -12.2565
  56   2.0000      -0.447726       -12.1832
  57   2.0000      -0.443186       -12.0597
  58   2.0000      -0.439246       -11.9525
  59   2.0000      -0.435160       -11.8413
  60   2.0000      -0.434738       -11.8298
  61   2.0000      -0.426892       -11.6163
  62   2.0000      -0.421603       -11.4724
  63   2.0000      -0.397385       -10.8134
  64   2.0000      -0.379217       -10.3190
  65   2.0000      -0.371762       -10.1162
  66   2.0000      -0.349071        -9.4987
  67   2.0000      -0.345502        -9.4016
  68   2.0000      -0.337961        -9.1964
  69   2.0000      -0.332954        -9.0601
  70   2.0000      -0.322031        -8.7629
  71   2.0000      -0.311047        -8.4640
  72   2.0000      -0.302629        -8.2349
  73   2.0000      -0.292304        -7.9540
  74   2.0000      -0.289609        -7.8807
  75   2.0000      -0.284393        -7.7387
  76   2.0000      -0.276401        -7.5212
  77   0.0000      -0.124739        -3.3943
  78   0.0000      -0.072163        -1.9636
  79   0.0000      -0.026436        -0.7193
  80   0.0000       0.001712         0.0466
  81   0.0000       0.066581         1.8118

MULLIKEN ATOMIC CHARGES
-----------------------
   0 Pd:    0.495667
   1 O :   -0.527337
   2 C :    0.600145
   3 O :   -0.394023
   4 C :   -0.760307
   5 H :    0.236676
   6 H :    0.251305
   7 H :    0.254753
   8 N :   -0.464547
   9 C :   -0.534098
  10 H :    0.291318
  11 H :    0.214148
  12 H :    0.269438
  13 C :   -0.560694
  14 H :    0.289744
  15 H :    0.223319
  16 H :    0.287965
  17 C :   -0.029276
  18 C :   -0.228962
  19 C :   -0.185342
  20 C :   -0.234069
  21 C :   -0.235028
  22 C :   -0.004218
  23 H :    0.241465
  24 H :    0.260696
  25 H :    0.242504
  26 H :    0.239234
  27 H :    0.009041
  28 C :   -0.330981
  29 H :    0.252813
  30 H :    0.268227
  31 O :   -0.553155
  32 C :    0.548965
  33 O :   -0.405549
  34 C :   -0.745263
  35 H :    0.234057
  36 H :    0.248976
  37 H :    0.232391
Sum of atomic charges:   -0.0000000

LOEWDIN ATOMIC CHARGES
----------------------
   0 Pd:   -0.232785
   1 O :   -0.218577
   2 C :    0.148781
   3 O :   -0.116207
   4 C :   -0.386023
   5 H :    0.145654
   6 H :    0.156489
   7 H :    0.149515
   8 N :   -0.065925
   9 C :   -0.239504
  10 H :    0.160013
  11 H :    0.116850
  12 H :    0.147154
  13 C :   -0.243989
  14 H :    0.157284
  15 H :    0.121049
  16 H :    0.158589
  17 C :   -0.061747
  18 C :   -0.087629
  19 C :   -0.132675
  20 C :   -0.110536
  21 C :   -0.142308
  22 C :    0.010721
  23 H :    0.146068
  24 H :    0.152874
  25 H :    0.151921
  26 H :    0.146888
  27 H :    0.010417
  28 C :   -0.104846
  29 H :    0.146197
  30 H :    0.151332
  31 O :   -0.192388
  32 C :    0.114474
  33 O :   -0.202829
  34 C :   -0.385616
  35 H :    0.143437
  36 H :    0.147349
  37 H :    0.140528

  Mayer bond orders larger than 0.100000
B(  0-Pd,  1-O ) :   0.6925 B(  0-Pd,  3-O ) :   0.2709 B(  0-Pd,  8-N ) :   0.3785
B(  0-Pd, 31-O ) :   0.7049 B(  1-O ,  2-C ) :   1.2229 B(  2-C ,  3-O ) :   1.8081
B(  2-C ,  4-C ) :   0.9332 B(  4-C ,  5-H ) :   0.9149 B(  4-C ,  6-H ) :   0.9095
B(  4-C ,  7-H ) :   0.9110 B(  8-N ,  9-C ) :   0.9283 B(  8-N , 13-C ) :   0.9262
B(  8-N , 28-C ) :   0.8947 B(  9-C , 10-H ) :   0.8900 B(  9-C , 11-H ) :   0.9037
B(  9-C , 12-H ) :   0.9059 B( 13-C , 14-H ) :   0.8800 B( 13-C , 15-H ) :   0.9046
B( 13-C , 16-H ) :   0.8928 B( 17-C , 18-C ) :   1.3985 B( 17-C , 20-C ) :   0.1014
B( 17-C , 22-C ) :   1.3898 B( 17-C , 28-C ) :   0.9502 B( 18-C , 19-C ) :   1.4276
B( 18-C , 25-H ) :   0.9038 B( 19-C , 20-C ) :   1.4589 B( 19-C , 26-H ) :   0.9091
B( 20-C , 21-C ) :   1.3590 B( 20-C , 23-H ) :   0.9068 B( 21-C , 22-C ) :   1.5176
B( 21-C , 24-H ) :   0.9001 B( 22-C , 27-H ) :   0.7892 B( 28-C , 29-H ) :   0.8948
B( 28-C , 30-H ) :   0.9099 B( 31-O , 32-C ) :   1.2040 B( 32-C , 33-O ) :   1.9502
B( 32-C , 34-C ) :   0.9260 B( 34-C , 35-H ) :   0.9158 B( 34-C , 36-H ) :   0.9106
B( 34-C , 37-H ) :   0.9241

Dispersion correction           -0.025724693
FINAL SINGLE POINT ENERGY      -988.266217685470
Dispersion correction            ... done

DIPOLE MOMENT
-------------
                                X             Y             Z
Electronic contribution:     23.87200      20.30864     -20.36667
Nuclear contribution   :    -25.77840     -21.46254      21.44007
                        -----------------------------------------
Total Dipole Moment    :     -1.90640      -1.15390       1.07340
                        -----------------------------------------
Magnitude (a.u.)       :      2.47347
Magnitude (Debye)      :      6.28705

Rotational constants in cm-1:     0.013364     0.008247     0.006764
Rotational constants in MHz :   400.655975   247.228028   202.793014

                             ****ORCA TERMINATED NORMALLY****
TOTAL RUN TIME: 0 days 0 hours 10 minutes 3 seconds 468 msec
