                         Program Version 5.0.3 -  RELEASE  -
|  1> ! EnGrad PBEh-3c
|  2> %output
|  3> xyzfile=True
|  4> end
|  5> %scf
|  6> maxiter 250
|  7> end
|  8> %output
|  9> Print[P_Hirshfeld] = 1
| 10> end
| 11> % maxcore
| 12> 4000
| 13> *xyz 0 1
| 14> Pd   0.54341946   0.43210755  -0.43834785
| 15> O    2.10262580   1.46979623   0.55480420
| 16> C    1.70624501   2.65483910   0.30856643
| 17> O    0.56717318   2.78353452  -0.16856244
| 18> C    2.60849255   3.83194838   0.58624560
| 19> H    2.05290462   4.64421691   1.05326966
| 20> H    2.99380636   4.20606065  -0.36331170
| 21> H    3.45271648   3.55815314   1.21250885
| 22> N   -1.26633836  -0.55324370  -1.10341802
| 23> C   -1.24480162  -1.39622494  -2.31828028
| 24> H   -0.91278469  -0.85977535  -3.20234840
| 25> H   -2.24721281  -1.76216031  -2.58263574
| 26> H   -0.59782514  -2.24703452  -2.17060656
| 27> C   -2.13958552   0.57342844  -1.46909070
| 28> H   -2.23748377   1.27609072  -0.66163978
| 29> H   -3.15806152   0.26981269  -1.74455125
| 30> H   -1.72285496   1.12972758  -2.30078857
| 31> C   -1.51298451  -0.94128338   1.35991152
| 32> C   -0.73853349  -1.86327679   2.08749449
| 33> C   -0.61741675  -1.80161309   3.45623098
| 34> C   -1.19817739  -0.76749871   4.13724309
| 35> C   -2.05778975   0.08464876   3.44552905
| 36> C   -2.10399349   0.11284491   2.07098829
| 37> H   -1.04497774  -0.67375132   5.20695359
| 38> H   -2.68381024   0.69530531   4.05794324
| 39> H   -0.29021400  -2.72168205   1.61718090
| 40> H   -0.06529970  -2.54843931   4.00263265
| 41> H   -2.69919840   2.51949627   1.89424492
| 42> C   -1.92749978  -1.33382556  -0.01803982
| 43> H   -3.02696437  -1.28395460  -0.05620634
| 44> H   -1.76164439  -2.40037143  -0.16950421
| 45> O    1.86907531  -0.81730512  -1.16092428
| 46> C    2.28244489  -0.63506039  -2.38443264
| 47> O    1.69359262   0.01910236  -3.19983876
| 48> C    3.58949139  -1.28358621  -2.80656574
| 49> H    3.49020135  -2.36258739  -2.79145947
| 50> H    4.39191076  -1.00967731  -2.12953441
| 51> H    3.91171952  -0.99916710  -3.81142305
| 52> *
| 53>
| 54>                          ****END OF INPUT****

CARTESIAN COORDINATES (ANGSTROEM)
---------------------------------
  Pd     0.543419    0.432108   -0.438348
  O      2.102626    1.469796    0.554804
  C      1.706245    2.654839    0.308566
  O      0.567173    2.783535   -0.168562
  C      2.608493    3.831948    0.586246
  H      2.052905    4.644217    1.053270
  H      2.993806    4.206061   -0.363312
  H      3.452716    3.558153    1.212509
  N     -1.266338   -0.553244   -1.103418
  C     -1.244802   -1.396225   -2.318280
  H     -0.912785   -0.859775   -3.202348
  H     -2.247213   -1.762160   -2.582636
  H     -0.597825   -2.247035   -2.170607
  C     -2.139586    0.573428   -1.469091
  H     -2.237484    1.276091   -0.661640
  H     -3.158062    0.269813   -1.744551
  H     -1.722855    1.129728   -2.300789
  C     -1.512985   -0.941283    1.359912
  C     -0.738533   -1.863277    2.087494
  C     -0.617417   -1.801613    3.456231
  C     -1.198177   -0.767499    4.137243
  C     -2.057790    0.084649    3.445529
  C     -2.103993    0.112845    2.070988
  H     -1.044978   -0.673751    5.206954
  H     -2.683810    0.695305    4.057943
  H     -0.290214   -2.721682    1.617181
  H     -0.065300   -2.548439    4.002633
  H     -2.699198    2.519496    1.894245
  C     -1.927500   -1.333826   -0.018040
  H     -3.026964   -1.283955   -0.056206
  H     -1.761644   -2.400371   -0.169504
  O      1.869075   -0.817305   -1.160924
  C      2.282445   -0.635060   -2.384433
  O      1.693593    0.019102   -3.199839
  C      3.589491   -1.283586   -2.806566
  H      3.490201   -2.362587   -2.791459
  H      4.391911   -1.009677   -2.129534
  H      3.911720   -0.999167   -3.811423

 Total Charge           Charge          ....    0
 Multiplicity           Mult            ....    1
 Number of Electrons    NEL             ....  154
 Basis Dimension        Dim             ....  339

ORBITAL ENERGIES
----------------

  NO   OCC          E(Eh)            E(eV)
   0   2.0000     -19.480896      -530.1021
   1   2.0000     -19.478069      -530.0252
   2   2.0000     -19.459103      -529.5091
   3   2.0000     -19.428862      -528.6862
   4   2.0000     -14.728531      -400.7837
   5   2.0000     -10.547931      -287.0238
   6   2.0000     -10.530366      -286.5458
   7   2.0000     -10.526559      -286.4422
   8   2.0000     -10.510002      -285.9917
   9   2.0000     -10.497331      -285.6469
  10   2.0000     -10.480308      -285.1837
  11   2.0000     -10.480196      -285.1806
  12   2.0000     -10.474799      -285.0338
  13   2.0000     -10.472373      -284.9677
  14   2.0000     -10.470289      -284.9110
  15   2.0000     -10.463740      -284.7328
  16   2.0000     -10.429257      -283.7945
  17   2.0000     -10.414506      -283.3931
  18   2.0000      -3.661351       -99.6304
  19   2.0000      -2.309657       -62.8490
  20   2.0000      -2.305688       -62.7409
  21   2.0000      -2.270150       -61.7739
  22   2.0000      -1.175056       -31.9749
  23   2.0000      -1.154019       -31.4025
  24   2.0000      -1.082162       -29.4471
  25   2.0000      -1.056737       -28.7553
  26   2.0000      -1.054747       -28.7011
  27   2.0000      -0.989255       -26.9190
  28   2.0000      -0.896365       -24.3913
  29   2.0000      -0.859660       -23.3925
  30   2.0000      -0.820219       -22.3193
  31   2.0000      -0.814743       -22.1703
  32   2.0000      -0.809220       -22.0200
  33   2.0000      -0.795912       -21.6579
  34   2.0000      -0.728505       -19.8236
  35   2.0000      -0.703346       -19.1390
  36   2.0000      -0.679150       -18.4806
  37   2.0000      -0.604979       -16.4623
  38   2.0000      -0.595470       -16.2036
  39   2.0000      -0.587145       -15.9770
  40   2.0000      -0.579805       -15.7773
  41   2.0000      -0.577667       -15.7191
  42   2.0000      -0.562217       -15.2987
  43   2.0000      -0.539607       -14.6834
  44   2.0000      -0.527097       -14.3430
  45   2.0000      -0.522143       -14.2082
  46   2.0000      -0.514652       -14.0044
  47   2.0000      -0.512656       -13.9501
  48   2.0000      -0.506335       -13.7781
  49   2.0000      -0.500039       -13.6067
  50   2.0000      -0.495314       -13.4782
  51   2.0000      -0.488925       -13.3043
  52   2.0000      -0.481873       -13.1124
  53   2.0000      -0.472196       -12.8491
  54   2.0000      -0.458673       -12.4811
  55   2.0000      -0.444548       -12.0968
  56   2.0000      -0.442687       -12.0461
  57   2.0000      -0.441188       -12.0053
  58   2.0000      -0.432885       -11.7794
  59   2.0000      -0.431830       -11.7507
  60   2.0000      -0.429434       -11.6855
  61   2.0000      -0.426199       -11.5975
  62   2.0000      -0.420278       -11.4364
  63   2.0000      -0.404365       -11.0033
  64   2.0000      -0.379502       -10.3268
  65   2.0000      -0.374769       -10.1980
  66   2.0000      -0.351363        -9.5611
  67   2.0000      -0.343917        -9.3585
  68   2.0000      -0.337251        -9.1771
  69   2.0000      -0.328313        -8.9339
  70   2.0000      -0.322433        -8.7738
  71   2.0000      -0.312333        -8.4990
  72   2.0000      -0.301667        -8.2088
  73   2.0000      -0.295620        -8.0442
  74   2.0000      -0.288181        -7.8418
  75   2.0000      -0.283519        -7.7149
  76   2.0000      -0.273720        -7.4483
  77   0.0000      -0.132814        -3.6140
  78   0.0000      -0.075913        -2.0657
  79   0.0000      -0.017816        -0.4848
  80   0.0000      -0.001569        -0.0427
  81   0.0000       0.066744         1.8162

MULLIKEN ATOMIC CHARGES
-----------------------
   0 Pd:    0.530795
   1 O :   -0.484679
   2 C :    0.622441
   3 O :   -0.494376
   4 C :   -0.760812
   5 H :    0.246901
   6 H :    0.255521
   7 H :    0.249414
   8 N :   -0.475190
   9 C :   -0.538082
  10 H :    0.296462
  11 H :    0.221337
  12 H :    0.267049
  13 C :   -0.571319
  14 H :    0.292670
  15 H :    0.232584
  16 H :    0.293356
  17 C :   -0.035872
  18 C :   -0.212495
  19 C :   -0.214258
  20 C :   -0.206161
  21 C :   -0.258678
  22 C :   -0.009660
  23 H :    0.240750
  24 H :    0.250965
  25 H :    0.238945
  26 H :    0.238639
  27 H :    0.044082
  28 C :   -0.326485
  29 H :    0.257358
  30 H :    0.263731
  31 O :   -0.548198
  32 C :    0.559609
  33 O :   -0.441854
  34 C :   -0.740894
  35 H :    0.228408
  36 H :    0.243232
  37 H :    0.244763
Sum of atomic charges:   -0.0000000

LOEWDIN ATOMIC CHARGES
----------------------
   0 Pd:   -0.218068
   1 O :   -0.168387
   2 C :    0.158295
   3 O :   -0.223213
   4 C :   -0.380700
   5 H :    0.151206
   6 H :    0.160420
   7 H :    0.148800
   8 N :   -0.051459
   9 C :   -0.239176
  10 H :    0.162302
  11 H :    0.120511
  12 H :    0.146070
  13 C :   -0.244130
  14 H :    0.158046
  15 H :    0.125498
  16 H :    0.160914
  17 C :   -0.065654
  18 C :   -0.098967
  19 C :   -0.126956
  20 C :   -0.119637
  21 C :   -0.138639
  22 C :   -0.004760
  23 H :    0.145722
  24 H :    0.148990
  25 H :    0.153691
  26 H :    0.144555
  27 H :    0.046265
  28 C :   -0.103820
  29 H :    0.146813
  30 H :    0.149334
  31 O :   -0.177061
  32 C :    0.122253
  33 O :   -0.241696
  34 C :   -0.381181
  35 H :    0.142430
  36 H :    0.147125
  37 H :    0.144265

  Mayer bond orders larger than 0.100000
B(  0-Pd,  1-O ) :   0.6042 B(  0-Pd,  3-O ) :   0.3414 B(  0-Pd,  8-N ) :   0.4067
B(  0-Pd, 31-O ) :   0.6842 B(  0-Pd, 33-O ) :   0.1016 B(  1-O ,  2-C ) :   1.3733
B(  2-C ,  3-O ) :   1.6346 B(  2-C ,  4-C ) :   0.9438 B(  4-C ,  5-H ) :   0.9126
B(  4-C ,  6-H ) :   0.9070 B(  4-C ,  7-H ) :   0.9109 B(  8-N ,  9-C ) :   0.9203
B(  8-N , 13-C ) :   0.9178 B(  8-N , 28-C ) :   0.8947 B(  9-C , 10-H ) :   0.8877
B(  9-C , 11-H ) :   0.9016 B(  9-C , 12-H ) :   0.9070 B( 13-C , 14-H ) :   0.8795
B( 13-C , 15-H ) :   0.9018 B( 13-C , 16-H ) :   0.8912 B( 17-C , 18-C ) :   1.3908
B( 17-C , 22-C ) :   1.4117 B( 17-C , 28-C ) :   0.9482 B( 18-C , 19-C ) :   1.4418
B( 18-C , 25-H ) :   0.9058 B( 19-C , 20-C ) :   1.4399 B( 19-C , 26-H ) :   0.9086
B( 20-C , 21-C ) :   1.3907 B( 20-C , 23-H ) :   0.9078 B( 21-C , 22-C ) :   1.4712
B( 21-C , 24-H ) :   0.9062 B( 22-C , 27-H ) :   0.8061 B( 28-C , 29-H ) :   0.8940
B( 28-C , 30-H ) :   0.9114 B( 31-O , 32-C ) :   1.2322 B( 32-C , 33-O ) :   1.8952
B( 32-C , 34-C ) :   0.9349 B( 34-C , 35-H ) :   0.9162 B( 34-C , 36-H ) :   0.9116
B( 34-C , 37-H ) :   0.9196

Dispersion correction           -0.025761949
FINAL SINGLE POINT ENERGY      -988.282145169304
Dispersion correction            ... done

DIPOLE MOMENT
-------------
                                X             Y             Z
Electronic contribution:     23.05967      19.91279     -21.55060
Nuclear contribution   :    -24.89970     -21.13071      22.64075
                        -----------------------------------------
Total Dipole Moment    :     -1.84003      -1.21791       1.09015
                        -----------------------------------------
Magnitude (a.u.)       :      2.46119
Magnitude (Debye)      :      6.25585

Rotational constants in cm-1:     0.013385     0.008271     0.006796
Rotational constants in MHz :   401.283026   247.959060   203.745618

                             ****ORCA TERMINATED NORMALLY****
TOTAL RUN TIME: 0 days 0 hours 21 minutes 39 seconds 312 msec
