                         Program Version 5.0.3 -  RELEASE  -
|  1> ! EnGrad PBEh-3c
|  2> %output
|  3> xyzfile=True
|  4> end
|  5> %scf
|  6> maxiter 250
|  7> end
|  8> %output
|  9> Print[P_Hirshfeld] = 1
| 10> end
| 11> % maxcore
| 12> 4000
| 13> *xyz 0 1
| 14> Pd   0.60814954   0.43545122  -0.34757235
| 15> O    2.09041863   1.35598822   0.53449808
| 16> C    1.59865803   2.62212401   0.30249852
| 17> O    0.58946568   2.84254244  -0.16903974
| 18> C    2.64431816   3.77994851   0.58852127
| 19> H    2.11222309   4.62011275   1.05093546
| 20> H    3.04798483   4.15373358  -0.35509516
| 21> H    3.48493817   3.50256608   1.23019003
| 22> N   -1.38536253  -0.59490129  -1.17443745
| 23> C   -1.21615291  -1.55221661  -2.24497934
| 24> H   -0.83987584  -1.02277453  -3.09667879
| 25> H   -2.22449603  -1.88526146  -2.47262502
| 26> H   -0.56255906  -2.35534582  -1.99060145
| 27> C   -2.13744509   0.56209809  -1.52269485
| 28> H   -2.24228340   1.27119853  -0.72293758
| 29> H   -3.12022365   0.16312398  -1.81800796
| 30> H   -1.66364562   0.98798173  -2.39027300
| 31> C   -1.57620299  -0.92743436   1.35281695
| 32> C   -0.91815899  -1.96024753   2.16585310
| 33> C   -0.67862432  -1.82602607   3.51725204
| 34> C   -1.22937691  -0.79437148   4.15149622
| 35> C   -1.90105972   0.25962003   3.46015836
| 36> C   -1.98425804   0.15076348   2.18350394
| 37> H   -1.03627320  -0.64475414   5.21626583
| 38> H   -2.36802302   0.93879576   4.00545303
| 39> H   -0.61752373  -2.84515512   1.67040080
| 40> H   -0.30544280  -2.63701276   4.07814613
| 41> H   -2.52609089   2.55738573   1.72374230
| 42> C   -1.99689483  -1.32497820   0.01688281
| 43> H   -3.07173907  -1.12290650  -0.03149868
| 44> H   -1.91607810  -2.37772980  -0.11006691
| 45> O    1.96555812  -0.75356408  -1.22820315
| 46> C    2.27464338  -0.55935024  -2.49329301
| 47> O    1.53614254  -0.08400843  -3.36261956
| 48> C    3.64830938  -1.14755693  -2.82662635
| 49> H    3.62449455  -2.21144082  -2.92446587
| 50> H    4.39249335  -0.86074548  -2.14134997
| 51> H    3.90448197  -0.72071479  -3.82388500
| 52> *
| 53>
| 54>                          ****END OF INPUT****

CARTESIAN COORDINATES (ANGSTROEM)
---------------------------------
  Pd     0.608150    0.435451   -0.347572
  O      2.090419    1.355988    0.534498
  C      1.598658    2.622124    0.302499
  O      0.589466    2.842542   -0.169040
  C      2.644318    3.779949    0.588521
  H      2.112223    4.620113    1.050935
  H      3.047985    4.153734   -0.355095
  H      3.484938    3.502566    1.230190
  N     -1.385363   -0.594901   -1.174437
  C     -1.216153   -1.552217   -2.244979
  H     -0.839876   -1.022775   -3.096679
  H     -2.224496   -1.885261   -2.472625
  H     -0.562559   -2.355346   -1.990601
  C     -2.137445    0.562098   -1.522695
  H     -2.242283    1.271199   -0.722938
  H     -3.120224    0.163124   -1.818008
  H     -1.663646    0.987982   -2.390273
  C     -1.576203   -0.927434    1.352817
  C     -0.918159   -1.960248    2.165853
  C     -0.678624   -1.826026    3.517252
  C     -1.229377   -0.794371    4.151496
  C     -1.901060    0.259620    3.460158
  C     -1.984258    0.150763    2.183504
  H     -1.036273   -0.644754    5.216266
  H     -2.368023    0.938796    4.005453
  H     -0.617524   -2.845155    1.670401
  H     -0.305443   -2.637013    4.078146
  H     -2.526091    2.557386    1.723742
  C     -1.996895   -1.324978    0.016883
  H     -3.071739   -1.122907   -0.031499
  H     -1.916078   -2.377730   -0.110067
  O      1.965558   -0.753564   -1.228203
  C      2.274643   -0.559350   -2.493293
  O      1.536143   -0.084008   -3.362620
  C      3.648309   -1.147557   -2.826626
  H      3.624495   -2.211441   -2.924466
  H      4.392493   -0.860745   -2.141350
  H      3.904482   -0.720715   -3.823885

 Total Charge           Charge          ....    0
 Multiplicity           Mult            ....    1
 Number of Electrons    NEL             ....  154
 Basis Dimension        Dim             ....  339

ORBITAL ENERGIES
----------------

  NO   OCC          E(Eh)            E(eV)
   0   2.0000     -19.498053      -530.5690
   1   2.0000     -19.496502      -530.5268
   2   2.0000     -19.476441      -529.9809
   3   2.0000     -19.435239      -528.8597
   4   2.0000     -14.703792      -400.1105
   5   2.0000     -10.566985      -287.5423
   6   2.0000     -10.536437      -286.7110
   7   2.0000     -10.531038      -286.5641
   8   2.0000     -10.512434      -286.0579
   9   2.0000     -10.507596      -285.9262
  10   2.0000     -10.490751      -285.4678
  11   2.0000     -10.480541      -285.1900
  12   2.0000     -10.474209      -285.0177
  13   2.0000     -10.468317      -284.8574
  14   2.0000     -10.468117      -284.8520
  15   2.0000     -10.467804      -284.8434
  16   2.0000     -10.434011      -283.9239
  17   2.0000     -10.410693      -283.2893
  18   2.0000      -3.660951       -99.6195
  19   2.0000      -2.312537       -62.9273
  20   2.0000      -2.302120       -62.6439
  21   2.0000      -2.272118       -61.8275
  22   2.0000      -1.228575       -33.4312
  23   2.0000      -1.135276       -30.8924
  24   2.0000      -1.076426       -29.2910
  25   2.0000      -1.074061       -29.2267
  26   2.0000      -1.045267       -28.4432
  27   2.0000      -1.002339       -27.2750
  28   2.0000      -0.906867       -24.6771
  29   2.0000      -0.883169       -24.0323
  30   2.0000      -0.828117       -22.5342
  31   2.0000      -0.811006       -22.0686
  32   2.0000      -0.801743       -21.8165
  33   2.0000      -0.794395       -21.6166
  34   2.0000      -0.725073       -19.7302
  35   2.0000      -0.710877       -19.3439
  36   2.0000      -0.680762       -18.5245
  37   2.0000      -0.617552       -16.8045
  38   2.0000      -0.603895       -16.4328
  39   2.0000      -0.586448       -15.9581
  40   2.0000      -0.585308       -15.9271
  41   2.0000      -0.577429       -15.7126
  42   2.0000      -0.566788       -15.4231
  43   2.0000      -0.552356       -15.0304
  44   2.0000      -0.546199       -14.8628
  45   2.0000      -0.536719       -14.6049
  46   2.0000      -0.533318       -14.5123
  47   2.0000      -0.525096       -14.2886
  48   2.0000      -0.505443       -13.7538
  49   2.0000      -0.503490       -13.7007
  50   2.0000      -0.491771       -13.3818
  51   2.0000      -0.487498       -13.2655
  52   2.0000      -0.484550       -13.1853
  53   2.0000      -0.477627       -12.9969
  54   2.0000      -0.468533       -12.7494
  55   2.0000      -0.460787       -12.5387
  56   2.0000      -0.450276       -12.2526
  57   2.0000      -0.448902       -12.2152
  58   2.0000      -0.442738       -12.0475
  59   2.0000      -0.439782       -11.9671
  60   2.0000      -0.437316       -11.9000
  61   2.0000      -0.425220       -11.5708
  62   2.0000      -0.419591       -11.4176
  63   2.0000      -0.400622       -10.9015
  64   2.0000      -0.386565       -10.5190
  65   2.0000      -0.367858       -10.0099
  66   2.0000      -0.353503        -9.6193
  67   2.0000      -0.351876        -9.5750
  68   2.0000      -0.342435        -9.3181
  69   2.0000      -0.327601        -8.9145
  70   2.0000      -0.326639        -8.8883
  71   2.0000      -0.314337        -8.5535
  72   2.0000      -0.309588        -8.4243
  73   2.0000      -0.293119        -7.9762
  74   2.0000      -0.289780        -7.8853
  75   2.0000      -0.281515        -7.6604
  76   2.0000      -0.277983        -7.5643
  77   0.0000      -0.113168        -3.0795
  78   0.0000      -0.077170        -2.0999
  79   0.0000      -0.035881        -0.9764
  80   0.0000       0.000400         0.0109
  81   0.0000       0.055818         1.5189

MULLIKEN ATOMIC CHARGES
-----------------------
   0 Pd:    0.495988
   1 O :   -0.533029
   2 C :    0.592462
   3 O :   -0.351553
   4 C :   -0.758944
   5 H :    0.235169
   6 H :    0.252497
   7 H :    0.248368
   8 N :   -0.442168
   9 C :   -0.527379
  10 H :    0.293737
  11 H :    0.204193
  12 H :    0.264660
  13 C :   -0.539796
  14 H :    0.283487
  15 H :    0.207810
  16 H :    0.282527
  17 C :   -0.003488
  18 C :   -0.269136
  19 C :   -0.153257
  20 C :   -0.264747
  21 C :   -0.207894
  22 C :    0.012483
  23 H :    0.239769
  24 H :    0.271118
  25 H :    0.246024
  26 H :    0.237937
  27 H :   -0.033107
  28 C :   -0.340488
  29 H :    0.248220
  30 H :    0.269242
  31 O :   -0.537255
  32 C :    0.560725
  33 O :   -0.468353
  34 C :   -0.738399
  35 H :    0.240765
  36 H :    0.253514
  37 H :    0.228298
Sum of atomic charges:   -0.0000000

LOEWDIN ATOMIC CHARGES
----------------------
   0 Pd:   -0.213257
   1 O :   -0.195423
   2 C :    0.165602
   3 O :   -0.084728
   4 C :   -0.391765
   5 H :    0.143449
   6 H :    0.155066
   7 H :    0.145580
   8 N :   -0.096381
   9 C :   -0.241251
  10 H :    0.161048
  11 H :    0.112269
  12 H :    0.148160
  13 C :   -0.243950
  14 H :    0.158383
  15 H :    0.113989
  16 H :    0.158663
  17 C :   -0.058426
  18 C :   -0.079333
  19 C :   -0.137684
  20 C :   -0.099648
  21 C :   -0.147121
  22 C :    0.035238
  23 H :    0.145498
  24 H :    0.157598
  25 H :    0.148435
  26 H :    0.150325
  27 H :   -0.032991
  28 C :   -0.109184
  29 H :    0.146147
  30 H :    0.151948
  31 O :   -0.187684
  32 C :    0.151489
  33 O :   -0.281612
  34 C :   -0.384404
  35 H :    0.147214
  36 H :    0.146084
  37 H :    0.142659

  Mayer bond orders larger than 0.100000
B(  0-Pd,  1-O ) :   0.7522 B(  0-Pd,  3-O ) :   0.2347 B(  0-Pd,  8-N ) :   0.3474
B(  0-Pd, 31-O ) :   0.6743 B(  1-O ,  2-C ) :   1.1475 B(  2-C ,  3-O ) :   1.8768
B(  2-C ,  4-C ) :   0.9237 B(  4-C ,  5-H ) :   0.9152 B(  4-C ,  6-H ) :   0.9095
B(  4-C ,  7-H ) :   0.9122 B(  8-N ,  9-C ) :   0.9348 B(  8-N , 13-C ) :   0.9364
B(  8-N , 28-C ) :   0.8977 B(  9-C , 10-H ) :   0.8841 B(  9-C , 11-H ) :   0.9057
B(  9-C , 12-H ) :   0.9080 B( 13-C , 14-H ) :   0.8817 B( 13-C , 15-H ) :   0.9081
B( 13-C , 16-H ) :   0.8945 B( 17-C , 18-C ) :   1.4124 B( 17-C , 20-C ) :   0.1040
B( 17-C , 22-C ) :   1.3453 B( 17-C , 28-C ) :   0.9505 B( 18-C , 19-C ) :   1.3901
B( 18-C , 25-H ) :   0.9019 B( 19-C , 20-C ) :   1.4758 B( 19-C , 26-H ) :   0.9121
B( 20-C , 21-C ) :   1.3058 B( 20-C , 23-H ) :   0.9066 B( 21-C , 22-C ) :   1.5814
B( 21-C , 24-H ) :   0.8920 B( 22-C , 27-H ) :   0.7615 B( 28-C , 29-H ) :   0.8948
B( 28-C , 30-H ) :   0.9093 B( 31-O , 32-C ) :   1.2505 B( 31-O , 33-O ) :   0.1014
B( 32-C , 33-O ) :   1.8779 B( 32-C , 34-C ) :   0.9270 B( 34-C , 35-H ) :   0.9142
B( 34-C , 36-H ) :   0.9071 B( 34-C , 37-H ) :   0.9248

Dispersion correction           -0.025567214
FINAL SINGLE POINT ENERGY      -988.233364401167
Dispersion correction            ... done

DIPOLE MOMENT
-------------
                                X             Y             Z
Electronic contribution:     26.90067      20.21541     -16.03137
Nuclear contribution   :    -28.55351     -21.42545      17.59095
                        -----------------------------------------
Total Dipole Moment    :     -1.65284      -1.21004       1.55958
                        -----------------------------------------
Magnitude (a.u.)       :      2.57456
Magnitude (Debye)      :      6.54401

Rotational constants in cm-1:     0.013296     0.008167     0.006654
Rotational constants in MHz :   398.592315   244.838478   199.468039

                             ****ORCA TERMINATED NORMALLY****
TOTAL RUN TIME: 0 days 0 hours 20 minutes 59 seconds 906 msec
