                         Program Version 5.0.3 -  RELEASE  -
|  1> ! EnGrad PBEh-3c
|  2> %output
|  3> xyzfile=True
|  4> end
|  5> %scf
|  6> maxiter 250
|  7> end
|  8> %output
|  9> Print[P_Hirshfeld] = 1
| 10> end
| 11> % maxcore
| 12> 4000
| 13> *xyz 0 1
| 14> Pd   0.56062329   0.43299622  -0.41422172
| 15> O    2.09938141   1.43954857   0.54940728
| 16> C    1.67765076   2.64614415   0.30695372
| 17> O    0.57309804   2.79921752  -0.16868930
| 18> C    2.61801421   3.81812796   0.58685043
| 19> H    2.06867017   4.63781055   1.05264928
| 20> H    3.00820581   4.19215327  -0.36112792
| 21> H    3.46128030   3.54337932   1.21720812
| 22> N   -1.29797237  -0.56431537  -1.12229342
| 23> C   -1.23718742  -1.43768409  -2.29879851
| 24> H   -0.89340712  -0.90309695  -3.17426375
| 25> H   -2.24117519  -1.79487789  -2.55339731
| 26> H   -0.58845219  -2.27582128  -2.12276516
| 27> C   -2.13901664   0.57041708  -1.48333751
| 28> H   -2.23875941   1.27479048  -0.67793138
| 29> H   -3.14800504   0.24145718  -1.76407443
| 30> H   -1.70711842   1.09205465  -2.32457156
| 31> C   -1.52978659  -0.93760261   1.35802594
| 32> C   -0.78627399  -1.88904948   2.10832048
| 33> C   -0.63368438  -1.80810152   3.47244903
| 34> C   -1.20646954  -0.77464090   4.14103126
| 35> C   -2.01613436   0.13115227   3.44941720
| 36> C   -2.07217045   0.12292283   2.10089248
| 37> H   -1.04266426  -0.66604451   5.20942858
| 38> H   -2.59988095   0.76001972   4.04399250
| 39> H   -0.37720572  -2.75449847   1.63132558
| 40> H   -0.12912445  -2.57198018   4.02270247
| 41> H   -2.65319023   2.52956645   1.84892908
| 42> C   -1.94594345  -1.33147412  -0.00875816
| 43> H   -3.03886450  -1.24115156  -0.04963959
| 44> H   -1.80268947  -2.39435379  -0.15370708
| 45> O    1.89471832  -0.80036416  -1.17880552
| 46> C    2.28037142  -0.61493830  -2.41336533
| 47> O    1.65174585  -0.00830222  -3.24310231
| 48> C    3.60512392  -1.24743262  -2.81189741
| 49> H    3.52589353  -2.32241596  -2.82680964
| 50> H    4.39206560  -0.97009451  -2.13267473
| 51> H    3.90979594  -0.92516060  -3.81473516
| 52> *
| 53>
| 54>                          ****END OF INPUT****

CARTESIAN COORDINATES (ANGSTROEM)
---------------------------------
  Pd     0.560623    0.432996   -0.414222
  O      2.099381    1.439549    0.549407
  C      1.677651    2.646144    0.306954
  O      0.573098    2.799218   -0.168689
  C      2.618014    3.818128    0.586850
  H      2.068670    4.637811    1.052649
  H      3.008206    4.192153   -0.361128
  H      3.461280    3.543379    1.217208
  N     -1.297972   -0.564315   -1.122293
  C     -1.237187   -1.437684   -2.298799
  H     -0.893407   -0.903097   -3.174264
  H     -2.241175   -1.794878   -2.553397
  H     -0.588452   -2.275821   -2.122765
  C     -2.139017    0.570417   -1.483338
  H     -2.238759    1.274790   -0.677931
  H     -3.148005    0.241457   -1.764074
  H     -1.707118    1.092055   -2.324572
  C     -1.529787   -0.937603    1.358026
  C     -0.786274   -1.889049    2.108320
  C     -0.633684   -1.808102    3.472449
  C     -1.206470   -0.774641    4.141031
  C     -2.016134    0.131152    3.449417
  C     -2.072170    0.122923    2.100892
  H     -1.042664   -0.666045    5.209429
  H     -2.599881    0.760020    4.043992
  H     -0.377206   -2.754498    1.631326
  H     -0.129124   -2.571980    4.022702
  H     -2.653190    2.529566    1.848929
  C     -1.945943   -1.331474   -0.008758
  H     -3.038864   -1.241152   -0.049640
  H     -1.802689   -2.394354   -0.153707
  O      1.894718   -0.800364   -1.178806
  C      2.280371   -0.614938   -2.413365
  O      1.651746   -0.008302   -3.243102
  C      3.605124   -1.247433   -2.811897
  H      3.525894   -2.322416   -2.826810
  H      4.392066   -0.970095   -2.132675
  H      3.909796   -0.925161   -3.814735

 Total Charge           Charge          ....    0
 Multiplicity           Mult            ....    1
 Number of Electrons    NEL             ....  154
 Basis Dimension        Dim             ....  339

ORBITAL ENERGIES
----------------

  NO   OCC          E(Eh)            E(eV)
   0   2.0000     -19.484970      -530.2130
   1   2.0000     -19.477151      -530.0002
   2   2.0000     -19.469345      -529.7878
   3   2.0000     -19.430414      -528.7284
   4   2.0000     -14.722036      -400.6070
   5   2.0000     -10.552878      -287.1584
   6   2.0000     -10.531055      -286.5646
   7   2.0000     -10.527063      -286.4560
   8   2.0000     -10.509200      -285.9699
   9   2.0000     -10.500655      -285.7373
  10   2.0000     -10.478422      -285.1324
  11   2.0000     -10.478253      -285.1277
  12   2.0000     -10.476622      -285.0834
  13   2.0000     -10.472028      -284.9584
  14   2.0000     -10.469755      -284.8965
  15   2.0000     -10.463989      -284.7396
  16   2.0000     -10.430629      -283.8318
  17   2.0000     -10.412550      -283.3399
  18   2.0000      -3.661061       -99.6225
  19   2.0000      -2.309822       -62.8534
  20   2.0000      -2.304789       -62.7165
  21   2.0000      -2.270377       -61.7801
  22   2.0000      -1.183012       -32.1914
  23   2.0000      -1.150459       -31.3056
  24   2.0000      -1.081013       -29.4159
  25   2.0000      -1.065579       -28.9959
  26   2.0000      -1.053361       -28.6634
  27   2.0000      -0.993033       -27.0218
  28   2.0000      -0.899513       -24.4770
  29   2.0000      -0.865698       -23.5569
  30   2.0000      -0.822598       -22.3840
  31   2.0000      -0.811168       -22.0730
  32   2.0000      -0.810219       -22.0472
  33   2.0000      -0.795638       -21.6504
  34   2.0000      -0.725857       -19.7516
  35   2.0000      -0.707485       -19.2516
  36   2.0000      -0.680679       -18.5222
  37   2.0000      -0.608331       -16.5535
  38   2.0000      -0.596408       -16.2291
  39   2.0000      -0.587319       -15.9818
  40   2.0000      -0.579626       -15.7724
  41   2.0000      -0.579078       -15.7575
  42   2.0000      -0.563309       -15.3284
  43   2.0000      -0.541322       -14.7301
  44   2.0000      -0.530802       -14.4439
  45   2.0000      -0.528142       -14.3715
  46   2.0000      -0.518324       -14.1043
  47   2.0000      -0.511510       -13.9189
  48   2.0000      -0.508557       -13.8385
  49   2.0000      -0.500980       -13.6324
  50   2.0000      -0.494567       -13.4578
  51   2.0000      -0.488830       -13.3017
  52   2.0000      -0.483452       -13.1554
  53   2.0000      -0.473732       -12.8909
  54   2.0000      -0.461731       -12.5643
  55   2.0000      -0.447583       -12.1793
  56   2.0000      -0.445742       -12.1292
  57   2.0000      -0.443306       -12.0630
  58   2.0000      -0.437185       -11.8964
  59   2.0000      -0.433671       -11.8008
  60   2.0000      -0.431385       -11.7386
  61   2.0000      -0.428336       -11.6556
  62   2.0000      -0.420391       -11.4394
  63   2.0000      -0.399674       -10.8757
  64   2.0000      -0.378513       -10.2999
  65   2.0000      -0.372912       -10.1475
  66   2.0000      -0.350531        -9.5384
  67   2.0000      -0.347838        -9.4652
  68   2.0000      -0.340179        -9.2567
  69   2.0000      -0.331095        -9.0096
  70   2.0000      -0.324299        -8.8246
  71   2.0000      -0.314806        -8.5663
  72   2.0000      -0.304224        -8.2784
  73   2.0000      -0.295555        -8.0425
  74   2.0000      -0.287374        -7.8198
  75   2.0000      -0.286593        -7.7986
  76   2.0000      -0.275890        -7.5073
  77   0.0000      -0.127363        -3.4657
  78   0.0000      -0.076585        -2.0840
  79   0.0000      -0.021543        -0.5862
  80   0.0000      -0.000573        -0.0156
  81   0.0000       0.064917         1.7665

MULLIKEN ATOMIC CHARGES
-----------------------
   0 Pd:    0.519026
   1 O :   -0.500579
   2 C :    0.619275
   3 O :   -0.459450
   4 C :   -0.759723
   5 H :    0.243697
   6 H :    0.254840
   7 H :    0.249566
   8 N :   -0.463996
   9 C :   -0.535160
  10 H :    0.295242
  11 H :    0.216320
  12 H :    0.266730
  13 C :   -0.561897
  14 H :    0.289730
  15 H :    0.225970
  16 H :    0.290191
  17 C :   -0.026437
  18 C :   -0.230332
  19 C :   -0.196061
  20 C :   -0.224664
  21 C :   -0.243037
  22 C :   -0.007197
  23 H :    0.241258
  24 H :    0.257098
  25 H :    0.240224
  26 H :    0.239286
  27 H :    0.024877
  28 C :   -0.329611
  29 H :    0.254965
  30 H :    0.265363
  31 O :   -0.545354
  32 C :    0.559164
  33 O :   -0.446183
  34 C :   -0.741586
  35 H :    0.232074
  36 H :    0.245656
  37 H :    0.240713
Sum of atomic charges:   -0.0000000

LOEWDIN ATOMIC CHARGES
----------------------
   0 Pd:   -0.215263
   1 O :   -0.178435
   2 C :    0.161515
   3 O :   -0.187688
   4 C :   -0.383062
   5 H :    0.149128
   6 H :    0.159009
   7 H :    0.148036
   8 N :   -0.062639
   9 C :   -0.239837
  10 H :    0.161665
  11 H :    0.117863
  12 H :    0.146762
  13 C :   -0.243452
  14 H :    0.158039
  15 H :    0.122165
  16 H :    0.159882
  17 C :   -0.064284
  18 C :   -0.093589
  19 C :   -0.129767
  20 C :   -0.114690
  21 C :   -0.142142
  22 C :    0.005614
  23 H :    0.145662
  24 H :    0.151867
  25 H :    0.151966
  26 H :    0.146073
  27 H :    0.026488
  28 C :   -0.104441
  29 H :    0.146271
  30 H :    0.150212
  31 O :   -0.179210
  32 C :    0.126828
  33 O :   -0.248451
  34 C :   -0.382395
  35 H :    0.143883
  36 H :    0.146782
  37 H :    0.143635

  Mayer bond orders larger than 0.100000
B(  0-Pd,  1-O ) :   0.6473 B(  0-Pd,  3-O ) :   0.3099 B(  0-Pd,  8-N ) :   0.3916
B(  0-Pd, 31-O ) :   0.6838 B(  1-O ,  2-C ) :   1.3080 B(  2-C ,  3-O ) :   1.6999
B(  2-C ,  4-C ) :   0.9393 B(  4-C ,  5-H ) :   0.9134 B(  4-C ,  6-H ) :   0.9077
B(  4-C ,  7-H ) :   0.9111 B(  8-N ,  9-C ) :   0.9259 B(  8-N , 13-C ) :   0.9233
B(  8-N , 28-C ) :   0.8965 B(  9-C , 10-H ) :   0.8873 B(  9-C , 11-H ) :   0.9027
B(  9-C , 12-H ) :   0.9072 B( 13-C , 14-H ) :   0.8806 B( 13-C , 15-H ) :   0.9037
B( 13-C , 16-H ) :   0.8924 B( 17-C , 18-C ) :   1.3985 B( 17-C , 22-C ) :   1.3975
B( 17-C , 28-C ) :   0.9477 B( 18-C , 19-C ) :   1.4340 B( 18-C , 25-H ) :   0.9048
B( 19-C , 20-C ) :   1.4507 B( 19-C , 26-H ) :   0.9094 B( 20-C , 21-C ) :   1.3775
B( 20-C , 23-H ) :   0.9070 B( 21-C , 22-C ) :   1.4973 B( 21-C , 24-H ) :   0.9027
B( 22-C , 27-H ) :   0.7978 B( 28-C , 29-H ) :   0.8944 B( 28-C , 30-H ) :   0.9112
B( 31-O , 32-C ) :   1.2361 B( 32-C , 33-O ) :   1.8964 B( 32-C , 34-C ) :   0.9324
B( 34-C , 35-H ) :   0.9157 B( 34-C , 36-H ) :   0.9108 B( 34-C , 37-H ) :   0.9212

Dispersion correction           -0.025724958
FINAL SINGLE POINT ENERGY      -988.289074366494
Dispersion correction            ... done

DIPOLE MOMENT
-------------
                                X             Y             Z
Electronic contribution:     24.07095      19.99465     -20.09755
Nuclear contribution   :    -25.87080     -21.20904      21.29862
                        -----------------------------------------
Total Dipole Moment    :     -1.79985      -1.21439       1.20108
                        -----------------------------------------
Magnitude (a.u.)       :      2.48129
Magnitude (Debye)      :      6.30694

Rotational constants in cm-1:     0.013371     0.008246     0.006760
Rotational constants in MHz :   400.864471   247.202874   202.673458

                             ****ORCA TERMINATED NORMALLY****
TOTAL RUN TIME: 0 days 0 hours 21 minutes 18 seconds 888 msec
