                         Program Version 5.0.3 -  RELEASE  -
|  1> ! EnGrad PBEh-3c
|  2> %output
|  3> xyzfile=True
|  4> end
|  5> %scf
|  6> maxiter 250
|  7> end
|  8> %output
|  9> Print[P_Hirshfeld] = 1
| 10> end
| 11> % maxcore
| 12> 4000
| 13> *xyz 0 1
| 14> Pd   0.62736337   0.41455100  -0.30145299
| 15> O    2.05687792   1.29691464   0.52268719
| 16> C    1.62659902   2.61958292   0.31986019
| 17> O    0.55194738   2.87367706  -0.18811829
| 18> C    2.66360920   3.73001884   0.59777402
| 19> H    2.15590605   4.59917191   1.04855847
| 20> H    3.08509646   4.11044863  -0.34873707
| 21> H    3.50359925   3.46120002   1.23969987
| 22> N   -1.40582714  -0.63612117  -1.15363111
| 23> C   -1.21162370  -1.64451268  -2.19267718
| 24> H   -0.78461687  -1.14197329  -3.03442714
| 25> H   -2.21192882  -1.98829369  -2.40523229
| 26> H   -0.53773925  -2.43942996  -1.85806670
| 27> C   -2.14666995   0.52913342  -1.57615040
| 28> H   -2.24491510   1.26624493  -0.77367984
| 29> H   -3.10428437   0.10144676  -1.87286031
| 30> H   -1.62265515   0.89677170  -2.45727675
| 31> C   -1.60910739  -0.93082533   1.39683750
| 32> C   -1.04708654  -2.00925390   2.20232505
| 33> C   -0.75655676  -1.85380828   3.53986573
| 34> C   -1.23354481  -0.77853191   4.18831349
| 35> C   -1.76328131   0.33410911   3.48851121
| 36> C   -1.90393396   0.19498515   2.17115199
| 37> H   -1.02970900  -0.62441501   5.22334858
| 38> H   -2.16726123   1.15031386   4.00062584
| 39> H   -0.84630042  -2.94612415   1.70742720
| 40> H   -0.46482967  -2.71694105   4.14132917
| 41> H   -2.40312952   2.58802604   1.60792714
| 42> C   -2.05754334  -1.29146521   0.02501215
| 43> H   -3.11421778  -1.01572885  -0.00997132
| 44> H   -2.02776822  -2.37528191  -0.07224591
| 45> O    2.03095825  -0.68288506  -1.27413267
| 46> C    2.22023914  -0.48543239  -2.61154401
| 47> O    1.47043351  -0.20956598  -3.42241169
| 48> C    3.67748240  -1.02135016  -2.87490285
| 49> H    3.71565414  -2.10777240  -3.02387060
| 50> H    4.40628037  -0.74727312  -2.13824251
| 51> H    3.91082518  -0.52827167  -3.83102548
| 52> *
| 53>
| 54>                          ****END OF INPUT****

CARTESIAN COORDINATES (ANGSTROEM)
---------------------------------
  Pd     0.627363    0.414551   -0.301453
  O      2.056878    1.296915    0.522687
  C      1.626599    2.619583    0.319860
  O      0.551947    2.873677   -0.188118
  C      2.663609    3.730019    0.597774
  H      2.155906    4.599172    1.048558
  H      3.085096    4.110449   -0.348737
  H      3.503599    3.461200    1.239700
  N     -1.405827   -0.636121   -1.153631
  C     -1.211624   -1.644513   -2.192677
  H     -0.784617   -1.141973   -3.034427
  H     -2.211929   -1.988294   -2.405232
  H     -0.537739   -2.439430   -1.858067
  C     -2.146670    0.529133   -1.576150
  H     -2.244915    1.266245   -0.773680
  H     -3.104284    0.101447   -1.872860
  H     -1.622655    0.896772   -2.457277
  C     -1.609107   -0.930825    1.396837
  C     -1.047087   -2.009254    2.202325
  C     -0.756557   -1.853808    3.539866
  C     -1.233545   -0.778532    4.188313
  C     -1.763281    0.334109    3.488511
  C     -1.903934    0.194985    2.171152
  H     -1.029709   -0.624415    5.223349
  H     -2.167261    1.150314    4.000626
  H     -0.846300   -2.946124    1.707427
  H     -0.464830   -2.716941    4.141329
  H     -2.403130    2.588026    1.607927
  C     -2.057543   -1.291465    0.025012
  H     -3.114218   -1.015729   -0.009971
  H     -2.027768   -2.375282   -0.072246
  O      2.030958   -0.682885   -1.274133
  C      2.220239   -0.485432   -2.611544
  O      1.470434   -0.209566   -3.422412
  C      3.677482   -1.021350   -2.874903
  H      3.715654   -2.107772   -3.023871
  H      4.406280   -0.747273   -2.138243
  H      3.910825   -0.528272   -3.831025

 Total Charge           Charge          ....    0
 Multiplicity           Mult            ....    1
 Number of Electrons    NEL             ....  154
 Basis Dimension        Dim             ....  339

ORBITAL ENERGIES
----------------

  NO   OCC          E(Eh)            E(eV)
   0   2.0000     -19.505989      -530.7850
   1   2.0000     -19.493838      -530.4543
   2   2.0000     -19.464575      -529.6580
   3   2.0000     -19.457377      -529.4622
   4   2.0000     -14.695050      -399.8726
   5   2.0000     -10.578811      -287.8641
   6   2.0000     -10.536034      -286.7001
   7   2.0000     -10.530232      -286.5422
   8   2.0000     -10.507106      -285.9129
   9   2.0000     -10.504721      -285.8480
  10   2.0000     -10.488759      -285.4136
  11   2.0000     -10.475560      -285.0545
  12   2.0000     -10.474795      -285.0337
  13   2.0000     -10.474160      -285.0164
  14   2.0000     -10.470252      -284.9100
  15   2.0000     -10.468873      -284.8725
  16   2.0000     -10.444764      -284.2165
  17   2.0000     -10.410660      -283.2884
  18   2.0000      -3.654370       -99.4405
  19   2.0000      -2.308627       -62.8209
  20   2.0000      -2.293334       -62.4048
  21   2.0000      -2.266355       -61.6707
  22   2.0000      -1.181879       -32.1606
  23   2.0000      -1.180774       -32.1305
  24   2.0000      -1.070695       -29.1351
  25   2.0000      -1.066820       -29.0297
  26   2.0000      -1.046088       -28.4655
  27   2.0000      -0.995834       -27.0980
  28   2.0000      -0.898509       -24.4497
  29   2.0000      -0.871052       -23.7025
  30   2.0000      -0.820463       -22.3259
  31   2.0000      -0.816295       -22.2125
  32   2.0000      -0.807669       -21.9778
  33   2.0000      -0.780368       -21.2349
  34   2.0000      -0.718898       -19.5622
  35   2.0000      -0.705479       -19.1971
  36   2.0000      -0.673054       -18.3147
  37   2.0000      -0.614470       -16.7206
  38   2.0000      -0.605891       -16.4871
  39   2.0000      -0.577655       -15.7188
  40   2.0000      -0.576463       -15.6864
  41   2.0000      -0.567622       -15.4458
  42   2.0000      -0.561416       -15.2769
  43   2.0000      -0.542831       -14.7712
  44   2.0000      -0.535089       -14.5605
  45   2.0000      -0.530882       -14.4460
  46   2.0000      -0.525954       -14.3119
  47   2.0000      -0.514126       -13.9901
  48   2.0000      -0.510199       -13.8832
  49   2.0000      -0.499481       -13.5916
  50   2.0000      -0.495771       -13.4906
  51   2.0000      -0.491981       -13.3875
  52   2.0000      -0.482517       -13.1300
  53   2.0000      -0.471345       -12.8259
  54   2.0000      -0.465010       -12.6536
  55   2.0000      -0.453872       -12.3505
  56   2.0000      -0.452564       -12.3149
  57   2.0000      -0.445223       -12.1151
  58   2.0000      -0.440017       -11.9735
  59   2.0000      -0.437475       -11.9043
  60   2.0000      -0.433782       -11.8038
  61   2.0000      -0.429480       -11.6867
  62   2.0000      -0.415028       -11.2935
  63   2.0000      -0.410579       -11.1724
  64   2.0000      -0.391715       -10.6591
  65   2.0000      -0.364808        -9.9269
  66   2.0000      -0.352990        -9.6054
  67   2.0000      -0.347246        -9.4490
  68   2.0000      -0.335725        -9.1355
  69   2.0000      -0.327008        -8.8983
  70   2.0000      -0.321902        -8.7594
  71   2.0000      -0.311855        -8.4860
  72   2.0000      -0.307077        -8.3560
  73   2.0000      -0.297104        -8.0846
  74   2.0000      -0.288834        -7.8596
  75   2.0000      -0.281916        -7.6713
  76   2.0000      -0.275828        -7.5057
  77   0.0000      -0.112804        -3.0695
  78   0.0000      -0.066528        -1.8103
  79   0.0000      -0.027271        -0.7421
  80   0.0000      -0.002837        -0.0772
  81   0.0000       0.040672         1.1067

MULLIKEN ATOMIC CHARGES
-----------------------
   0 Pd:    0.504125
   1 O :   -0.543263
   2 C :    0.617582
   3 O :   -0.414926
   4 C :   -0.756092
   5 H :    0.245476
   6 H :    0.259255
   7 H :    0.255184
   8 N :   -0.445455
   9 C :   -0.523544
  10 H :    0.288306
  11 H :    0.206792
  12 H :    0.258462
  13 C :   -0.526985
  14 H :    0.276802
  15 H :    0.209010
  16 H :    0.273072
  17 C :    0.009794
  18 C :   -0.261769
  19 C :   -0.172649
  20 C :   -0.239560
  21 C :   -0.240390
  22 C :    0.010856
  23 H :    0.241378
  24 H :    0.267848
  25 H :    0.243436
  26 H :    0.230196
  27 H :   -0.016059
  28 C :   -0.332757
  29 H :    0.244925
  30 H :    0.257036
  31 O :   -0.557565
  32 C :    0.530167
  33 O :   -0.358458
  34 C :   -0.739600
  35 H :    0.233737
  36 H :    0.251522
  37 H :    0.214109
Sum of atomic charges:    0.0000000

LOEWDIN ATOMIC CHARGES
----------------------
   0 Pd:   -0.230078
   1 O :   -0.183253
   2 C :    0.225622
   3 O :   -0.166464
   4 C :   -0.382452
   5 H :    0.150612
   6 H :    0.161691
   7 H :    0.149340
   8 N :   -0.115454
   9 C :   -0.240602
  10 H :    0.157721
  11 H :    0.113123
  12 H :    0.148963
  13 C :   -0.239928
  14 H :    0.159082
  15 H :    0.114228
  16 H :    0.156463
  17 C :   -0.059743
  18 C :   -0.088387
  19 C :   -0.132738
  20 C :   -0.111027
  21 C :   -0.141354
  22 C :    0.026024
  23 H :    0.145343
  24 H :    0.159876
  25 H :    0.148269
  26 H :    0.149298
  27 H :   -0.015259
  28 C :   -0.110981
  29 H :    0.143666
  30 H :    0.147565
  31 O :   -0.226315
  32 C :    0.120288
  33 O :   -0.161585
  34 C :   -0.394579
  35 H :    0.145180
  36 H :    0.144327
  37 H :    0.133516

  Mayer bond orders larger than 0.100000
B(  0-Pd,  1-O ) :   0.7520 B(  0-Pd,  3-O ) :   0.2227 B(  0-Pd,  8-N ) :   0.3238
B(  0-Pd, 31-O ) :   0.7149 B(  1-O ,  2-C ) :   1.1394 B(  1-O ,  3-O ) :   0.1035
B(  2-C ,  3-O ) :   1.8078 B(  2-C ,  4-C ) :   0.9398 B(  4-C ,  5-H ) :   0.9105
B(  4-C ,  6-H ) :   0.9041 B(  4-C ,  7-H ) :   0.9066 B(  8-N ,  9-C ) :   0.9325
B(  8-N , 13-C ) :   0.9308 B(  8-N , 28-C ) :   0.9097 B(  9-C , 10-H ) :   0.8857
B(  9-C , 11-H ) :   0.9065 B(  9-C , 12-H ) :   0.9107 B( 13-C , 14-H ) :   0.8859
B( 13-C , 15-H ) :   0.9087 B( 13-C , 16-H ) :   0.9000 B( 17-C , 18-C ) :   1.3834
B( 17-C , 22-C ) :   1.3878 B( 17-C , 28-C ) :   0.9381 B( 18-C , 19-C ) :   1.4146
B( 18-C , 21-C ) :   0.1017 B( 18-C , 25-H ) :   0.9020 B( 19-C , 20-C ) :   1.4421
B( 19-C , 26-H ) :   0.9156 B( 20-C , 21-C ) :   1.3463 B( 20-C , 23-H ) :   0.9067
B( 21-C , 22-C ) :   1.5167 B( 21-C , 24-H ) :   0.8975 B( 22-C , 27-H ) :   0.7714
B( 28-C , 29-H ) :   0.8955 B( 28-C , 30-H ) :   0.9134 B( 31-O , 32-C ) :   1.1726
B( 32-C , 33-O ) :   2.0241 B( 32-C , 34-C ) :   0.9019 B( 34-C , 35-H ) :   0.9193
B( 34-C , 36-H ) :   0.9112 B( 34-C , 37-H ) :   0.9225

Dispersion correction           -0.025497057
FINAL SINGLE POINT ENERGY      -988.240919656196
Dispersion correction            ... done

DIPOLE MOMENT
-------------
                                X             Y             Z
Electronic contribution:     28.21687      19.52110     -13.59017
Nuclear contribution   :    -29.70353     -20.38325      15.01833
                        -----------------------------------------
Total Dipole Moment    :     -1.48667      -0.86215       1.42815
                        -----------------------------------------
Magnitude (a.u.)       :      2.23452
Magnitude (Debye)      :      5.67971

Rotational constants in cm-1:     0.013276     0.008119     0.006556
Rotational constants in MHz :   398.006637   243.403368   196.556255

                             ****ORCA TERMINATED NORMALLY****
TOTAL RUN TIME: 0 days 0 hours 12 minutes 18 seconds 184 msec
