                         Program Version 5.0.3 -  RELEASE  -
|  1> ! EnGrad PBEh-3c
|  2> %output
|  3> xyzfile=True
|  4> end
|  5> %scf
|  6> maxiter 250
|  7> end
|  8> %output
|  9> Print[P_Hirshfeld] = 1
| 10> end
| 11> % maxcore
| 12> 4000
| 13> *xyz 0 1
| 14> Pd   0.57967577   0.42773061  -0.38202930
| 15> O    2.08724781   1.39883045   0.54177942
| 16> C    1.66307687   2.63856164   0.31063816
| 17> O    0.56706010   2.82047370  -0.17423575
| 18> C    2.63103034   3.79297519   0.58996882
| 19> H    2.09357365   4.62678027   1.05148146
| 20> H    3.03015600   4.16882881  -0.35759067
| 21> H    3.47336121   3.51991936   1.22362891
| 22> N   -1.32876198  -0.58481398  -1.13123948
| 23> C   -1.22988967  -1.49672805  -2.26850374
| 24> H   -0.86235046  -0.97128967  -3.13434418
| 25> H   -2.23282614  -1.85009285  -2.51110022
| 26> H   -0.57397502  -2.32252712  -2.04720092
| 27> C   -2.14120145   0.55863172  -1.50983307
| 28> H   -2.24051669   1.27235096  -0.70526497
| 29> H   -3.13552398   0.20148800  -1.79512985
| 30> H   -1.68300645   1.03630666  -2.36245529
| 31> C   -1.55243053  -0.93566788   1.36910559
| 32> C   -0.86072891  -1.92336458   2.13515624
| 33> C   -0.66876111  -1.82114956   3.49169467
| 34> C   -1.21419879  -0.77575168   4.15452905
| 35> C   -1.94395167   0.18909095   3.46057748
| 36> C   -2.02414349   0.14349467   2.12094966
| 37> H   -1.03896589  -0.65416042   5.21340236
| 38> H   -2.47637975   0.87143811   4.03161249
| 39> H   -0.51111954  -2.80920241   1.65305053
| 40> H   -0.22495919  -2.61336258   4.05656718
| 41> H   -2.58180468   2.54625508   1.78012956
| 42> C   -1.97780220  -1.32005266   0.00088235
| 43> H   -3.06037582  -1.17679949  -0.03831538
| 44> H   -1.86694335  -2.38890928  -0.13045213
| 45> O    1.93361113  -0.76682706  -1.20601884
| 46> C    2.26320529  -0.57796787  -2.46993997
| 47> O    1.59998610  -0.06575756  -3.29429028
| 48> C    3.62578030  -1.18289220  -2.82988376
| 49> H    3.58006504  -2.26114104  -2.88306520
| 50> H    4.39612353  -0.90648504  -2.13426418
| 51> H    3.91008976  -0.81185957  -3.81938561
| 52> *
| 53>
| 54>                          ****END OF INPUT****

CARTESIAN COORDINATES (ANGSTROEM)
---------------------------------
  Pd     0.579676    0.427731   -0.382029
  O      2.087248    1.398830    0.541779
  C      1.663077    2.638562    0.310638
  O      0.567060    2.820474   -0.174236
  C      2.631030    3.792975    0.589969
  H      2.093574    4.626780    1.051481
  H      3.030156    4.168829   -0.357591
  H      3.473361    3.519919    1.223629
  N     -1.328762   -0.584814   -1.131239
  C     -1.229890   -1.496728   -2.268504
  H     -0.862350   -0.971290   -3.134344
  H     -2.232826   -1.850093   -2.511100
  H     -0.573975   -2.322527   -2.047201
  C     -2.141201    0.558632   -1.509833
  H     -2.240517    1.272351   -0.705265
  H     -3.135524    0.201488   -1.795130
  H     -1.683006    1.036307   -2.362455
  C     -1.552431   -0.935668    1.369106
  C     -0.860729   -1.923365    2.135156
  C     -0.668761   -1.821150    3.491695
  C     -1.214199   -0.775752    4.154529
  C     -1.943952    0.189091    3.460577
  C     -2.024143    0.143495    2.120950
  H     -1.038966   -0.654160    5.213402
  H     -2.476380    0.871438    4.031612
  H     -0.511120   -2.809202    1.653051
  H     -0.224959   -2.613363    4.056567
  H     -2.581805    2.546255    1.780130
  C     -1.977802   -1.320053    0.000882
  H     -3.060376   -1.176799   -0.038315
  H     -1.866943   -2.388909   -0.130452
  O      1.933611   -0.766827   -1.206019
  C      2.263205   -0.577968   -2.469940
  O      1.599986   -0.065758   -3.294290
  C      3.625780   -1.182892   -2.829884
  H      3.580065   -2.261141   -2.883065
  H      4.396124   -0.906485   -2.134264
  H      3.910090   -0.811860   -3.819386

 Total Charge           Charge          ....    0
 Multiplicity           Mult            ....    1
 Number of Electrons    NEL             ....  154
 Basis Dimension        Dim             ....  339

ORBITAL ENERGIES
----------------

  NO   OCC          E(Eh)            E(eV)
   0   2.0000     -19.491482      -530.3902
   1   2.0000     -19.476483      -529.9820
   2   2.0000     -19.472351      -529.8696
   3   2.0000     -19.437458      -528.9201
   4   2.0000     -14.714455      -400.4007
   5   2.0000     -10.560492      -287.3656
   6   2.0000     -10.530258      -286.5429
   7   2.0000     -10.527135      -286.4579
   8   2.0000     -10.507507      -285.9238
   9   2.0000     -10.501721      -285.7663
  10   2.0000     -10.480035      -285.1762
  11   2.0000     -10.476870      -285.0901
  12   2.0000     -10.473870      -285.0085
  13   2.0000     -10.471504      -284.9441
  14   2.0000     -10.468769      -284.8697
  15   2.0000     -10.464672      -284.7582
  16   2.0000     -10.434674      -283.9419
  17   2.0000     -10.409926      -283.2685
  18   2.0000      -3.659082       -99.5687
  19   2.0000      -2.308885       -62.8280
  20   2.0000      -2.301663       -62.6314
  21   2.0000      -2.269110       -61.7456
  22   2.0000      -1.182076       -32.1659
  23   2.0000      -1.159517       -31.5521
  24   2.0000      -1.078242       -29.3405
  25   2.0000      -1.066727       -29.0271
  26   2.0000      -1.056934       -28.7606
  27   2.0000      -0.995420       -27.0867
  28   2.0000      -0.900425       -24.5018
  29   2.0000      -0.867693       -23.6111
  30   2.0000      -0.822681       -22.3863
  31   2.0000      -0.812872       -22.1194
  32   2.0000      -0.810689       -22.0600
  33   2.0000      -0.791386       -21.5347
  34   2.0000      -0.722620       -19.6635
  35   2.0000      -0.709349       -19.3024
  36   2.0000      -0.679891       -18.5008
  37   2.0000      -0.609349       -16.5812
  38   2.0000      -0.599774       -16.3207
  39   2.0000      -0.584331       -15.9005
  40   2.0000      -0.579504       -15.7691
  41   2.0000      -0.576172       -15.6784
  42   2.0000      -0.563694       -15.3389
  43   2.0000      -0.540392       -14.7048
  44   2.0000      -0.532458       -14.4889
  45   2.0000      -0.530952       -14.4479
  46   2.0000      -0.520436       -14.1618
  47   2.0000      -0.512580       -13.9480
  48   2.0000      -0.509115       -13.8537
  49   2.0000      -0.500336       -13.6148
  50   2.0000      -0.494775       -13.4635
  51   2.0000      -0.491501       -13.3744
  52   2.0000      -0.484253       -13.1772
  53   2.0000      -0.474218       -12.9041
  54   2.0000      -0.463041       -12.6000
  55   2.0000      -0.449908       -12.2426
  56   2.0000      -0.447700       -12.1825
  57   2.0000      -0.444001       -12.0819
  58   2.0000      -0.438736       -11.9386
  59   2.0000      -0.434943       -11.8354
  60   2.0000      -0.432980       -11.7820
  61   2.0000      -0.428718       -11.6660
  62   2.0000      -0.418489       -11.3877
  63   2.0000      -0.398771       -10.8511
  64   2.0000      -0.380738       -10.3604
  65   2.0000      -0.370732       -10.0881
  66   2.0000      -0.350452        -9.5363
  67   2.0000      -0.349514        -9.5108
  68   2.0000      -0.340750        -9.2723
  69   2.0000      -0.332226        -9.0403
  70   2.0000      -0.325270        -8.8511
  71   2.0000      -0.315075        -8.5736
  72   2.0000      -0.306618        -8.3435
  73   2.0000      -0.294288        -8.0080
  74   2.0000      -0.289793        -7.8857
  75   2.0000      -0.287129        -7.8132
  76   2.0000      -0.278645        -7.5823
  77   0.0000      -0.122610        -3.3364
  78   0.0000      -0.074357        -2.0234
  79   0.0000      -0.021735        -0.5914
  80   0.0000      -0.000568        -0.0155
  81   0.0000       0.059588         1.6215

MULLIKEN ATOMIC CHARGES
-----------------------
   0 Pd:    0.510122
   1 O :   -0.513983
   2 C :    0.622938
   3 O :   -0.446927
   4 C :   -0.758838
   5 H :    0.244337
   6 H :    0.256095
   7 H :    0.251328
   8 N :   -0.455428
   9 C :   -0.531962
  10 H :    0.292674
  11 H :    0.212925
  12 H :    0.264986
  13 C :   -0.551096
  14 H :    0.285455
  15 H :    0.220611
  16 H :    0.285364
  17 C :   -0.012281
  18 C :   -0.245098
  19 C :   -0.185271
  20 C :   -0.232496
  21 C :   -0.237597
  22 C :   -0.005515
  23 H :    0.241559
  24 H :    0.259491
  25 H :    0.240928
  26 H :    0.236670
  27 H :    0.013414
  28 C :   -0.331536
  29 H :    0.252397
  30 H :    0.263431
  31 O :   -0.550107
  32 C :    0.549409
  33 O :   -0.414573
  34 C :   -0.744647
  35 H :    0.233452
  36 H :    0.246514
  37 H :    0.233257
Sum of atomic charges:   -0.0000000

LOEWDIN ATOMIC CHARGES
----------------------
   0 Pd:   -0.217993
   1 O :   -0.182135
   2 C :    0.180967
   3 O :   -0.181212
   4 C :   -0.382880
   5 H :    0.149601
   6 H :    0.159803
   7 H :    0.148441
   8 N :   -0.076414
   9 C :   -0.240152
  10 H :    0.160265
  11 H :    0.116006
  12 H :    0.147510
  13 C :   -0.241773
  14 H :    0.158199
  15 H :    0.119361
  16 H :    0.158592
  17 C :   -0.063181
  18 C :   -0.092056
  19 C :   -0.129990
  20 C :   -0.113889
  21 C :   -0.142560
  22 C :    0.011911
  23 H :    0.145530
  24 H :    0.153522
  25 H :    0.150374
  26 H :    0.146909
  27 H :    0.014618
  28 C :   -0.106153
  29 H :    0.145348
  30 H :    0.149633
  31 O :   -0.191355
  32 C :    0.116570
  33 O :   -0.215394
  34 C :   -0.386534
  35 H :    0.144559
  36 H :    0.145543
  37 H :    0.140407

  Mayer bond orders larger than 0.100000
B(  0-Pd,  1-O ) :   0.6817 B(  0-Pd,  3-O ) :   0.2833 B(  0-Pd,  8-N ) :   0.3728
B(  0-Pd, 31-O ) :   0.6955 B(  1-O ,  2-C ) :   1.2545 B(  2-C ,  3-O ) :   1.7332
B(  2-C ,  4-C ) :   0.9400 B(  4-C ,  5-H ) :   0.9125 B(  4-C ,  6-H ) :   0.9067
B(  4-C ,  7-H ) :   0.9098 B(  8-N ,  9-C ) :   0.9296 B(  8-N , 13-C ) :   0.9267
B(  8-N , 28-C ) :   0.9009 B(  9-C , 10-H ) :   0.8874 B(  9-C , 11-H ) :   0.9037
B(  9-C , 12-H ) :   0.9081 B( 13-C , 14-H ) :   0.8827 B( 13-C , 15-H ) :   0.9050
B( 13-C , 16-H ) :   0.8947 B( 17-C , 18-C ) :   1.3945 B( 17-C , 22-C ) :   1.3987
B( 17-C , 28-C ) :   0.9443 B( 18-C , 19-C ) :   1.4340 B( 18-C , 25-H ) :   0.9040
B( 19-C , 20-C ) :   1.4461 B( 19-C , 26-H ) :   0.9117 B( 20-C , 21-C ) :   1.3779
B( 20-C , 23-H ) :   0.9067 B( 21-C , 22-C ) :   1.5011 B( 21-C , 24-H ) :   0.9014
B( 22-C , 27-H ) :   0.7913 B( 28-C , 29-H ) :   0.8947 B( 28-C , 30-H ) :   0.9121
B( 31-O , 32-C ) :   1.2170 B( 32-C , 33-O ) :   1.9459 B( 32-C , 34-C ) :   0.9226
B( 34-C , 35-H ) :   0.9170 B( 34-C , 36-H ) :   0.9117 B( 34-C , 37-H ) :   0.9221

Dispersion correction           -0.025680294
FINAL SINGLE POINT ENERGY      -988.288815183387
Dispersion correction            ... done

DIPOLE MOMENT
-------------
                                X             Y             Z
Electronic contribution:     25.24829      19.86915     -18.24882
Nuclear contribution   :    -26.96494     -20.97330      19.50577
                        -----------------------------------------
Total Dipole Moment    :     -1.71665      -1.10415       1.25695
                        -----------------------------------------
Magnitude (a.u.)       :      2.39708
Magnitude (Debye)      :      6.09288

Rotational constants in cm-1:     0.013362     0.008214     0.006706
Rotational constants in MHz :   400.577251   246.264497   201.046561

                             ****ORCA TERMINATED NORMALLY****
TOTAL RUN TIME: 0 days 0 hours 23 minutes 59 seconds 713 msec
