                         Program Version 5.0.3 -  RELEASE  -
|  1> ! EnGrad PBEh-3c
|  2> %output
|  3> xyzfile=True
|  4> end
|  5> %scf
|  6> maxiter 250
|  7> end
|  8> %output
|  9> Print[P_Hirshfeld] = 1
| 10> end
| 11> % maxcore
| 12> 4000
| 13> *xyz 0 1
| 14> Pd   0.65905264   0.34664707  -0.20102840
| 15> O    1.96929618   1.24043495   0.49629311
| 16> C    1.57391782   2.54932617   0.30610735
| 17> O    0.59536964   2.93594119  -0.17699258
| 18> C    2.71792271   3.63351547   0.61702251
| 19> H    2.26133208   4.53943235   1.04076098
| 20> H    3.16892231   3.99764437  -0.32489463
| 21> H    3.55004458   3.35630160   1.26465861
| 22> N   -1.44286484  -0.72354953  -1.10164735
| 23> C   -1.18151386  -1.87068704  -2.04533216
| 24> H   -0.65010684  -1.42607875  -2.89369237
| 25> H   -2.18581658  -2.24664185  -2.24989972
| 26> H   -0.49684246  -2.62967013  -1.54626888
| 27> C   -2.14641858   0.44431014  -1.69517643
| 28> H   -2.25221958   1.24558169  -0.91413134
| 29> H   -3.08224825  -0.03966487  -2.00934741
| 30> H   -1.52877375   0.68076111  -2.61246534
| 31> C   -1.69919132  -0.95335500   1.46856469
| 32> C   -1.34969596  -2.12900358   2.28687063
| 33> C   -0.93913211  -1.96238504   3.62070584
| 34> C   -1.23315229  -0.72225681   4.25345783
| 35> C   -1.47184627   0.54191588   3.53155264
| 36> C   -1.70840938   0.32331106   2.19274079
| 37> H   -1.00981378  -0.57444159   5.26757855
| 38> H   -1.65654286   1.64739956   3.97227573
| 39> H   -1.39471886  -3.18479673   1.79653029
| 40> H   -0.85783988  -2.89117891   4.27207707
| 41> H   -2.10517339   2.64147435   1.33635355
| 42> C   -2.19415005  -1.23301829   0.06747415
| 43> H   -3.22021753  -0.75881511   0.03827512
| 44> H   -2.29842633  -2.35289856   0.01608715
| 45> O    2.16813715  -0.48375762  -1.41411875
| 46> C    2.32451798  -0.52847799  -2.58671783
| 47> O    1.10311119  -0.33585113  -3.82371582
| 48> C    3.73408218  -0.72012796  -2.98442166
| 49> H    3.92771152  -1.83257585  -3.26681121
| 50> H    4.42529782  -0.47167512  -2.13619669
| 51> H    3.94423784  -0.07002026  -3.86592268
| 52> *
| 53>
| 54>                          ****END OF INPUT****

CARTESIAN COORDINATES (ANGSTROEM)
---------------------------------
  Pd     0.659053    0.346647   -0.201028
  O      1.969296    1.240435    0.496293
  C      1.573918    2.549326    0.306107
  O      0.595370    2.935941   -0.176993
  C      2.717923    3.633515    0.617023
  H      2.261332    4.539432    1.040761
  H      3.168922    3.997644   -0.324895
  H      3.550045    3.356302    1.264659
  N     -1.442865   -0.723550   -1.101647
  C     -1.181514   -1.870687   -2.045332
  H     -0.650107   -1.426079   -2.893692
  H     -2.185817   -2.246642   -2.249900
  H     -0.496842   -2.629670   -1.546269
  C     -2.146419    0.444310   -1.695176
  H     -2.252220    1.245582   -0.914131
  H     -3.082248   -0.039665   -2.009347
  H     -1.528774    0.680761   -2.612465
  C     -1.699191   -0.953355    1.468565
  C     -1.349696   -2.129004    2.286871
  C     -0.939132   -1.962385    3.620706
  C     -1.233152   -0.722257    4.253458
  C     -1.471846    0.541916    3.531553
  C     -1.708409    0.323311    2.192741
  H     -1.009814   -0.574442    5.267579
  H     -1.656543    1.647400    3.972276
  H     -1.394719   -3.184797    1.796530
  H     -0.857840   -2.891179    4.272077
  H     -2.105173    2.641474    1.336354
  C     -2.194150   -1.233018    0.067474
  H     -3.220218   -0.758815    0.038275
  H     -2.298426   -2.352899    0.016087
  O      2.168137   -0.483758   -1.414119
  C      2.324518   -0.528478   -2.586718
  O      1.103111   -0.335851   -3.823716
  C      3.734082   -0.720128   -2.984422
  H      3.927712   -1.832576   -3.266811
  H      4.425298   -0.471675   -2.136197
  H      3.944238   -0.070020   -3.865923

 Total Charge           Charge          ....    0
 Multiplicity           Mult            ....    1
 Number of Electrons    NEL             ....  154
 Basis Dimension        Dim             ....  339

ORBITAL ENERGIES
----------------

  NO   OCC          E(Eh)            E(eV)
   0   2.0000     -19.541195      -531.7430
   1   2.0000     -19.519028      -531.1397
   2   2.0000     -19.513648      -530.9934
   3   2.0000     -19.384650      -527.4832
   4   2.0000     -14.690325      -399.7441
   5   2.0000     -10.594100      -288.2801
   6   2.0000     -10.552975      -287.1610
   7   2.0000     -10.543610      -286.9062
   8   2.0000     -10.524650      -286.3903
   9   2.0000     -10.515675      -286.1461
  10   2.0000     -10.513192      -286.0785
  11   2.0000     -10.510675      -286.0100
  12   2.0000     -10.502171      -285.7786
  13   2.0000     -10.499491      -285.7057
  14   2.0000     -10.478358      -285.1306
  15   2.0000     -10.464743      -284.7601
  16   2.0000     -10.449455      -284.3441
  17   2.0000     -10.431933      -283.8673
  18   2.0000      -3.689348      -100.3923
  19   2.0000      -2.352104       -64.0040
  20   2.0000      -2.322220       -63.1908
  21   2.0000      -2.304187       -62.7001
  22   2.0000      -1.233683       -33.5702
  23   2.0000      -1.192615       -32.4527
  24   2.0000      -1.129210       -30.7274
  25   2.0000      -1.047072       -28.4923
  26   2.0000      -0.979111       -26.6430
  27   2.0000      -0.885583       -24.0979
  28   2.0000      -0.866933       -23.5904
  29   2.0000      -0.864342       -23.5199
  30   2.0000      -0.811709       -22.0877
  31   2.0000      -0.801203       -21.8019
  32   2.0000      -0.799887       -21.7660
  33   2.0000      -0.792909       -21.5762
  34   2.0000      -0.710121       -19.3234
  35   2.0000      -0.693833       -18.8802
  36   2.0000      -0.666177       -18.1276
  37   2.0000      -0.653461       -17.7816
  38   2.0000      -0.618091       -16.8191
  39   2.0000      -0.590802       -16.0765
  40   2.0000      -0.575151       -15.6506
  41   2.0000      -0.565213       -15.3802
  42   2.0000      -0.559400       -15.2220
  43   2.0000      -0.552496       -15.0342
  44   2.0000      -0.548167       -14.9164
  45   2.0000      -0.544487       -14.8163
  46   2.0000      -0.524986       -14.2856
  47   2.0000      -0.517374       -14.0785
  48   2.0000      -0.505685       -13.7604
  49   2.0000      -0.499829       -13.6010
  50   2.0000      -0.492656       -13.4058
  51   2.0000      -0.488493       -13.2926
  52   2.0000      -0.474902       -12.9227
  53   2.0000      -0.469941       -12.7877
  54   2.0000      -0.468525       -12.7492
  55   2.0000      -0.459185       -12.4951
  56   2.0000      -0.456862       -12.4319
  57   2.0000      -0.443350       -12.0642
  58   2.0000      -0.441277       -12.0078
  59   2.0000      -0.438824       -11.9410
  60   2.0000      -0.430188       -11.7060
  61   2.0000      -0.423462       -11.5230
  62   2.0000      -0.422171       -11.4879
  63   2.0000      -0.418647       -11.3920
  64   2.0000      -0.403758       -10.9868
  65   2.0000      -0.380483       -10.3535
  66   2.0000      -0.363745        -9.8980
  67   2.0000      -0.352353        -9.5880
  68   2.0000      -0.340314        -9.2604
  69   2.0000      -0.334164        -9.0931
  70   2.0000      -0.330949        -9.0056
  71   2.0000      -0.315736        -8.5916
  72   2.0000      -0.311596        -8.4790
  73   2.0000      -0.296376        -8.0648
  74   2.0000      -0.270184        -7.3521
  75   2.0000      -0.217549        -5.9198
  76   2.0000      -0.216177        -5.8825
  77   0.0000      -0.124560        -3.3894
  78   0.0000      -0.099099        -2.6966
  79   0.0000      -0.043651        -1.1878
  80   0.0000      -0.025213        -0.6861
  81   0.0000       0.033809         0.9200

MULLIKEN ATOMIC CHARGES
-----------------------
   0 Pd:    0.624699
   1 O :   -0.554393
   2 C :    0.575323
   3 O :   -0.335394
   4 C :   -0.761021
   5 H :    0.244542
   6 H :    0.258525
   7 H :    0.247631
   8 N :   -0.449373
   9 C :   -0.536194
  10 H :    0.322752
  11 H :    0.201501
  12 H :    0.226923
  13 C :   -0.521929
  14 H :    0.252504
  15 H :    0.214171
  16 H :    0.292601
  17 C :    0.004587
  18 C :   -0.245619
  19 C :   -0.189960
  20 C :   -0.243844
  21 C :   -0.256287
  22 C :    0.009326
  23 H :    0.249094
  24 H :    0.270330
  25 H :    0.242573
  26 H :    0.232535
  27 H :    0.015075
  28 C :   -0.314973
  29 H :    0.239847
  30 H :    0.241071
  31 O :   -0.376094
  32 C :    0.434953
  33 O :   -0.614800
  34 C :   -0.718419
  35 H :    0.231755
  36 H :    0.228589
  37 H :    0.257395
Sum of atomic charges:   -0.0000000

LOEWDIN ATOMIC CHARGES
----------------------
   0 Pd:   -0.128128
   1 O :   -0.138381
   2 C :    0.189933
   3 O :   -0.103554
   4 C :   -0.393782
   5 H :    0.146962
   6 H :    0.158572
   7 H :    0.142668
   8 N :   -0.143146
   9 C :   -0.251807
  10 H :    0.177997
  11 H :    0.112434
  12 H :    0.138933
  13 C :   -0.241875
  14 H :    0.152984
  15 H :    0.118768
  16 H :    0.171598
  17 C :   -0.061006
  18 C :   -0.101226
  19 C :   -0.134518
  20 C :   -0.110355
  21 C :   -0.141661
  22 C :    0.009737
  23 H :    0.146409
  24 H :    0.178687
  25 H :    0.151937
  26 H :    0.153650
  27 H :    0.019817
  28 C :   -0.118385
  29 H :    0.144811
  30 H :    0.142384
  31 O :   -0.051756
  32 C :    0.180755
  33 O :   -0.600317
  34 C :   -0.373554
  35 H :    0.155662
  36 H :    0.139091
  37 H :    0.159664

  Mayer bond orders larger than 0.100000
B(  0-Pd,  1-O ) :   0.8187 B(  0-Pd,  3-O ) :   0.1667 B(  0-Pd,  8-N ) :   0.3299
B(  0-Pd, 31-O ) :   0.4710 B(  1-O ,  2-C ) :   1.0738 B(  2-C ,  3-O ) :   1.9423
B(  2-C ,  4-C ) :   0.9231 B(  4-C ,  5-H ) :   0.9124 B(  4-C ,  6-H ) :   0.9061
B(  4-C ,  7-H ) :   0.9082 B(  8-N ,  9-C ) :   0.9054 B(  8-N , 13-C ) :   0.9113
B(  8-N , 28-C ) :   0.9152 B(  9-C , 10-H ) :   0.8170 B(  9-C , 11-H ) :   0.9074
B(  9-C , 12-H ) :   0.9191 B( 10-H , 33-O ) :   0.1071 B( 13-C , 14-H ) :   0.8956
B( 13-C , 15-H ) :   0.9090 B( 13-C , 16-H ) :   0.8832 B( 17-C , 18-C ) :   1.3764
B( 17-C , 20-C ) :   0.1053 B( 17-C , 22-C ) :   1.3483 B( 17-C , 28-C ) :   0.9237
B( 18-C , 19-C ) :   1.3917 B( 18-C , 25-H ) :   0.9005 B( 19-C , 20-C ) :   1.4309
B( 19-C , 26-H ) :   0.9125 B( 20-C , 21-C ) :   1.3246 B( 20-C , 23-H ) :   0.9047
B( 21-C , 22-C ) :   1.4683 B( 21-C , 24-H ) :   0.8976 B( 22-C , 27-H ) :   0.7747
B( 28-C , 29-H ) :   0.8974 B( 28-C , 30-H ) :   0.9137 B( 31-O , 32-C ) :   1.6320
B( 31-O , 33-O ) :   0.1012 B( 32-C , 33-O ) :   1.3627 B( 32-C , 34-C ) :   0.9130
B( 34-C , 35-H ) :   0.9117 B( 34-C , 36-H ) :   0.9068 B( 34-C , 37-H ) :   0.9067

Dispersion correction           -0.025093233
FINAL SINGLE POINT ENERGY      -988.027562988622
Dispersion correction            ... done

DIPOLE MOMENT
-------------
                                X             Y             Z
Electronic contribution:     30.65715      16.09516      -6.05457
Nuclear contribution   :    -31.72670     -16.77956       9.30386
                        -----------------------------------------
Total Dipole Moment    :     -1.06955      -0.68441       3.24929
                        -----------------------------------------
Magnitude (a.u.)       :      3.48859
Magnitude (Debye)      :      8.86728

Rotational constants in cm-1:     0.013023     0.007944     0.006278
Rotational constants in MHz :   390.415254   238.158618   188.222775

                             ****ORCA TERMINATED NORMALLY****
TOTAL RUN TIME: 0 days 0 hours 18 minutes 41 seconds 123 msec
