                         Program Version 5.0.3 -  RELEASE  -
|  1> ! EnGrad PBEh-3c
|  2> %output
|  3> xyzfile=True
|  4> end
|  5> %scf
|  6> maxiter 250
|  7> end
|  8> %output
|  9> Print[P_Hirshfeld] = 1
| 10> end
| 11> % maxcore
| 12> 4000
| 13> *xyz 1 1
| 14> Ir   0.45098034  -0.71580403   0.94686590
| 15> C   -0.06722413  -2.66085610   1.78881331
| 16> C    0.95988783  -2.06961802   2.59115813
| 17> C    1.74678436  -2.30022049   0.43225852
| 18> C    0.42798617  -2.83174327   0.47871536
| 19> C    2.07342934  -1.87119402   1.75056637
| 20> N   -0.94799772   0.04012795  -0.39812355
| 21> C   -2.37400799   0.11848609   0.00083016
| 22> C   -2.86805721   1.53927644   0.18594960
| 23> H   -3.88600641   1.56648835   0.57252141
| 24> H   -2.82874572   2.11353908  -0.74053543
| 25> H   -2.28671425   2.09279562   0.91856505
| 26> C   -3.32758181  -0.62550886  -0.91921283
| 27> H   -2.43217315  -0.35381997   0.97973684
| 28> H   -4.31670307  -0.69592057  -0.47173731
| 29> H   -3.46004271  -0.13665453  -1.88607743
| 30> H   -2.98620123  -1.64458059  -1.10496883
| 31> C   -0.65976549   0.28116626  -1.62182415
| 32> C    0.62300348   0.21494967  -2.25737089
| 33> H   -1.46801209   0.56408372  -2.29379214
| 34> C    1.87759486   0.13853500  -1.72388463
| 35> C    2.92408491   0.11122952  -2.65998705
| 36> S    0.75106877   0.03694993  -3.96791957
| 37> C    2.44136878  -0.04971926  -3.92631259
| 38> H    2.28144086   0.98388906  -0.77461315
| 39> H    3.98235880   0.09643278  -2.44272515
| 40> H    3.02364091  -0.19421767  -4.82351692
| 41> H   -0.93834904  -3.16947304   2.17770836
| 42> H    0.90403595  -1.95158031   3.66235575
| 43> H    3.03615815  -1.48418202   2.04567655
| 44> O    1.57670439   1.59091630   0.88347617
| 45> O   -0.08527847   1.00186442   2.07152601
| 46> C    0.69257636   1.91624969   1.72462389
| 47> C    0.67801513   3.30167584   2.25279277
| 48> H    0.79739653   4.02858557   1.45109690
| 49> H    1.50570944   3.45782100   2.94654819
| 50> H   -0.25179065   3.48077725   2.78505069
| 51> H    2.47140674  -2.50125653  -0.33803185
| 52> H   -0.04097393  -3.41947729  -0.29619571
| 53> *
| 54>
| 55>                          ****END OF INPUT****

CARTESIAN COORDINATES (ANGSTROEM)
---------------------------------
  Ir     0.450980   -0.715804    0.946866
  C     -0.067224   -2.660856    1.788813
  C      0.959888   -2.069618    2.591158
  C      1.746784   -2.300220    0.432259
  C      0.427986   -2.831743    0.478715
  C      2.073429   -1.871194    1.750566
  N     -0.947998    0.040128   -0.398124
  C     -2.374008    0.118486    0.000830
  C     -2.868057    1.539276    0.185950
  H     -3.886006    1.566488    0.572521
  H     -2.828746    2.113539   -0.740535
  H     -2.286714    2.092796    0.918565
  C     -3.327582   -0.625509   -0.919213
  H     -2.432173   -0.353820    0.979737
  H     -4.316703   -0.695921   -0.471737
  H     -3.460043   -0.136655   -1.886077
  H     -2.986201   -1.644581   -1.104969
  C     -0.659765    0.281166   -1.621824
  C      0.623003    0.214950   -2.257371
  H     -1.468012    0.564084   -2.293792
  C      1.877595    0.138535   -1.723885
  C      2.924085    0.111230   -2.659987
  S      0.751069    0.036950   -3.967920
  C      2.441369   -0.049719   -3.926313
  H      2.281441    0.983889   -0.774613
  H      3.982359    0.096433   -2.442725
  H      3.023641   -0.194218   -4.823517
  H     -0.938349   -3.169473    2.177708
  H      0.904036   -1.951580    3.662356
  H      3.036158   -1.484182    2.045677
  O      1.576704    1.590916    0.883476
  O     -0.085278    1.001864    2.071526
  C      0.692576    1.916250    1.724624
  C      0.678015    3.301676    2.252793
  H      0.797397    4.028586    1.451097
  H      1.505709    3.457821    2.946548
  H     -0.251791    3.480777    2.785051
  H      2.471407   -2.501257   -0.338032
  H     -0.040974   -3.419477   -0.296196

 Total Charge           Charge          ....    1
 Multiplicity           Mult            ....    1
 Number of Electrons    NEL             ....  164
 Basis Dimension        Dim             ....  358

ORBITAL ENERGIES
----------------

  NO   OCC          E(Eh)            E(eV)
   0   2.0000     -89.747218     -2442.1460
   1   2.0000     -19.621363      -533.9244
   2   2.0000     -19.591225      -533.1043
   3   2.0000     -14.828532      -403.5049
   4   2.0000     -10.678525      -290.5774
   5   2.0000     -10.654163      -289.9145
   6   2.0000     -10.638400      -289.4856
   7   2.0000     -10.637124      -289.4509
   8   2.0000     -10.632525      -289.3257
   9   2.0000     -10.627978      -289.2020
  10   2.0000     -10.625840      -289.1438
  11   2.0000     -10.611520      -288.7541
  12   2.0000     -10.608313      -288.6669
  13   2.0000     -10.600129      -288.4442
  14   2.0000     -10.585334      -288.0416
  15   2.0000     -10.569816      -287.6193
  16   2.0000     -10.547938      -287.0240
  17   2.0000     -10.541269      -286.8425
  18   2.0000     -10.537914      -286.7512
  19   2.0000      -8.386977      -228.2212
  20   2.0000      -6.276949      -170.8045
  21   2.0000      -6.273518      -170.7111
  22   2.0000      -6.271667      -170.6607
  23   2.0000      -4.034526      -109.7850
  24   2.0000      -2.354559       -64.0708
  25   2.0000      -2.317643       -63.0663
  26   2.0000      -2.316491       -63.0349
  27   2.0000      -1.317233       -35.8437
  28   2.0000      -1.198019       -32.5997
  29   2.0000      -1.190452       -32.3938
  30   2.0000      -1.177715       -32.0473
  31   2.0000      -1.119195       -30.4548
  32   2.0000      -1.012849       -27.5610
  33   2.0000      -0.985974       -26.8297
  34   2.0000      -0.983212       -26.7545
  35   2.0000      -0.961633       -26.1674
  36   2.0000      -0.944293       -25.6955
  37   2.0000      -0.937864       -25.5206
  38   2.0000      -0.889865       -24.2145
  39   2.0000      -0.866428       -23.5767
  40   2.0000      -0.793446       -21.5908
  41   2.0000      -0.788325       -21.4514
  42   2.0000      -0.787181       -21.4203
  43   2.0000      -0.778768       -21.1913
  44   2.0000      -0.768275       -20.9058
  45   2.0000      -0.735304       -20.0086
  46   2.0000      -0.728848       -19.8330
  47   2.0000      -0.697779       -18.9875
  48   2.0000      -0.681980       -18.5576
  49   2.0000      -0.663378       -18.0514
  50   2.0000      -0.659579       -17.9481
  51   2.0000      -0.653367       -17.7790
  52   2.0000      -0.645214       -17.5572
  53   2.0000      -0.643975       -17.5234
  54   2.0000      -0.641904       -17.4671
  55   2.0000      -0.631955       -17.1964
  56   2.0000      -0.621553       -16.9133
  57   2.0000      -0.611221       -16.6322
  58   2.0000      -0.608922       -16.5696
  59   2.0000      -0.605239       -16.4694
  60   2.0000      -0.589766       -16.0484
  61   2.0000      -0.582434       -15.8488
  62   2.0000      -0.566971       -15.4281
  63   2.0000      -0.561907       -15.2903
  64   2.0000      -0.558499       -15.1975
  65   2.0000      -0.552778       -15.0418
  66   2.0000      -0.544233       -14.8093
  67   2.0000      -0.535664       -14.5762
  68   2.0000      -0.532615       -14.4932
  69   2.0000      -0.520770       -14.1709
  70   2.0000      -0.513422       -13.9709
  71   2.0000      -0.507832       -13.8188
  72   2.0000      -0.505122       -13.7451
  73   2.0000      -0.496956       -13.5229
  74   2.0000      -0.477206       -12.9854
  75   2.0000      -0.470434       -12.8012
  76   2.0000      -0.464216       -12.6320
  77   2.0000      -0.454477       -12.3670
  78   2.0000      -0.443978       -12.0812
  79   2.0000      -0.421873       -11.4797
  80   2.0000      -0.411074       -11.1859
  81   2.0000      -0.399013       -10.8577
  82   0.0000      -0.207843        -5.6557
  83   0.0000      -0.179416        -4.8822
  84   0.0000      -0.150002        -4.0818
  85   0.0000      -0.080488        -2.1902
  86   0.0000      -0.078687        -2.1412

MULLIKEN ATOMIC CHARGES
-----------------------
   0 Ir:    0.632733
   1 C :   -0.281832
   2 C :   -0.196390
   3 C :   -0.288536
   4 C :   -0.181289
   5 C :   -0.174188
   6 N :   -0.482495
   7 C :   -0.142827
   8 C :   -0.634651
   9 H :    0.252824
  10 H :    0.220417
  11 H :    0.259148
  12 C :   -0.657735
  13 H :    0.266451
  14 H :    0.265964
  15 H :    0.226509
  16 H :    0.238918
  17 C :    0.102315
  18 C :   -0.191298
  19 H :    0.268901
  20 C :   -0.286800
  21 C :   -0.135445
  22 S :    0.307969
  23 C :   -0.419389
  24 H :    0.312392
  25 H :    0.267296
  26 H :    0.295888
  27 H :    0.289520
  28 H :    0.296811
  29 H :    0.298056
  30 O :   -0.501293
  31 O :   -0.494597
  32 C :    0.642453
  33 C :   -0.761865
  34 H :    0.274191
  35 H :    0.278917
  36 H :    0.257097
  37 H :    0.289073
  38 H :    0.286787
Sum of atomic charges:    1.0000000

LOEWDIN ATOMIC CHARGES
----------------------
   0 Ir:   -0.148338
   1 C :   -0.039416
   2 C :   -0.021545
   3 C :   -0.049154
   4 C :   -0.043570
   5 C :   -0.045371
   6 N :   -0.038556
   7 C :   -0.065702
   8 C :   -0.353030
   9 H :    0.149526
  10 H :    0.132523
  11 H :    0.143210
  12 C :   -0.356434
  13 H :    0.149781
  14 H :    0.154942
  15 H :    0.132993
  16 H :    0.135223
  17 C :    0.041020
  18 C :   -0.231639
  19 H :    0.153453
  20 C :   -0.160449
  21 C :   -0.169200
  22 S :    0.464975
  23 C :   -0.256506
  24 H :    0.240709
  25 H :    0.158769
  26 H :    0.167615
  27 H :    0.185453
  28 H :    0.191630
  29 H :    0.188738
  30 O :   -0.270031
  31 O :   -0.186087
  32 C :    0.150602
  33 C :   -0.374943
  34 H :    0.168416
  35 H :    0.173900
  36 H :    0.154705
  37 H :    0.187034
  38 H :    0.184752

  Mayer bond orders larger than 0.100000
B(  0-Ir,  1-C ) :   0.5481 B(  0-Ir,  2-C ) :   0.4222 B(  0-Ir,  3-C ) :   0.5330
B(  0-Ir,  4-C ) :   0.4314 B(  0-Ir,  5-C ) :   0.4585 B(  0-Ir,  6-N ) :   0.4867
B(  0-Ir, 30-O ) :   0.3428 B(  0-Ir, 31-O ) :   0.5297 B(  1-C ,  2-C ) :   1.1277
B(  1-C ,  4-C ) :   1.1367 B(  1-C , 27-H ) :   0.9165 B(  2-C ,  5-C ) :   1.2292
B(  2-C , 28-H ) :   0.9100 B(  3-C ,  4-C ) :   1.1895 B(  3-C ,  5-C ) :   1.0902
B(  3-C , 37-H ) :   0.9168 B(  4-C , 38-H ) :   0.9140 B(  5-C , 29-H ) :   0.9042
B(  6-N ,  7-C ) :   0.8858 B(  6-N , 17-C ) :   1.6260 B(  7-C ,  8-C ) :   0.9787
B(  7-C , 12-C ) :   0.9832 B(  7-C , 13-H ) :   0.8903 B(  8-C ,  9-H ) :   0.9077
B(  8-C , 10-H ) :   0.9181 B(  8-C , 11-H ) :   0.9072 B( 12-C , 14-H ) :   0.9053
B( 12-C , 15-H ) :   0.9140 B( 12-C , 16-H ) :   0.9185 B( 17-C , 18-C ) :   1.1132
B( 17-C , 19-H ) :   0.8804 B( 18-C , 20-C ) :   1.3739 B( 18-C , 22-S ) :   1.1595
B( 20-C , 21-C ) :   1.3010 B( 20-C , 24-H ) :   0.8107 B( 21-C , 23-C ) :   1.4807
B( 21-C , 25-H ) :   0.9020 B( 22-S , 23-C ) :   1.2704 B( 23-C , 26-H ) :   0.8904
B( 30-O , 32-C ) :   1.5309 B( 31-O , 32-C ) :   1.3868 B( 32-C , 33-C ) :   0.9526
B( 33-C , 34-H ) :   0.9003 B( 33-C , 35-H ) :   0.8942 B( 33-C , 36-H ) :   0.9069

Dispersion correction           -0.029537405
FINAL SINGLE POINT ENERGY     -1288.341469996302
Dispersion correction            ... done

DIPOLE MOMENT
-------------
                                X             Y             Z
Electronic contribution:     24.32220     -68.98792     117.44500
Nuclear contribution   :    -24.46778      67.86130    -117.72939
                        -----------------------------------------
Total Dipole Moment    :     -0.14558      -1.12662      -0.28439
                        -----------------------------------------
Magnitude (a.u.)       :      1.17105
Magnitude (Debye)      :      2.97656

Rotational constants in cm-1:     0.011061     0.007716     0.007012
Rotational constants in MHz :   331.603276   231.309952   210.215240

                             ****ORCA TERMINATED NORMALLY****
TOTAL RUN TIME: 0 days 0 hours 18 minutes 19 seconds 600 msec
