                         Program Version 5.0.3 -  RELEASE  -
|  1> ! EnGrad PBEh-3c
|  2> %output
|  3> xyzfile=True
|  4> end
|  5> %scf
|  6> maxiter 250
|  7> end
|  8> %output
|  9> Print[P_Hirshfeld] = 1
| 10> end
| 11> % maxcore
| 12> 4000
| 13> *xyz 1 1
| 14> Ir   0.44713566  -0.66013757   0.97175283
| 15> C   -0.07598969  -2.66969526   1.77769443
| 16> C    0.95263753  -2.08690535   2.57409652
| 17> C    1.75476162  -2.33986747   0.44973327
| 18> C    0.48101321  -2.84296393   0.45230609
| 19> C    2.07649147  -1.86105339   1.80541335
| 20> N   -0.94858845   0.02214505  -0.41282512
| 21> C   -2.39847918   0.11670462   0.02445064
| 22> C   -2.85677441   1.55441837   0.21110850
| 23> H   -3.89216740   1.54501032   0.58231722
| 24> H   -2.83376174   2.11297870  -0.71627214
| 25> H   -2.28383455   2.06742850   0.94830141
| 26> C   -3.32399486  -0.63574699  -0.93840133
| 27> H   -2.43244431  -0.37696241   0.97480672
| 28> H   -4.32161813  -0.69162365  -0.47127846
| 29> H   -3.46938349  -0.11825718  -1.88325058
| 30> H   -2.99642648  -1.63833970  -1.12498036
| 31> C   -0.66705881   0.29649606  -1.64496078
| 32> C    0.61462916   0.19064216  -2.26275595
| 33> H   -1.47811007   0.56463957  -2.29223483
| 34> C    1.97405265   0.30376791  -1.59248997
| 35> C    2.90628969   0.05513526  -2.67668192
| 36> S    0.73274956   0.03694678  -3.98740887
| 37> C    2.44203249  -0.04284993  -3.93045050
| 38> H    2.21295488   0.86900976  -0.85530569
| 39> H    3.97281126   0.09358947  -2.42831793
| 40> H    3.01909565  -0.18483611  -4.82367331
| 41> H   -0.95225333  -3.16960491   2.13796549
| 42> H    0.85479873  -1.93783840   3.65737694
| 43> H    3.01538320  -1.47471053   2.09335595
| 44> O    1.57170395   1.59145692   0.87876411
| 45> O   -0.12479316   0.98171560   2.09084254
| 46> C    0.78488136   1.90748897   1.64398934
| 47> C    0.66552352   3.31414061   2.25535134
| 48> H    0.79910828   4.03603555   1.43822158
| 49> H    1.51828991   3.46380875   2.92921272
| 50> H   -0.23981626   3.49304691   2.77949127
| 51> H    2.50327754  -2.47376041  -0.31548869
| 52> H   -0.00487226  -3.41021898  -0.31950737
| 53> *
| 54>
| 55>                          ****END OF INPUT****

CARTESIAN COORDINATES (ANGSTROEM)
---------------------------------
  Ir     0.447136   -0.660138    0.971753
  C     -0.075990   -2.669695    1.777694
  C      0.952638   -2.086905    2.574097
  C      1.754762   -2.339867    0.449733
  C      0.481013   -2.842964    0.452306
  C      2.076491   -1.861053    1.805413
  N     -0.948588    0.022145   -0.412825
  C     -2.398479    0.116705    0.024451
  C     -2.856774    1.554418    0.211108
  H     -3.892167    1.545010    0.582317
  H     -2.833762    2.112979   -0.716272
  H     -2.283835    2.067429    0.948301
  C     -3.323995   -0.635747   -0.938401
  H     -2.432444   -0.376962    0.974807
  H     -4.321618   -0.691624   -0.471278
  H     -3.469383   -0.118257   -1.883251
  H     -2.996426   -1.638340   -1.124980
  C     -0.667059    0.296496   -1.644961
  C      0.614629    0.190642   -2.262756
  H     -1.478110    0.564640   -2.292235
  C      1.974053    0.303768   -1.592490
  C      2.906290    0.055135   -2.676682
  S      0.732750    0.036947   -3.987409
  C      2.442032   -0.042850   -3.930451
  H      2.212955    0.869010   -0.855306
  H      3.972811    0.093589   -2.428318
  H      3.019096   -0.184836   -4.823673
  H     -0.952253   -3.169605    2.137965
  H      0.854799   -1.937838    3.657377
  H      3.015383   -1.474711    2.093356
  O      1.571704    1.591457    0.878764
  O     -0.124793    0.981716    2.090843
  C      0.784881    1.907489    1.643989
  C      0.665524    3.314141    2.255351
  H      0.799108    4.036036    1.438222
  H      1.518290    3.463809    2.929213
  H     -0.239816    3.493047    2.779491
  H      2.503278   -2.473760   -0.315489
  H     -0.004872   -3.410219   -0.319507

 Total Charge           Charge          ....    1
 Multiplicity           Mult            ....    1
 Number of Electrons    NEL             ....  164
 Basis Dimension        Dim             ....  358

ORBITAL ENERGIES
----------------

  NO   OCC          E(Eh)            E(eV)
   0   2.0000     -89.756371     -2442.3950
   1   2.0000     -19.623627      -533.9860
   2   2.0000     -19.610720      -533.6348
   3   2.0000     -14.826287      -403.4438
   4   2.0000     -10.685647      -290.7712
   5   2.0000     -10.649188      -289.7791
   6   2.0000     -10.638079      -289.4769
   7   2.0000     -10.630020      -289.2576
   8   2.0000     -10.629132      -289.2334
   9   2.0000     -10.627412      -289.1866
  10   2.0000     -10.624711      -289.1131
  11   2.0000     -10.623115      -289.0697
  12   2.0000     -10.607116      -288.6343
  13   2.0000     -10.603492      -288.5357
  14   2.0000     -10.590823      -288.1909
  15   2.0000     -10.577006      -287.8150
  16   2.0000     -10.546538      -286.9859
  17   2.0000     -10.542047      -286.8637
  18   2.0000     -10.534879      -286.6686
  19   2.0000      -8.395017      -228.4400
  20   2.0000      -6.285089      -171.0260
  21   2.0000      -6.281628      -170.9318
  22   2.0000      -6.279646      -170.8779
  23   2.0000      -4.025940      -109.5514
  24   2.0000      -2.344412       -63.7947
  25   2.0000      -2.309833       -62.8537
  26   2.0000      -2.307880       -62.8006
  27   2.0000      -1.353108       -36.8199
  28   2.0000      -1.193150       -32.4673
  29   2.0000      -1.183667       -32.2092
  30   2.0000      -1.170709       -31.8566
  31   2.0000      -1.104981       -30.0681
  32   2.0000      -1.008271       -27.4365
  33   2.0000      -0.987218       -26.8636
  34   2.0000      -0.970680       -26.4135
  35   2.0000      -0.961457       -26.1626
  36   2.0000      -0.947401       -25.7801
  37   2.0000      -0.927902       -25.2495
  38   2.0000      -0.889321       -24.1997
  39   2.0000      -0.864187       -23.5157
  40   2.0000      -0.794473       -21.6187
  41   2.0000      -0.785984       -21.3877
  42   2.0000      -0.784026       -21.3344
  43   2.0000      -0.772318       -21.0158
  44   2.0000      -0.763008       -20.7625
  45   2.0000      -0.755738       -20.5647
  46   2.0000      -0.725754       -19.7488
  47   2.0000      -0.707630       -19.2556
  48   2.0000      -0.680175       -18.5085
  49   2.0000      -0.674994       -18.3675
  50   2.0000      -0.665577       -18.1113
  51   2.0000      -0.652160       -17.7462
  52   2.0000      -0.647354       -17.6154
  53   2.0000      -0.642573       -17.4853
  54   2.0000      -0.638900       -17.3854
  55   2.0000      -0.630609       -17.1598
  56   2.0000      -0.616044       -16.7634
  57   2.0000      -0.605305       -16.4712
  58   2.0000      -0.604923       -16.4608
  59   2.0000      -0.602587       -16.3972
  60   2.0000      -0.600249       -16.3336
  61   2.0000      -0.588830       -16.0229
  62   2.0000      -0.571150       -15.5418
  63   2.0000      -0.568746       -15.4764
  64   2.0000      -0.556099       -15.1322
  65   2.0000      -0.550056       -14.9678
  66   2.0000      -0.546024       -14.8581
  67   2.0000      -0.540069       -14.6960
  68   2.0000      -0.532345       -14.4858
  69   2.0000      -0.527615       -14.3571
  70   2.0000      -0.522031       -14.2052
  71   2.0000      -0.512864       -13.9558
  72   2.0000      -0.509721       -13.8702
  73   2.0000      -0.498635       -13.5685
  74   2.0000      -0.484353       -13.1799
  75   2.0000      -0.477776       -13.0009
  76   2.0000      -0.471819       -12.8388
  77   2.0000      -0.449752       -12.2384
  78   2.0000      -0.438887       -11.9427
  79   2.0000      -0.420184       -11.4338
  80   2.0000      -0.415820       -11.3150
  81   2.0000      -0.390613       -10.6291
  82   0.0000      -0.208448        -5.6722
  83   0.0000      -0.185289        -5.0420
  84   0.0000      -0.143790        -3.9127
  85   0.0000      -0.080617        -2.1937
  86   0.0000      -0.076514        -2.0821

MULLIKEN ATOMIC CHARGES
-----------------------
   0 Ir:    0.617313
   1 C :   -0.276501
   2 C :   -0.197830
   3 C :   -0.279096
   4 C :   -0.167749
   5 C :   -0.196959
   6 N :   -0.481149
   7 C :   -0.135978
   8 C :   -0.633280
   9 H :    0.245589
  10 H :    0.219754
  11 H :    0.270984
  12 C :   -0.661488
  13 H :    0.270752
  14 H :    0.259128
  15 H :    0.227513
  16 H :    0.246005
  17 C :    0.096671
  18 C :   -0.297278
  19 H :    0.270390
  20 C :   -0.219964
  21 C :   -0.175914
  22 S :    0.318703
  23 C :   -0.393780
  24 H :    0.353036
  25 H :    0.260229
  26 H :    0.296510
  27 H :    0.287259
  28 H :    0.297804
  29 H :    0.293574
  30 O :   -0.365719
  31 O :   -0.564866
  32 C :    0.600540
  33 C :   -0.758616
  34 H :    0.258561
  35 H :    0.268723
  36 H :    0.275587
  37 H :    0.286936
  38 H :    0.284606
Sum of atomic charges:    1.0000000

LOEWDIN ATOMIC CHARGES
----------------------
   0 Ir:   -0.159458
   1 C :   -0.034078
   2 C :   -0.035712
   3 C :   -0.056622
   4 C :   -0.044594
   5 C :   -0.052245
   6 N :   -0.043974
   7 C :   -0.054041
   8 C :   -0.352106
   9 H :    0.148388
  10 H :    0.132532
  11 H :    0.147628
  12 C :   -0.358865
  13 H :    0.150652
  14 H :    0.153449
  15 H :    0.133125
  16 H :    0.137107
  17 C :    0.022380
  18 C :   -0.215513
  19 H :    0.152607
  20 C :   -0.117700
  21 C :   -0.158949
  22 S :    0.468888
  23 C :   -0.258126
  24 H :    0.174602
  25 H :    0.155469
  26 H :    0.170469
  27 H :    0.184062
  28 H :    0.191193
  29 H :    0.185189
  30 O :   -0.116675
  31 O :   -0.271535
  32 C :    0.150433
  33 C :   -0.380133
  34 H :    0.160632
  35 H :    0.167844
  36 H :    0.157668
  37 H :    0.183388
  38 H :    0.182617

  Mayer bond orders larger than 0.100000
B(  0-Ir,  1-C ) :   0.5787 B(  0-Ir,  2-C ) :   0.3834 B(  0-Ir,  3-C ) :   0.4573
B(  0-Ir,  4-C ) :   0.3663 B(  0-Ir,  5-C ) :   0.4611 B(  0-Ir,  6-N ) :   0.5036
B(  0-Ir, 30-O ) :   0.2648 B(  0-Ir, 31-O ) :   0.6552 B(  1-C ,  2-C ) :   1.1387
B(  1-C ,  4-C ) :   1.1169 B(  1-C , 27-H ) :   0.9185 B(  2-C ,  5-C ) :   1.2577
B(  2-C , 28-H ) :   0.9068 B(  3-C ,  4-C ) :   1.2667 B(  3-C ,  5-C ) :   1.0895
B(  3-C , 37-H ) :   0.9151 B(  4-C , 38-H ) :   0.9151 B(  5-C , 29-H ) :   0.9072
B(  6-N ,  7-C ) :   0.8652 B(  6-N , 17-C ) :   1.6223 B(  7-C ,  8-C ) :   0.9830
B(  7-C , 12-C ) :   0.9838 B(  7-C , 13-H ) :   0.8899 B(  8-C ,  9-H ) :   0.9094
B(  8-C , 10-H ) :   0.9187 B(  8-C , 11-H ) :   0.9002 B( 12-C , 14-H ) :   0.9081
B( 12-C , 15-H ) :   0.9143 B( 12-C , 16-H ) :   0.9156 B( 17-C , 18-C ) :   1.1275
B( 17-C , 19-H ) :   0.8809 B( 18-C , 20-C ) :   1.3794 B( 18-C , 22-S ) :   1.1958
B( 20-C , 21-C ) :   1.3234 B( 20-C , 24-H ) :   0.8159 B( 21-C , 23-C ) :   1.5099
B( 21-C , 25-H ) :   0.9038 B( 22-S , 23-C ) :   1.2283 B( 23-C , 26-H ) :   0.8931
B( 30-O , 32-C ) :   1.7756 B( 31-O , 32-C ) :   1.1660 B( 32-C , 33-C ) :   0.9394
B( 33-C , 34-H ) :   0.9050 B( 33-C , 35-H ) :   0.8991 B( 33-C , 36-H ) :   0.9027

Dispersion correction           -0.029459705
FINAL SINGLE POINT ENERGY     -1288.333142324197
Dispersion correction            ... done

DIPOLE MOMENT
-------------
                                X             Y             Z
Electronic contribution:     24.02596     -63.50398     119.56975
Nuclear contribution   :    -23.99592      62.46628    -120.16894
                        -----------------------------------------
Total Dipole Moment    :      0.03004      -1.03771      -0.59919
                        -----------------------------------------
Magnitude (a.u.)       :      1.19865
Magnitude (Debye)      :      3.04673

Rotational constants in cm-1:     0.011041     0.007678     0.006992
Rotational constants in MHz :   331.012878   230.182991   209.613079

                             ****ORCA TERMINATED NORMALLY****
TOTAL RUN TIME: 0 days 0 hours 18 minutes 48 seconds 400 msec
