                         Program Version 5.0.3 -  RELEASE  -
|  1> ! EnGrad PBEh-3c
|  2> %output
|  3> xyzfile=True
|  4> end
|  5> %scf
|  6> maxiter 250
|  7> end
|  8> %output
|  9> Print[P_Hirshfeld] = 1
| 10> end
| 11> % maxcore
| 12> 4000
| 13> *xyz 1 1
| 14> Ir   0.44511651  -0.66924436   0.97214412
| 15> C   -0.07103188  -2.66641591   1.77025675
| 16> C    0.94867569  -2.08573085   2.58511197
| 17> C    1.76511041  -2.33417974   0.45411914
| 18> C    0.47254647  -2.84479693   0.45785147
| 19> C    2.07215451  -1.86413326   1.79400451
| 20> N   -0.95002341   0.02471991  -0.41329099
| 21> C   -2.39449676   0.11734741   0.01780271
| 22> C   -2.86150612   1.54952577   0.21051297
| 23> H   -3.89057514   1.54567965   0.58181307
| 24> H   -2.83344646   2.11391516  -0.71705428
| 25> H   -2.28144612   2.06943878   0.95092406
| 26> C   -3.32771370  -0.63099156  -0.93376813
| 27> H   -2.43270160  -0.37822251   0.97756943
| 28> H   -4.31971203  -0.69201366  -0.47266423
| 29> H   -3.46915771  -0.11807794  -1.88394837
| 30> H   -2.99516561  -1.64137840  -1.12579801
| 31> C   -0.66645023   0.29312183  -1.63955937
| 32> C    0.63220052   0.19765688  -2.25125008
| 33> H   -1.48054564   0.56548218  -2.29424118
| 34> C    1.94176461   0.26654559  -1.65907671
| 35> C    2.91309301   0.06409717  -2.65862463
| 36> S    0.73585566   0.03633163  -3.98129222
| 37> C    2.43616927  -0.04506590  -3.93227528
| 38> H    2.22560723   0.89498350  -0.81998033
| 39> H    3.97123512   0.09248960  -2.43116439
| 40> H    3.01984171  -0.18514693  -4.82440265
| 41> H   -0.95439673  -3.16930460   2.13835241
| 42> H    0.85491689  -1.93791279   3.65411402
| 43> H    3.01950750  -1.47293523   2.09559624
| 44> O    1.60252385   1.57941674   0.84899725
| 45> O   -0.10957561   0.99159752   2.08180524
| 46> C    0.73620034   1.91543498   1.68706700
| 47> C    0.67486133   3.30982279   2.24761966
| 48> H    0.79839985   4.03600130   1.43984326
| 49> H    1.51719359   3.46403916   2.92896245
| 50> H   -0.24395174   3.49241340   2.78129870
| 51> H    2.50278742  -2.47326817  -0.31574503
| 52> H   -0.00469767  -3.40997671  -0.32130094
| 53> *
| 54>
| 55>                          ****END OF INPUT****

CARTESIAN COORDINATES (ANGSTROEM)
---------------------------------
  Ir     0.445117   -0.669244    0.972144
  C     -0.071032   -2.666416    1.770257
  C      0.948676   -2.085731    2.585112
  C      1.765110   -2.334180    0.454119
  C      0.472546   -2.844797    0.457851
  C      2.072155   -1.864133    1.794005
  N     -0.950023    0.024720   -0.413291
  C     -2.394497    0.117347    0.017803
  C     -2.861506    1.549526    0.210513
  H     -3.890575    1.545680    0.581813
  H     -2.833446    2.113915   -0.717054
  H     -2.281446    2.069439    0.950924
  C     -3.327714   -0.630992   -0.933768
  H     -2.432702   -0.378223    0.977569
  H     -4.319712   -0.692014   -0.472664
  H     -3.469158   -0.118078   -1.883948
  H     -2.995166   -1.641378   -1.125798
  C     -0.666450    0.293122   -1.639559
  C      0.632201    0.197657   -2.251250
  H     -1.480546    0.565482   -2.294241
  C      1.941765    0.266546   -1.659077
  C      2.913093    0.064097   -2.658625
  S      0.735856    0.036332   -3.981292
  C      2.436169   -0.045066   -3.932275
  H      2.225607    0.894983   -0.819980
  H      3.971235    0.092490   -2.431164
  H      3.019842   -0.185147   -4.824403
  H     -0.954397   -3.169305    2.138352
  H      0.854917   -1.937913    3.654114
  H      3.019508   -1.472935    2.095596
  O      1.602524    1.579417    0.848997
  O     -0.109576    0.991598    2.081805
  C      0.736200    1.915435    1.687067
  C      0.674861    3.309823    2.247620
  H      0.798400    4.036001    1.439843
  H      1.517194    3.464039    2.928962
  H     -0.243952    3.492413    2.781299
  H      2.502787   -2.473268   -0.315745
  H     -0.004698   -3.409977   -0.321301

 Total Charge           Charge          ....    1
 Multiplicity           Mult            ....    1
 Number of Electrons    NEL             ....  164
 Basis Dimension        Dim             ....  358

ORBITAL ENERGIES
----------------

  NO   OCC          E(Eh)            E(eV)
   0   2.0000     -89.749947     -2442.2202
   1   2.0000     -19.627645      -534.0954
   2   2.0000     -19.610615      -533.6320
   3   2.0000     -14.825608      -403.4253
   4   2.0000     -10.692925      -290.9693
   5   2.0000     -10.650613      -289.8179
   6   2.0000     -10.636998      -289.4474
   7   2.0000     -10.631956      -289.3102
   8   2.0000     -10.631430      -289.2959
   9   2.0000     -10.627284      -289.1831
  10   2.0000     -10.624609      -289.1103
  11   2.0000     -10.616793      -288.8976
  12   2.0000     -10.608329      -288.6673
  13   2.0000     -10.601176      -288.4727
  14   2.0000     -10.581521      -287.9378
  15   2.0000     -10.569272      -287.6045
  16   2.0000     -10.547290      -287.0064
  17   2.0000     -10.547231      -287.0048
  18   2.0000     -10.537241      -286.7329
  19   2.0000      -8.388888      -228.2733
  20   2.0000      -6.278944      -170.8588
  21   2.0000      -6.275494      -170.7649
  22   2.0000      -6.273533      -170.7115
  23   2.0000      -4.028984      -109.6342
  24   2.0000      -2.347703       -63.8843
  25   2.0000      -2.312431       -62.9245
  26   2.0000      -2.310792       -62.8798
  27   2.0000      -1.308718       -35.6120
  28   2.0000      -1.198577       -32.6149
  29   2.0000      -1.187537       -32.3145
  30   2.0000      -1.173127       -31.9224
  31   2.0000      -1.107528       -30.1374
  32   2.0000      -1.008525       -27.4434
  33   2.0000      -0.986368       -26.8404
  34   2.0000      -0.974014       -26.5043
  35   2.0000      -0.957387       -26.0518
  36   2.0000      -0.945823       -25.7372
  37   2.0000      -0.938701       -25.5434
  38   2.0000      -0.889886       -24.2150
  39   2.0000      -0.860603       -23.4182
  40   2.0000      -0.789743       -21.4900
  41   2.0000      -0.786260       -21.3952
  42   2.0000      -0.784583       -21.3496
  43   2.0000      -0.774890       -21.0858
  44   2.0000      -0.764634       -20.8068
  45   2.0000      -0.742948       -20.2167
  46   2.0000      -0.729359       -19.8469
  47   2.0000      -0.709269       -19.3002
  48   2.0000      -0.680556       -18.5189
  49   2.0000      -0.666256       -18.1297
  50   2.0000      -0.659596       -17.9485
  51   2.0000      -0.649679       -17.6787
  52   2.0000      -0.642182       -17.4746
  53   2.0000      -0.639894       -17.4124
  54   2.0000      -0.637274       -17.3411
  55   2.0000      -0.630435       -17.1550
  56   2.0000      -0.615172       -16.7397
  57   2.0000      -0.608323       -16.5533
  58   2.0000      -0.605957       -16.4889
  59   2.0000      -0.600959       -16.3529
  60   2.0000      -0.588836       -16.0230
  61   2.0000      -0.585991       -15.9456
  62   2.0000      -0.567932       -15.4542
  63   2.0000      -0.563258       -15.3270
  64   2.0000      -0.557246       -15.1634
  65   2.0000      -0.553384       -15.0583
  66   2.0000      -0.552035       -15.0216
  67   2.0000      -0.540717       -14.7137
  68   2.0000      -0.532697       -14.4954
  69   2.0000      -0.524079       -14.2609
  70   2.0000      -0.521290       -14.1850
  71   2.0000      -0.513154       -13.9636
  72   2.0000      -0.505355       -13.7514
  73   2.0000      -0.503952       -13.7132
  74   2.0000      -0.483673       -13.1614
  75   2.0000      -0.475975       -12.9519
  76   2.0000      -0.472853       -12.8670
  77   2.0000      -0.452215       -12.3054
  78   2.0000      -0.443513       -12.0686
  79   2.0000      -0.421806       -11.4779
  80   2.0000      -0.413732       -11.2582
  81   2.0000      -0.391624       -10.6566
  82   0.0000      -0.206136        -5.6092
  83   0.0000      -0.177858        -4.8398
  84   0.0000      -0.147921        -4.0251
  85   0.0000      -0.080520        -2.1911
  86   0.0000      -0.078945        -2.1482

MULLIKEN ATOMIC CHARGES
-----------------------
   0 Ir:    0.633077
   1 C :   -0.291507
   2 C :   -0.191376
   3 C :   -0.271381
   4 C :   -0.166835
   5 C :   -0.200592
   6 N :   -0.480171
   7 C :   -0.138164
   8 C :   -0.630968
   9 H :    0.248543
  10 H :    0.220861
  11 H :    0.263270
  12 C :   -0.659993
  13 H :    0.267473
  14 H :    0.261392
  15 H :    0.227151
  16 H :    0.243626
  17 C :    0.091771
  18 C :   -0.270914
  19 H :    0.270707
  20 C :   -0.235999
  21 C :   -0.165574
  22 S :    0.309111
  23 C :   -0.404449
  24 H :    0.351958
  25 H :    0.263278
  26 H :    0.294508
  27 H :    0.287752
  28 H :    0.297654
  29 H :    0.296176
  30 O :   -0.473818
  31 O :   -0.528357
  32 C :    0.648252
  33 C :   -0.760617
  34 H :    0.272309
  35 H :    0.277956
  36 H :    0.268547
  37 H :    0.289065
  38 H :    0.286277
Sum of atomic charges:    1.0000000

LOEWDIN ATOMIC CHARGES
----------------------
   0 Ir:   -0.149465
   1 C :   -0.043988
   2 C :   -0.031497
   3 C :   -0.050721
   4 C :   -0.041983
   5 C :   -0.051908
   6 N :   -0.045077
   7 C :   -0.057392
   8 C :   -0.351786
   9 H :    0.148832
  10 H :    0.133169
  11 H :    0.145128
  12 C :   -0.358244
  13 H :    0.149607
  14 H :    0.153563
  15 H :    0.133091
  16 H :    0.137002
  17 C :    0.030516
  18 C :   -0.223694
  19 H :    0.153083
  20 C :   -0.135309
  21 C :   -0.166330
  22 S :    0.461662
  23 C :   -0.255651
  24 H :    0.204507
  25 H :    0.156074
  26 H :    0.168223
  27 H :    0.184381
  28 H :    0.190447
  29 H :    0.187214
  30 O :   -0.235797
  31 O :   -0.219228
  32 C :    0.189473
  33 C :   -0.376303
  34 H :    0.167923
  35 H :    0.173708
  36 H :    0.158433
  37 H :    0.184730
  38 H :    0.183607

  Mayer bond orders larger than 0.100000
B(  0-Ir,  1-C ) :   0.5611 B(  0-Ir,  2-C ) :   0.3966 B(  0-Ir,  3-C ) :   0.4750
B(  0-Ir,  4-C ) :   0.3833 B(  0-Ir,  5-C ) :   0.4557 B(  0-Ir,  6-N ) :   0.4985
B(  0-Ir, 30-O ) :   0.3192 B(  0-Ir, 31-O ) :   0.5884 B(  1-C ,  2-C ) :   1.1356
B(  1-C ,  4-C ) :   1.1256 B(  1-C , 27-H ) :   0.9177 B(  2-C ,  5-C ) :   1.2487
B(  2-C , 28-H ) :   0.9076 B(  3-C ,  4-C ) :   1.2441 B(  3-C ,  5-C ) :   1.0956
B(  3-C , 37-H ) :   0.9149 B(  4-C , 38-H ) :   0.9144 B(  5-C , 29-H ) :   0.9062
B(  6-N ,  7-C ) :   0.8704 B(  6-N , 17-C ) :   1.6293 B(  7-C ,  8-C ) :   0.9817
B(  7-C , 12-C ) :   0.9839 B(  7-C , 13-H ) :   0.8905 B(  8-C ,  9-H ) :   0.9083
B(  8-C , 10-H ) :   0.9183 B(  8-C , 11-H ) :   0.9044 B( 12-C , 14-H ) :   0.9069
B( 12-C , 15-H ) :   0.9141 B( 12-C , 16-H ) :   0.9169 B( 17-C , 18-C ) :   1.1203
B( 17-C , 19-H ) :   0.8803 B( 18-C , 20-C ) :   1.3913 B( 18-C , 22-S ) :   1.1754
B( 20-C , 21-C ) :   1.3275 B( 20-C , 24-H ) :   0.8109 B( 21-C , 23-C ) :   1.4867
B( 21-C , 25-H ) :   0.9037 B( 22-S , 23-C ) :   1.2539 B( 23-C , 26-H ) :   0.8935
B( 30-O , 32-C ) :   1.5923 B( 31-O , 32-C ) :   1.2884 B( 32-C , 33-C ) :   0.9526
B( 33-C , 34-H ) :   0.8993 B( 33-C , 35-H ) :   0.8932 B( 33-C , 36-H ) :   0.9031

Dispersion correction           -0.029423349
FINAL SINGLE POINT ENERGY     -1288.385368146727
Dispersion correction            ... done

DIPOLE MOMENT
-------------
                                X             Y             Z
Electronic contribution:     23.62787     -64.31250     119.96242
Nuclear contribution   :    -23.75509      63.30487    -120.28479
                        -----------------------------------------
Total Dipole Moment    :     -0.12722      -1.00762      -0.32237
                        -----------------------------------------
Magnitude (a.u.)       :      1.06556
Magnitude (Debye)      :      2.70843

Rotational constants in cm-1:     0.011045     0.007682     0.006991
Rotational constants in MHz :   331.112757   230.297067   209.570393

                             ****ORCA TERMINATED NORMALLY****
TOTAL RUN TIME: 0 days 0 hours 17 minutes 56 seconds 64 msec
