                         Program Version 5.0.3 -  RELEASE  -
|  1> ! EnGrad PBEh-3c
|  2> %output
|  3> xyzfile=True
|  4> end
|  5> %scf
|  6> maxiter 250
|  7> end
|  8> %output
|  9> Print[P_Hirshfeld] = 1
| 10> end
| 11> % maxcore
| 12> 4000
| 13> *xyz 1 1
| 14> Ir   0.44460595  -0.66783069   0.97644158
| 15> C   -0.07030921  -2.66593284   1.76196474
| 16> C    0.94322850  -2.08808563   2.58940671
| 17> C    1.77505124  -2.33647328   0.46259710
| 18> C    0.47740105  -2.84772205   0.45793237
| 19> C    2.06965647  -1.86425205   1.79603121
| 20> N   -0.95249873   0.02368414  -0.41561023
| 21> C   -2.39508800   0.11664461   0.01641626
| 22> C   -2.86316586   1.54768495   0.21554078
| 23> H   -3.89068208   1.54173086   0.58379431
| 24> H   -2.83414691   2.11481693  -0.71209502
| 25> H   -2.27882363   2.06567491   0.95985051
| 26> C   -3.33033397  -0.62875243  -0.93357076
| 27> H   -2.43307874  -0.38432190   0.97855813
| 28> H   -4.31929669  -0.69153128  -0.47388336
| 29> H   -3.47104277  -0.11381754  -1.88395891
| 30> H   -2.99637414  -1.64229435  -1.13098200
| 31> C   -0.66513962   0.29300245  -1.63950231
| 32> C    0.64427136   0.19941717  -2.24351705
| 33> H   -1.48454080   0.56629919  -2.29598472
| 34> C    1.93339944   0.27718145  -1.67604728
| 35> C    2.91513709   0.06055687  -2.65362694
| 36> S    0.73562812   0.03565595  -3.97840773
| 37> C    2.43224828  -0.04619662  -3.93140173
| 38> H    2.21870775   0.88474060  -0.81719922
| 39> H    3.96883139   0.09075175  -2.43011652
| 40> H    3.01947964  -0.18340522  -4.82516044
| 41> H   -0.95849664  -3.16841938   2.12908387
| 42> H    0.84380170  -1.93494950   3.65131566
| 43> H    3.01789694  -1.46944943   2.10818729
| 44> O    1.60593453   1.57610897   0.84333939
| 45> O   -0.10177485   1.00036087   2.07710988
| 46> C    0.73239085   1.90898316   1.68741212
| 47> C    0.67879331   3.30896492   2.24243304
| 48> H    0.79826601   4.03747579   1.43808434
| 49> H    1.51914807   3.46549811   2.92476768
| 50> H   -0.24378153   3.49442823   2.78104091
| 51> H    2.51000878  -2.46667008  -0.31113098
| 52> H    0.00357803  -3.40787820  -0.32862508
| 53> *
| 54>
| 55>                          ****END OF INPUT****

CARTESIAN COORDINATES (ANGSTROEM)
---------------------------------
  Ir     0.444606   -0.667831    0.976442
  C     -0.070309   -2.665933    1.761965
  C      0.943229   -2.088086    2.589407
  C      1.775051   -2.336473    0.462597
  C      0.477401   -2.847722    0.457932
  C      2.069656   -1.864252    1.796031
  N     -0.952499    0.023684   -0.415610
  C     -2.395088    0.116645    0.016416
  C     -2.863166    1.547685    0.215541
  H     -3.890682    1.541731    0.583794
  H     -2.834147    2.114817   -0.712095
  H     -2.278824    2.065675    0.959851
  C     -3.330334   -0.628752   -0.933571
  H     -2.433079   -0.384322    0.978558
  H     -4.319297   -0.691531   -0.473883
  H     -3.471043   -0.113818   -1.883959
  H     -2.996374   -1.642294   -1.130982
  C     -0.665140    0.293002   -1.639502
  C      0.644271    0.199417   -2.243517
  H     -1.484541    0.566299   -2.295985
  C      1.933399    0.277181   -1.676047
  C      2.915137    0.060557   -2.653627
  S      0.735628    0.035656   -3.978408
  C      2.432248   -0.046197   -3.931402
  H      2.218708    0.884741   -0.817199
  H      3.968831    0.090752   -2.430117
  H      3.019480   -0.183405   -4.825160
  H     -0.958497   -3.168419    2.129084
  H      0.843802   -1.934949    3.651316
  H      3.017897   -1.469449    2.108187
  O      1.605935    1.576109    0.843339
  O     -0.101775    1.000361    2.077110
  C      0.732391    1.908983    1.687412
  C      0.678793    3.308965    2.242433
  H      0.798266    4.037476    1.438084
  H      1.519148    3.465498    2.924768
  H     -0.243782    3.494428    2.781041
  H      2.510009   -2.466670   -0.311131
  H      0.003578   -3.407878   -0.328625

 Total Charge           Charge          ....    1
 Multiplicity           Mult            ....    1
 Number of Electrons    NEL             ....  164
 Basis Dimension        Dim             ....  358

ORBITAL ENERGIES
----------------

  NO   OCC          E(Eh)            E(eV)
   0   2.0000     -89.747792     -2442.1616
   1   2.0000     -19.630904      -534.1841
   2   2.0000     -19.608911      -533.5856
   3   2.0000     -14.826128      -403.4394
   4   2.0000     -10.692572      -290.9597
   5   2.0000     -10.652039      -289.8567
   6   2.0000     -10.637146      -289.4515
   7   2.0000     -10.632769      -289.3324
   8   2.0000     -10.632546      -289.3263
   9   2.0000     -10.628841      -289.2255
  10   2.0000     -10.625622      -289.1379
  11   2.0000     -10.614081      -288.8238
  12   2.0000     -10.609225      -288.6917
  13   2.0000     -10.600617      -288.4575
  14   2.0000     -10.577780      -287.8360
  15   2.0000     -10.567575      -287.5583
  16   2.0000     -10.547885      -287.0225
  17   2.0000     -10.547197      -287.0038
  18   2.0000     -10.538272      -286.7610
  19   2.0000      -8.386859      -228.2180
  20   2.0000      -6.276935      -170.8041
  21   2.0000      -6.273478      -170.7100
  22   2.0000      -6.271454      -170.6549
  23   2.0000      -4.029877      -109.6585
  24   2.0000      -2.348649       -63.9100
  25   2.0000      -2.313265       -62.9471
  26   2.0000      -2.311599       -62.9018
  27   2.0000      -1.312519       -35.7154
  28   2.0000      -1.201038       -32.6819
  29   2.0000      -1.188511       -32.3410
  30   2.0000      -1.174321       -31.9549
  31   2.0000      -1.108869       -30.1739
  32   2.0000      -1.008716       -27.4485
  33   2.0000      -0.986391       -26.8411
  34   2.0000      -0.975428       -26.5427
  35   2.0000      -0.955968       -26.0132
  36   2.0000      -0.947194       -25.7745
  37   2.0000      -0.937417       -25.5084
  38   2.0000      -0.890148       -24.2222
  39   2.0000      -0.860230       -23.4081
  40   2.0000      -0.789111       -21.4728
  41   2.0000      -0.786650       -21.4058
  42   2.0000      -0.785278       -21.3685
  43   2.0000      -0.775432       -21.1006
  44   2.0000      -0.764997       -20.8166
  45   2.0000      -0.743574       -20.2337
  46   2.0000      -0.730077       -19.8664
  47   2.0000      -0.710968       -19.3464
  48   2.0000      -0.680765       -18.5246
  49   2.0000      -0.666271       -18.1302
  50   2.0000      -0.661021       -17.9873
  51   2.0000      -0.650206       -17.6930
  52   2.0000      -0.642646       -17.4873
  53   2.0000      -0.641142       -17.4464
  54   2.0000      -0.637585       -17.3496
  55   2.0000      -0.630790       -17.1647
  56   2.0000      -0.615687       -16.7537
  57   2.0000      -0.609304       -16.5800
  58   2.0000      -0.607124       -16.5207
  59   2.0000      -0.601341       -16.3633
  60   2.0000      -0.588239       -16.0068
  61   2.0000      -0.584674       -15.9098
  62   2.0000      -0.567266       -15.4361
  63   2.0000      -0.563233       -15.3263
  64   2.0000      -0.559188       -15.2163
  65   2.0000      -0.554130       -15.0786
  66   2.0000      -0.552720       -15.0403
  67   2.0000      -0.540739       -14.7143
  68   2.0000      -0.533140       -14.5075
  69   2.0000      -0.523906       -14.2562
  70   2.0000      -0.520322       -14.1587
  71   2.0000      -0.513779       -13.9806
  72   2.0000      -0.505555       -13.7569
  73   2.0000      -0.504890       -13.7388
  74   2.0000      -0.484131       -13.1739
  75   2.0000      -0.475557       -12.9406
  76   2.0000      -0.472898       -12.8682
  77   2.0000      -0.452856       -12.3228
  78   2.0000      -0.444658       -12.0998
  79   2.0000      -0.422633       -11.5004
  80   2.0000      -0.412951       -11.2370
  81   2.0000      -0.392642       -10.6843
  82   0.0000      -0.206490        -5.6189
  83   0.0000      -0.175291        -4.7699
  84   0.0000      -0.149740        -4.0746
  85   0.0000      -0.081636        -2.2214
  86   0.0000      -0.078938        -2.1480

MULLIKEN ATOMIC CHARGES
-----------------------
   0 Ir:    0.630123
   1 C :   -0.297042
   2 C :   -0.187397
   3 C :   -0.264288
   4 C :   -0.165853
   5 C :   -0.207560
   6 N :   -0.477121
   7 C :   -0.138534
   8 C :   -0.629830
   9 H :    0.249520
  10 H :    0.220941
  11 H :    0.261944
  12 C :   -0.659555
  13 H :    0.266187
  14 H :    0.262433
  15 H :    0.226940
  16 H :    0.242671
  17 C :    0.084971
  18 C :   -0.264333
  19 H :    0.271286
  20 C :   -0.234336
  21 C :   -0.165064
  22 S :    0.304501
  23 C :   -0.408110
  24 H :    0.354012
  25 H :    0.263593
  26 H :    0.293936
  27 H :    0.288024
  28 H :    0.298198
  29 H :    0.297126
  30 O :   -0.481815
  31 O :   -0.516454
  32 C :    0.647789
  33 C :   -0.761277
  34 H :    0.273277
  35 H :    0.277928
  36 H :    0.265623
  37 H :    0.290381
  38 H :    0.287165
Sum of atomic charges:    1.0000000

LOEWDIN ATOMIC CHARGES
----------------------
   0 Ir:   -0.147396
   1 C :   -0.046884
   2 C :   -0.030206
   3 C :   -0.048122
   4 C :   -0.041564
   5 C :   -0.053259
   6 N :   -0.045305
   7 C :   -0.058253
   8 C :   -0.351448
   9 H :    0.148984
  10 H :    0.133366
  11 H :    0.145102
  12 C :   -0.358173
  13 H :    0.149267
  14 H :    0.153607
  15 H :    0.133040
  16 H :    0.137045
  17 C :    0.032890
  18 C :   -0.223852
  19 H :    0.153529
  20 C :   -0.135354
  21 C :   -0.167904
  22 S :    0.456990
  23 C :   -0.254933
  24 H :    0.204659
  25 H :    0.155962
  26 H :    0.167838
  27 H :    0.184552
  28 H :    0.190168
  29 H :    0.187981
  30 O :   -0.244864
  31 O :   -0.202648
  32 C :    0.184048
  33 C :   -0.376713
  34 H :    0.167695
  35 H :    0.173221
  36 H :    0.157629
  37 H :    0.185197
  38 H :    0.184109

  Mayer bond orders larger than 0.100000
B(  0-Ir,  1-C ) :   0.5581 B(  0-Ir,  2-C ) :   0.4002 B(  0-Ir,  3-C ) :   0.4729
B(  0-Ir,  4-C ) :   0.3828 B(  0-Ir,  5-C ) :   0.4553 B(  0-Ir,  6-N ) :   0.4968
B(  0-Ir, 30-O ) :   0.3297 B(  0-Ir, 31-O ) :   0.5784 B(  1-C ,  2-C ) :   1.1352
B(  1-C ,  4-C ) :   1.1264 B(  1-C , 27-H ) :   0.9174 B(  2-C ,  5-C ) :   1.2464
B(  2-C , 28-H ) :   0.9073 B(  3-C ,  4-C ) :   1.2439 B(  3-C ,  5-C ) :   1.0984
B(  3-C , 37-H ) :   0.9137 B(  4-C , 38-H ) :   0.9137 B(  5-C , 29-H ) :   0.9058
B(  6-N ,  7-C ) :   0.8708 B(  6-N , 17-C ) :   1.6364 B(  7-C ,  8-C ) :   0.9811
B(  7-C , 12-C ) :   0.9835 B(  7-C , 13-H ) :   0.8906 B(  8-C ,  9-H ) :   0.9077
B(  8-C , 10-H ) :   0.9181 B(  8-C , 11-H ) :   0.9051 B( 12-C , 14-H ) :   0.9063
B( 12-C , 15-H ) :   0.9139 B( 12-C , 16-H ) :   0.9174 B( 17-C , 18-C ) :   1.1131
B( 17-C , 19-H ) :   0.8798 B( 18-C , 20-C ) :   1.4071 B( 18-C , 22-S ) :   1.1674
B( 20-C , 21-C ) :   1.3251 B( 20-C , 24-H ) :   0.8088 B( 21-C , 23-C ) :   1.4857
B( 21-C , 25-H ) :   0.9040 B( 22-S , 23-C ) :   1.2581 B( 23-C , 26-H ) :   0.8935
B( 30-O , 32-C ) :   1.5716 B( 31-O , 32-C ) :   1.3148 B( 32-C , 33-C ) :   0.9510
B( 33-C , 34-H ) :   0.8992 B( 33-C , 35-H ) :   0.8934 B( 33-C , 36-H ) :   0.9043

Dispersion correction           -0.029407346
FINAL SINGLE POINT ENERGY     -1288.390001774521
Dispersion correction            ... done

DIPOLE MOMENT
-------------
                                X             Y             Z
Electronic contribution:     23.50101     -64.19991     120.44420
Nuclear contribution   :    -23.66501      63.16301    -120.71328
                        -----------------------------------------
Total Dipole Moment    :     -0.16400      -1.03689      -0.26907
                        -----------------------------------------
Magnitude (a.u.)       :      1.08372
Magnitude (Debye)      :      2.75460

Rotational constants in cm-1:     0.011044     0.007682     0.006990
Rotational constants in MHz :   331.100962   230.314773   209.555079

                             ****ORCA TERMINATED NORMALLY****
TOTAL RUN TIME: 0 days 0 hours 17 minutes 49 seconds 875 msec
