                         Program Version 5.0.3 -  RELEASE  -
|  1> ! EnGrad PBEh-3c
|  2> %output
|  3> xyzfile=True
|  4> end
|  5> %scf
|  6> maxiter 250
|  7> end
|  8> %output
|  9> Print[P_Hirshfeld] = 1
| 10> end
| 11> % maxcore
| 12> 4000
| 13> *xyz 1 1
| 14> Ir   0.44692835  -0.66516937   0.99599900
| 15> C   -0.07683641  -2.66650628   1.72839942
| 16> C    0.91482140  -2.10066840   2.59450572
| 17> C    1.82021325  -2.35231617   0.50338184
| 18> C    0.51540160  -2.86106076   0.45126671
| 19> C    2.06420572  -1.85875424   1.82570380
| 20> N   -0.96534488   0.01803511  -0.42479544
| 21> C   -2.39905392   0.10798620   0.01503899
| 22> C   -2.86503929   1.54005838   0.24487403
| 23> H   -3.89424047   1.51904512   0.59681442
| 24> H   -2.83808251   2.11964545  -0.68109326
| 25> H   -2.26712967   2.04158130   1.00758301
| 26> C   -3.33991243  -0.62112242  -0.93821887
| 27> H   -2.43494483  -0.41679544   0.97845608
| 28> H   -4.32069758  -0.68884522  -0.47900543
| 29> H   -3.48213649  -0.08970160  -1.88282949
| 30> H   -3.00532062  -1.64166022  -1.15984814
| 31> C   -0.65453754   0.29477138  -1.64224984
| 32> C    0.67029515   0.21107168  -2.21951482
| 33> H   -1.49944941   0.56878748  -2.30360846
| 34> C    1.91356300   0.34049106  -1.73687260
| 35> C    2.91674830   0.04331313  -2.65281058
| 36> S    0.73267859   0.03067288  -3.96048133
| 37> C    2.42338665  -0.05515325  -3.92167593
| 38> H    2.17620933   0.82195337  -0.80465966
| 39> H    3.96239067   0.08041857  -2.42083135
| 40> H    3.01394175  -0.17333136  -4.82610670
| 41> H   -0.97860094  -3.15919990   2.07192322
| 42> H    0.77855449  -1.91681261   3.64424075
| 43> H    3.00162126  -1.45185563   2.17836006
| 44> O    1.61171934   1.55501220   0.82253737
| 45> O   -0.07778712   1.03029725   2.06131356
| 46> C    0.74312492   1.89737425   1.67008696
| 47> C    0.69099769   3.30173783   2.21914495
| 48> H    0.79803244   4.04545960   1.42540221
| 49> H    1.53121367   3.47292621   2.90021460
| 50> H   -0.23509915   3.50461000   2.77505794
| 51> H    2.55278102  -2.42744088  -0.28416721
| 52> H    0.05262318  -3.39433533  -0.37005381
| 53> *
| 54>
| 55>                          ****END OF INPUT****

CARTESIAN COORDINATES (ANGSTROEM)
---------------------------------
  Ir     0.446928   -0.665169    0.995999
  C     -0.076836   -2.666506    1.728399
  C      0.914821   -2.100668    2.594506
  C      1.820213   -2.352316    0.503382
  C      0.515402   -2.861061    0.451267
  C      2.064206   -1.858754    1.825704
  N     -0.965345    0.018035   -0.424795
  C     -2.399054    0.107986    0.015039
  C     -2.865039    1.540058    0.244874
  H     -3.894240    1.519045    0.596814
  H     -2.838083    2.119645   -0.681093
  H     -2.267130    2.041581    1.007583
  C     -3.339912   -0.621122   -0.938219
  H     -2.434945   -0.416795    0.978456
  H     -4.320698   -0.688845   -0.479005
  H     -3.482136   -0.089702   -1.882829
  H     -3.005321   -1.641660   -1.159848
  C     -0.654538    0.294771   -1.642250
  C      0.670295    0.211072   -2.219515
  H     -1.499449    0.568787   -2.303608
  C      1.913563    0.340491   -1.736873
  C      2.916748    0.043313   -2.652811
  S      0.732679    0.030673   -3.960481
  C      2.423387   -0.055153   -3.921676
  H      2.176209    0.821953   -0.804660
  H      3.962391    0.080419   -2.420831
  H      3.013942   -0.173331   -4.826107
  H     -0.978601   -3.159200    2.071923
  H      0.778554   -1.916813    3.644241
  H      3.001621   -1.451856    2.178360
  O      1.611719    1.555012    0.822537
  O     -0.077787    1.030297    2.061314
  C      0.743125    1.897374    1.670087
  C      0.690998    3.301738    2.219145
  H      0.798032    4.045460    1.425402
  H      1.531214    3.472926    2.900215
  H     -0.235099    3.504610    2.775058
  H      2.552781   -2.427441   -0.284167
  H      0.052623   -3.394335   -0.370054

 Total Charge           Charge          ....    1
 Multiplicity           Mult            ....    1
 Number of Electrons    NEL             ....  164
 Basis Dimension        Dim             ....  358

ORBITAL ENERGIES
----------------

  NO   OCC          E(Eh)            E(eV)
   0   2.0000     -89.740237     -2441.9560
   1   2.0000     -19.636046      -534.3240
   2   2.0000     -19.608345      -533.5702
   3   2.0000     -14.827157      -403.4674
   4   2.0000     -10.691377      -290.9272
   5   2.0000     -10.656099      -289.9672
   6   2.0000     -10.637404      -289.4585
   7   2.0000     -10.636137      -289.4240
   8   2.0000     -10.635261      -289.4002
   9   2.0000     -10.634493      -289.3793
  10   2.0000     -10.628510      -289.2165
  11   2.0000     -10.611512      -288.7539
  12   2.0000     -10.605711      -288.5961
  13   2.0000     -10.598066      -288.3880
  14   2.0000     -10.567774      -287.5638
  15   2.0000     -10.562833      -287.4293
  16   2.0000     -10.549346      -287.0623
  17   2.0000     -10.547812      -287.0206
  18   2.0000     -10.541403      -286.8462
  19   2.0000      -8.379830      -228.0268
  20   2.0000      -6.269974      -170.6147
  21   2.0000      -6.266509      -170.5204
  22   2.0000      -6.264223      -170.4582
  23   2.0000      -4.031745      -109.7094
  24   2.0000      -2.350493       -63.9602
  25   2.0000      -2.314862       -62.9906
  26   2.0000      -2.313379       -62.9502
  27   2.0000      -1.328134       -36.1404
  28   2.0000      -1.208395       -32.8821
  29   2.0000      -1.189079       -32.3565
  30   2.0000      -1.176635       -32.0179
  31   2.0000      -1.115636       -30.3580
  32   2.0000      -1.009583       -27.4722
  33   2.0000      -0.986541       -26.8451
  34   2.0000      -0.978884       -26.6368
  35   2.0000      -0.954562       -25.9749
  36   2.0000      -0.950757       -25.8714
  37   2.0000      -0.935542       -25.4574
  38   2.0000      -0.890024       -24.2188
  39   2.0000      -0.861077       -23.4311
  40   2.0000      -0.789605       -21.4862
  41   2.0000      -0.787582       -21.4312
  42   2.0000      -0.786086       -21.3905
  43   2.0000      -0.776037       -21.1170
  44   2.0000      -0.765124       -20.8201
  45   2.0000      -0.747322       -20.3357
  46   2.0000      -0.730072       -19.8663
  47   2.0000      -0.716143       -19.4872
  48   2.0000      -0.680878       -18.5276
  49   2.0000      -0.668305       -18.1855
  50   2.0000      -0.666543       -18.1376
  51   2.0000      -0.652559       -17.7570
  52   2.0000      -0.645714       -17.5708
  53   2.0000      -0.642489       -17.4830
  54   2.0000      -0.639943       -17.4137
  55   2.0000      -0.631069       -17.1723
  56   2.0000      -0.617340       -16.7987
  57   2.0000      -0.611732       -16.6461
  58   2.0000      -0.608713       -16.5639
  59   2.0000      -0.604687       -16.4544
  60   2.0000      -0.587049       -15.9744
  61   2.0000      -0.582565       -15.8524
  62   2.0000      -0.566549       -15.4166
  63   2.0000      -0.564371       -15.3573
  64   2.0000      -0.559175       -15.2159
  65   2.0000      -0.555359       -15.1121
  66   2.0000      -0.554331       -15.0841
  67   2.0000      -0.540923       -14.7193
  68   2.0000      -0.533981       -14.5304
  69   2.0000      -0.524750       -14.2792
  70   2.0000      -0.517167       -14.0728
  71   2.0000      -0.515660       -14.0318
  72   2.0000      -0.507407       -13.8072
  73   2.0000      -0.504017       -13.7150
  74   2.0000      -0.486318       -13.2334
  75   2.0000      -0.476441       -12.9646
  76   2.0000      -0.474054       -12.8997
  77   2.0000      -0.454979       -12.3806
  78   2.0000      -0.446101       -12.1390
  79   2.0000      -0.425002       -11.5649
  80   2.0000      -0.411855       -11.2072
  81   2.0000      -0.396249       -10.7825
  82   0.0000      -0.207358        -5.6425
  83   0.0000      -0.169320        -4.6074
  84   0.0000      -0.154517        -4.2046
  85   0.0000      -0.083234        -2.2649
  86   0.0000      -0.078901        -2.1470

MULLIKEN ATOMIC CHARGES
-----------------------
   0 Ir:    0.614647
   1 C :   -0.310038
   2 C :   -0.177780
   3 C :   -0.235207
   4 C :   -0.168379
   5 C :   -0.235840
   6 N :   -0.464176
   7 C :   -0.137429
   8 C :   -0.626135
   9 H :    0.250460
  10 H :    0.220962
  11 H :    0.259500
  12 C :   -0.658926
  13 H :    0.262097
  14 H :    0.264442
  15 H :    0.226607
  16 H :    0.240366
  17 C :    0.054648
  18 C :   -0.235431
  19 H :    0.270861
  20 C :   -0.232577
  21 C :   -0.152774
  22 S :    0.288387
  23 C :   -0.422665
  24 H :    0.360195
  25 H :    0.264034
  26 H :    0.293025
  27 H :    0.288518
  28 H :    0.301446
  29 H :    0.299559
  30 O :   -0.487234
  31 O :   -0.491745
  32 C :    0.645788
  33 C :   -0.769205
  34 H :    0.274009
  35 H :    0.277402
  36 H :    0.262641
  37 H :    0.295482
  38 H :    0.290461
Sum of atomic charges:    1.0000000

LOEWDIN ATOMIC CHARGES
----------------------
   0 Ir:   -0.141807
   1 C :   -0.054815
   2 C :   -0.027263
   3 C :   -0.038471
   4 C :   -0.041249
   5 C :   -0.059366
   6 N :   -0.047077
   7 C :   -0.060757
   8 C :   -0.350150
   9 H :    0.148780
  10 H :    0.133796
  11 H :    0.145874
  12 C :   -0.358433
  13 H :    0.148130
  14 H :    0.153448
  15 H :    0.132994
  16 H :    0.137312
  17 C :    0.037664
  18 C :   -0.225108
  19 H :    0.155172
  20 C :   -0.129101
  21 C :   -0.173533
  22 S :    0.440938
  23 C :   -0.249222
  24 H :    0.196983
  25 H :    0.156427
  26 H :    0.167221
  27 H :    0.184612
  28 H :    0.190515
  29 H :    0.190025
  30 O :   -0.247863
  31 O :   -0.170095
  32 C :    0.164769
  33 C :   -0.378976
  34 H :    0.166812
  35 H :    0.172152
  36 H :    0.157231
  37 H :    0.186615
  38 H :    0.185819

  Mayer bond orders larger than 0.100000
B(  0-Ir,  1-C ) :   0.5583 B(  0-Ir,  2-C ) :   0.4112 B(  0-Ir,  3-C ) :   0.4532
B(  0-Ir,  4-C ) :   0.3760 B(  0-Ir,  5-C ) :   0.4600 B(  0-Ir,  6-N ) :   0.4920
B(  0-Ir, 30-O ) :   0.3473 B(  0-Ir, 31-O ) :   0.5681 B(  1-C ,  2-C ) :   1.1336
B(  1-C ,  4-C ) :   1.1218 B(  1-C , 27-H ) :   0.9175 B(  2-C ,  5-C ) :   1.2384
B(  2-C , 28-H ) :   0.9037 B(  3-C ,  4-C ) :   1.2564 B(  3-C ,  5-C ) :   1.1049
B(  3-C , 37-H ) :   0.9072 B(  4-C , 38-H ) :   0.9106 B(  5-C , 29-H ) :   0.9053
B(  6-N ,  7-C ) :   0.8727 B(  6-N , 17-C ) :   1.6561 B(  7-C ,  8-C ) :   0.9783
B(  7-C , 12-C ) :   0.9821 B(  7-C , 13-H ) :   0.8911 B(  8-C ,  9-H ) :   0.9065
B(  8-C , 10-H ) :   0.9176 B(  8-C , 11-H ) :   0.9060 B( 12-C , 14-H ) :   0.9050
B( 12-C , 15-H ) :   0.9134 B( 12-C , 16-H ) :   0.9188 B( 17-C , 18-C ) :   1.0958
B( 17-C , 19-H ) :   0.8793 B( 18-C , 20-C ) :   1.4430 B( 18-C , 22-S ) :   1.1456
B( 20-C , 21-C ) :   1.3134 B( 20-C , 24-H ) :   0.8018 B( 21-C , 23-C ) :   1.4851
B( 21-C , 25-H ) :   0.9043 B( 22-S , 23-C ) :   1.2654 B( 23-C , 26-H ) :   0.8936
B( 30-O , 32-C ) :   1.5478 B( 31-O , 32-C ) :   1.3590 B( 32-C , 33-C ) :   0.9463
B( 33-C , 34-H ) :   0.8990 B( 33-C , 35-H ) :   0.8936 B( 33-C , 36-H ) :   0.9064

Dispersion correction           -0.029318726
FINAL SINGLE POINT ENERGY     -1288.393109892717
Dispersion correction            ... done

DIPOLE MOMENT
-------------
                                X             Y             Z
Electronic contribution:     23.50859     -63.93040     122.50450
Nuclear contribution   :    -23.72352      62.85464    -122.63351
                        -----------------------------------------
Total Dipole Moment    :     -0.21493      -1.07577      -0.12901
                        -----------------------------------------
Magnitude (a.u.)       :      1.10459
Magnitude (Debye)      :      2.80764

Rotational constants in cm-1:     0.011033     0.007684     0.006986
Rotational constants in MHz :   330.765192   230.367974   209.434259

                             ****ORCA TERMINATED NORMALLY****
TOTAL RUN TIME: 0 days 0 hours 17 minutes 38 seconds 921 msec
