                         Program Version 5.0.3 -  RELEASE  -
|  1> ! EnGrad PBEh-3c
|  2> %output
|  3> xyzfile=True
|  4> end
|  5> %scf
|  6> maxiter 250
|  7> end
|  8> %output
|  9> Print[P_Hirshfeld] = 1
| 10> end
| 11> % maxcore
| 12> 4000
| 13> *xyz 1 1
| 14> Ir   0.45169961  -0.67886658   0.99733824
| 15> C   -0.07844610  -2.66525027   1.71029778
| 16> C    0.89662097  -2.10192813   2.60049952
| 17> C    1.84496248  -2.35263135   0.52152090
| 18> C    0.53152286  -2.86614070   0.44918793
| 19> C    2.06058853  -1.85624347   1.84147760
| 20> N   -0.96778434   0.01790103  -0.42519692
| 21> C   -2.39671177   0.10041467   0.01206393
| 22> C   -2.86476697   1.53135069   0.25983576
| 23> H   -3.89601450   1.50857756   0.60535220
| 24> H   -2.83883532   2.12262155  -0.66210451
| 25> H   -2.26322749   2.02833570   1.03059100
| 26> C   -3.34444403  -0.61633268  -0.94106244
| 27> H   -2.43590018  -0.43213511   0.97512209
| 28> H   -4.32321681  -0.68824798  -0.48156860
| 29> H   -3.48781280  -0.07746507  -1.88167713
| 30> H   -3.01073480  -1.63803231  -1.17471060
| 31> C   -0.65713493   0.29504240  -1.63635139
| 32> C    0.65648419   0.22450334  -2.22481396
| 33> H   -1.49832867   0.56805357  -2.30602942
| 34> C    1.90771459   0.34680583  -1.76459041
| 35> C    2.92324423   0.05111395  -2.65468770
| 36> S    0.73216049   0.02593529  -3.94844862
| 37> C    2.42154479  -0.06554789  -3.92370283
| 38> H    2.16170839   0.80159261  -0.78651263
| 39> H    3.96175041   0.07305823  -2.41686137
| 40> H    3.00849903  -0.16933783  -4.82396725
| 41> H   -0.99101819  -3.15254760   2.04006143
| 42> H    0.74345731  -1.90824285   3.64056921
| 43> H    2.99251974  -1.44253376   2.21600295
| 44> O    1.60784323   1.54395230   0.81946741
| 45> O   -0.06633719   1.03988038   2.05390388
| 46> C    0.75031027   1.90091273   1.66082624
| 47> C    0.69939140   3.29999608   2.20585128
| 48> H    0.79778857   4.04755797   1.41896665
| 49> H    1.53664394   3.47577144   2.88600099
| 50> H   -0.22688515   3.50606545   2.76862037
| 51> H    2.57551341  -2.40621450  -0.26787722
| 52> H    0.08187463  -3.38545271  -0.39122668
| 53> *
| 54>
| 55>                          ****END OF INPUT****

CARTESIAN COORDINATES (ANGSTROEM)
---------------------------------
  Ir     0.451700   -0.678867    0.997338
  C     -0.078446   -2.665250    1.710298
  C      0.896621   -2.101928    2.600500
  C      1.844962   -2.352631    0.521521
  C      0.531523   -2.866141    0.449188
  C      2.060589   -1.856243    1.841478
  N     -0.967784    0.017901   -0.425197
  C     -2.396712    0.100415    0.012064
  C     -2.864767    1.531351    0.259836
  H     -3.896014    1.508578    0.605352
  H     -2.838835    2.122622   -0.662105
  H     -2.263227    2.028336    1.030591
  C     -3.344444   -0.616333   -0.941062
  H     -2.435900   -0.432135    0.975122
  H     -4.323217   -0.688248   -0.481569
  H     -3.487813   -0.077465   -1.881677
  H     -3.010735   -1.638032   -1.174711
  C     -0.657135    0.295042   -1.636351
  C      0.656484    0.224503   -2.224814
  H     -1.498329    0.568054   -2.306029
  C      1.907715    0.346806   -1.764590
  C      2.923244    0.051114   -2.654688
  S      0.732160    0.025935   -3.948449
  C      2.421545   -0.065548   -3.923703
  H      2.161708    0.801593   -0.786513
  H      3.961750    0.073058   -2.416861
  H      3.008499   -0.169338   -4.823967
  H     -0.991018   -3.152548    2.040061
  H      0.743457   -1.908243    3.640569
  H      2.992520   -1.442534    2.216003
  O      1.607843    1.543952    0.819467
  O     -0.066337    1.039880    2.053904
  C      0.750310    1.900913    1.660826
  C      0.699391    3.299996    2.205851
  H      0.797789    4.047558    1.418967
  H      1.536644    3.475771    2.886001
  H     -0.226885    3.506065    2.768620
  H      2.575513   -2.406214   -0.267877
  H      0.081875   -3.385453   -0.391227

 Total Charge           Charge          ....    1
 Multiplicity           Mult            ....    1
 Number of Electrons    NEL             ....  164
 Basis Dimension        Dim             ....  358

ORBITAL ENERGIES
----------------

  NO   OCC          E(Eh)            E(eV)
   0   2.0000     -89.739479     -2441.9354
   1   2.0000     -19.633073      -534.2431
   2   2.0000     -19.606442      -533.5184
   3   2.0000     -14.826705      -403.4551
   4   2.0000     -10.688495      -290.8487
   5   2.0000     -10.655744      -289.9575
   6   2.0000     -10.638122      -289.4780
   7   2.0000     -10.637686      -289.4661
   8   2.0000     -10.637203      -289.4530
   9   2.0000     -10.637022      -289.4481
  10   2.0000     -10.630160      -289.2614
  11   2.0000     -10.611572      -288.7556
  12   2.0000     -10.603248      -288.5291
  13   2.0000     -10.597862      -288.3825
  14   2.0000     -10.567496      -287.5562
  15   2.0000     -10.562376      -287.4169
  16   2.0000     -10.549409      -287.0640
  17   2.0000     -10.546788      -286.9927
  18   2.0000     -10.541870      -286.8589
  19   2.0000      -8.379313      -228.0127
  20   2.0000      -6.269395      -170.5989
  21   2.0000      -6.265967      -170.5056
  22   2.0000      -6.263794      -170.4465
  23   2.0000      -4.033007      -109.7437
  24   2.0000      -2.351973       -64.0004
  25   2.0000      -2.315905       -63.0190
  26   2.0000      -2.314667       -62.9853
  27   2.0000      -1.331027       -36.2191
  28   2.0000      -1.208680       -32.8899
  29   2.0000      -1.191538       -32.4234
  30   2.0000      -1.177650       -32.0455
  31   2.0000      -1.118122       -30.4257
  32   2.0000      -1.010124       -27.4869
  33   2.0000      -0.986765       -26.8512
  34   2.0000      -0.981446       -26.7065
  35   2.0000      -0.957144       -26.0452
  36   2.0000      -0.948440       -25.8084
  37   2.0000      -0.936416       -25.4812
  38   2.0000      -0.889250       -24.1977
  39   2.0000      -0.862042       -23.4573
  40   2.0000      -0.791267       -21.5315
  41   2.0000      -0.788657       -21.4605
  42   2.0000      -0.787287       -21.4232
  43   2.0000      -0.776587       -21.1320
  44   2.0000      -0.766259       -20.8510
  45   2.0000      -0.745971       -20.2989
  46   2.0000      -0.729451       -19.8494
  47   2.0000      -0.714308       -19.4373
  48   2.0000      -0.681517       -18.5450
  49   2.0000      -0.667868       -18.1736
  50   2.0000      -0.667102       -18.1528
  51   2.0000      -0.654161       -17.8006
  52   2.0000      -0.647142       -17.6096
  53   2.0000      -0.643316       -17.5055
  54   2.0000      -0.641779       -17.4637
  55   2.0000      -0.631503       -17.1841
  56   2.0000      -0.619151       -16.8480
  57   2.0000      -0.612247       -16.6601
  58   2.0000      -0.610067       -16.6008
  59   2.0000      -0.606643       -16.5076
  60   2.0000      -0.587459       -15.9856
  61   2.0000      -0.580640       -15.8000
  62   2.0000      -0.566569       -15.4171
  63   2.0000      -0.564321       -15.3560
  64   2.0000      -0.558731       -15.2038
  65   2.0000      -0.555223       -15.1084
  66   2.0000      -0.552298       -15.0288
  67   2.0000      -0.540551       -14.7092
  68   2.0000      -0.533816       -14.5259
  69   2.0000      -0.524337       -14.2679
  70   2.0000      -0.518784       -14.1168
  71   2.0000      -0.513694       -13.9783
  72   2.0000      -0.507452       -13.8085
  73   2.0000      -0.502744       -13.6804
  74   2.0000      -0.485827       -13.2200
  75   2.0000      -0.476471       -12.9654
  76   2.0000      -0.474034       -12.8991
  77   2.0000      -0.455727       -12.4010
  78   2.0000      -0.446446       -12.1484
  79   2.0000      -0.425779       -11.5860
  80   2.0000      -0.412157       -11.2154
  81   2.0000      -0.396753       -10.7962
  82   0.0000      -0.207542        -5.6475
  83   0.0000      -0.168368        -4.5815
  84   0.0000      -0.155666        -4.2359
  85   0.0000      -0.082823        -2.2537
  86   0.0000      -0.078662        -2.1405

MULLIKEN ATOMIC CHARGES
-----------------------
   0 Ir:    0.608850
   1 C :   -0.315760
   2 C :   -0.171060
   3 C :   -0.225626
   4 C :   -0.170899
   5 C :   -0.244433
   6 N :   -0.460847
   7 C :   -0.137382
   8 C :   -0.626171
   9 H :    0.250358
  10 H :    0.220541
  11 H :    0.259113
  12 C :   -0.659167
  13 H :    0.260173
  14 H :    0.265217
  15 H :    0.226915
  16 H :    0.239104
  17 C :    0.051817
  18 C :   -0.217973
  19 H :    0.269364
  20 C :   -0.248454
  21 C :   -0.142392
  22 S :    0.290692
  23 C :   -0.430298
  24 H :    0.355149
  25 H :    0.265456
  26 H :    0.293487
  27 H :    0.289196
  28 H :    0.302820
  29 H :    0.300516
  30 O :   -0.485231
  31 O :   -0.489357
  32 C :    0.644984
  33 C :   -0.773154
  34 H :    0.274741
  35 H :    0.277847
  36 H :    0.262292
  37 H :    0.297500
  38 H :    0.292074
Sum of atomic charges:    1.0000000

LOEWDIN ATOMIC CHARGES
----------------------
   0 Ir:   -0.139776
   1 C :   -0.056432
   2 C :   -0.022949
   3 C :   -0.032787
   4 C :   -0.041566
   5 C :   -0.060473
   6 N :   -0.046229
   7 C :   -0.062076
   8 C :   -0.350249
   9 H :    0.148368
  10 H :    0.133536
  11 H :    0.146168
  12 C :   -0.358488
  13 H :    0.147494
  14 H :    0.153649
  15 H :    0.133105
  16 H :    0.137016
  17 C :    0.037575
  18 C :   -0.234104
  19 H :    0.154639
  20 C :   -0.131649
  21 C :   -0.174244
  22 S :    0.447468
  23 C :   -0.248879
  24 H :    0.198181
  25 H :    0.157097
  26 H :    0.166699
  27 H :    0.185136
  28 H :    0.190843
  29 H :    0.190930
  30 O :   -0.244530
  31 O :   -0.169771
  32 C :    0.155060
  33 C :   -0.379382
  34 H :    0.166605
  35 H :    0.172145
  36 H :    0.157674
  37 H :    0.187471
  38 H :    0.186730

  Mayer bond orders larger than 0.100000
B(  0-Ir,  1-C ) :   0.5608 B(  0-Ir,  2-C ) :   0.4225 B(  0-Ir,  3-C ) :   0.4558
B(  0-Ir,  4-C ) :   0.3824 B(  0-Ir,  5-C ) :   0.4650 B(  0-Ir,  6-N ) :   0.4870
B(  0-Ir, 30-O ) :   0.3467 B(  0-Ir, 31-O ) :   0.5637 B(  1-C ,  2-C ) :   1.1298
B(  1-C ,  4-C ) :   1.1207 B(  1-C , 27-H ) :   0.9166 B(  2-C ,  5-C ) :   1.2302
B(  2-C , 28-H ) :   0.9027 B(  3-C ,  4-C ) :   1.2513 B(  3-C ,  5-C ) :   1.1057
B(  3-C , 37-H ) :   0.9049 B(  4-C , 38-H ) :   0.9089 B(  5-C , 29-H ) :   0.9047
B(  6-N ,  7-C ) :   0.8766 B(  6-N , 17-C ) :   1.6601 B(  7-C ,  8-C ) :   0.9768
B(  7-C , 12-C ) :   0.9821 B(  7-C , 13-H ) :   0.8917 B(  8-C ,  9-H ) :   0.9064
B(  8-C , 10-H ) :   0.9175 B(  8-C , 11-H ) :   0.9060 B( 12-C , 14-H ) :   0.9047
B( 12-C , 15-H ) :   0.9133 B( 12-C , 16-H ) :   0.9193 B( 17-C , 18-C ) :   1.0958
B( 17-C , 19-H ) :   0.8794 B( 18-C , 20-C ) :   1.4276 B( 18-C , 22-S ) :   1.1451
B( 20-C , 21-C ) :   1.3270 B( 20-C , 24-H ) :   0.8024 B( 21-C , 23-C ) :   1.4659
B( 21-C , 25-H ) :   0.9041 B( 22-S , 23-C ) :   1.2784 B( 23-C , 26-H ) :   0.8938
B( 30-O , 32-C ) :   1.5501 B( 31-O , 32-C ) :   1.3655 B( 32-C , 33-C ) :   0.9461
B( 33-C , 34-H ) :   0.8986 B( 33-C , 35-H ) :   0.8934 B( 33-C , 36-H ) :   0.9072

Dispersion correction           -0.029287914
FINAL SINGLE POINT ENERGY     -1288.392635331113
Dispersion correction            ... done

DIPOLE MOMENT
-------------
                                X             Y             Z
Electronic contribution:     23.94606     -65.24416     122.65215
Nuclear contribution   :    -24.14311      64.15023    -122.75757
                        -----------------------------------------
Total Dipole Moment    :     -0.19705      -1.09394      -0.10541
                        -----------------------------------------
Magnitude (a.u.)       :      1.11653
Magnitude (Debye)      :      2.83799

Rotational constants in cm-1:     0.011019     0.007690     0.006987
Rotational constants in MHz :   330.356216   230.525759   209.453427

                             ****ORCA TERMINATED NORMALLY****
TOTAL RUN TIME: 0 days 0 hours 17 minutes 48 seconds 593 msec
