                         Program Version 5.0.3 -  RELEASE  -
|  1> ! EnGrad PBEh-3c
|  2> %output
|  3> xyzfile=True
|  4> end
|  5> %scf
|  6> maxiter 250
|  7> end
|  8> %output
|  9> Print[P_Hirshfeld] = 1
| 10> end
| 11> % maxcore
| 12> 4000
| 13> *xyz 1 1
| 14> Ir   0.45561026  -0.68092359   1.00199352
| 15> C   -0.08256270  -2.66634124   1.69253241
| 16> C    0.87815649  -2.10556508   2.60018100
| 17> C    1.86759299  -2.36052503   0.54120418
| 18> C    0.56056175  -2.87230623   0.43978522
| 19> C    2.05810622  -1.85143687   1.87169308
| 20> N   -0.96847775   0.01319566  -0.42524905
| 21> C   -2.39970732   0.09248302   0.01544256
| 22> C   -2.86095723   1.52584549   0.27959908
| 23> H   -3.89877532   1.49401173   0.61629273
| 24> H   -2.84011152   2.12509869  -0.63722610
| 25> H   -2.26003540   2.00925859   1.05789075
| 26> C   -3.34727799  -0.61454806  -0.94899575
| 27> H   -2.43665020  -0.45133718   0.96936639
| 28> H   -4.32727298  -0.68688827  -0.48365263
| 29> H   -3.49527046  -0.06177303  -1.87975218
| 30> H   -3.01859122  -1.63179538  -1.19325144
| 31> C   -0.66507177   0.29960572  -1.63700126
| 32> C    0.63927443   0.23372111  -2.23513140
| 33> H   -1.49729310   0.56682047  -2.30701049
| 34> C    1.92401958   0.38172986  -1.75484866
| 35> C    2.92422935   0.05026298  -2.66206859
| 36> S    0.72669675   0.02010551  -3.94478293
| 37> C    2.41974291  -0.07461233  -3.92655080
| 38> H    2.13477993   0.76055244  -0.78565415
| 39> H    3.96137973   0.06521281  -2.40988245
| 40> H    3.00216437  -0.16455088  -4.82332427
| 41> H   -1.00655281  -3.14480197   1.99978232
| 42> H    0.69832299  -1.89678090   3.63719233
| 43> H    2.97823507  -1.43166025   2.26248648
| 44> O    1.61157473   1.53086565   0.80833872
| 45> O   -0.06761016   1.03930293   2.05310845
| 46> C    0.77036391   1.90794798   1.64157614
| 47> C    0.70467970   3.30259681   2.19405868
| 48> H    0.79804172   4.05090795   1.40936809
| 49> H    1.54480806   3.47940801   2.86835304
| 50> H   -0.21501429   3.50852880   2.75986277
| 51> H    2.60481171  -2.37931155  -0.24682246
| 52> H    0.11916173  -3.37396121  -0.41593930
| 53> *
| 54>
| 55>                          ****END OF INPUT****

CARTESIAN COORDINATES (ANGSTROEM)
---------------------------------
  Ir     0.455610   -0.680924    1.001994
  C     -0.082563   -2.666341    1.692532
  C      0.878156   -2.105565    2.600181
  C      1.867593   -2.360525    0.541204
  C      0.560562   -2.872306    0.439785
  C      2.058106   -1.851437    1.871693
  N     -0.968478    0.013196   -0.425249
  C     -2.399707    0.092483    0.015443
  C     -2.860957    1.525845    0.279599
  H     -3.898775    1.494012    0.616293
  H     -2.840112    2.125099   -0.637226
  H     -2.260035    2.009259    1.057891
  C     -3.347278   -0.614548   -0.948996
  H     -2.436650   -0.451337    0.969366
  H     -4.327273   -0.686888   -0.483653
  H     -3.495270   -0.061773   -1.879752
  H     -3.018591   -1.631795   -1.193251
  C     -0.665072    0.299606   -1.637001
  C      0.639274    0.233721   -2.235131
  H     -1.497293    0.566820   -2.307010
  C      1.924020    0.381730   -1.754849
  C      2.924229    0.050263   -2.662069
  S      0.726697    0.020106   -3.944783
  C      2.419743   -0.074612   -3.926551
  H      2.134780    0.760552   -0.785654
  H      3.961380    0.065213   -2.409882
  H      3.002164   -0.164551   -4.823324
  H     -1.006553   -3.144802    1.999782
  H      0.698323   -1.896781    3.637192
  H      2.978235   -1.431660    2.262486
  O      1.611575    1.530866    0.808339
  O     -0.067610    1.039303    2.053108
  C      0.770364    1.907948    1.641576
  C      0.704680    3.302597    2.194059
  H      0.798042    4.050908    1.409368
  H      1.544808    3.479408    2.868353
  H     -0.215014    3.508529    2.759863
  H      2.604812   -2.379312   -0.246822
  H      0.119162   -3.373961   -0.415939

 Total Charge           Charge          ....    1
 Multiplicity           Mult            ....    1
 Number of Electrons    NEL             ....  164
 Basis Dimension        Dim             ....  358

ORBITAL ENERGIES
----------------

  NO   OCC          E(Eh)            E(eV)
   0   2.0000     -89.741177     -2441.9816
   1   2.0000     -19.630648      -534.1771
   2   2.0000     -19.610982      -533.6419
   3   2.0000     -14.825535      -403.4233
   4   2.0000     -10.690964      -290.9159
   5   2.0000     -10.653796      -289.9045
   6   2.0000     -10.638936      -289.5002
   7   2.0000     -10.638215      -289.4805
   8   2.0000     -10.637484      -289.4607
   9   2.0000     -10.637041      -289.4486
  10   2.0000     -10.630674      -289.2753
  11   2.0000     -10.610938      -288.7383
  12   2.0000     -10.605221      -288.5827
  13   2.0000     -10.598069      -288.3881
  14   2.0000     -10.569410      -287.6083
  15   2.0000     -10.564267      -287.4683
  16   2.0000     -10.548969      -287.0520
  17   2.0000     -10.547778      -287.0196
  18   2.0000     -10.541470      -286.8480
  19   2.0000      -8.380918      -228.0564
  20   2.0000      -6.270964      -170.6416
  21   2.0000      -6.267543      -170.5485
  22   2.0000      -6.265509      -170.4932
  23   2.0000      -4.032181      -109.7212
  24   2.0000      -2.350973       -63.9732
  25   2.0000      -2.315082       -62.9966
  26   2.0000      -2.313924       -62.9651
  27   2.0000      -1.326194       -36.0876
  28   2.0000      -1.208664       -32.8894
  29   2.0000      -1.189542       -32.3691
  30   2.0000      -1.175848       -31.9964
  31   2.0000      -1.114865       -30.3370
  32   2.0000      -1.008837       -27.4519
  33   2.0000      -0.986946       -26.8562
  34   2.0000      -0.979582       -26.6558
  35   2.0000      -0.958212       -26.0743
  36   2.0000      -0.946403       -25.7529
  37   2.0000      -0.938457       -25.5367
  38   2.0000      -0.888363       -24.1736
  39   2.0000      -0.861286       -23.4368
  40   2.0000      -0.790903       -21.5216
  41   2.0000      -0.788555       -21.4577
  42   2.0000      -0.787306       -21.4237
  43   2.0000      -0.775467       -21.1015
  44   2.0000      -0.765298       -20.8248
  45   2.0000      -0.746648       -20.3173
  46   2.0000      -0.730606       -19.8808
  47   2.0000      -0.714317       -19.4376
  48   2.0000      -0.680616       -18.5205
  49   2.0000      -0.668297       -18.1853
  50   2.0000      -0.666676       -18.1412
  51   2.0000      -0.653300       -17.7772
  52   2.0000      -0.645850       -17.5745
  53   2.0000      -0.642324       -17.4785
  54   2.0000      -0.640542       -17.4300
  55   2.0000      -0.629919       -17.1410
  56   2.0000      -0.617654       -16.8072
  57   2.0000      -0.611730       -16.6460
  58   2.0000      -0.609798       -16.5934
  59   2.0000      -0.605143       -16.4668
  60   2.0000      -0.587637       -15.9904
  61   2.0000      -0.579636       -15.7727
  62   2.0000      -0.569372       -15.4934
  63   2.0000      -0.563970       -15.3464
  64   2.0000      -0.557575       -15.1724
  65   2.0000      -0.556480       -15.1426
  66   2.0000      -0.554112       -15.0782
  67   2.0000      -0.540820       -14.7165
  68   2.0000      -0.533193       -14.5089
  69   2.0000      -0.524830       -14.2814
  70   2.0000      -0.518998       -14.1226
  71   2.0000      -0.515448       -14.0261
  72   2.0000      -0.507313       -13.8047
  73   2.0000      -0.502972       -13.6866
  74   2.0000      -0.486833       -13.2474
  75   2.0000      -0.478504       -13.0208
  76   2.0000      -0.475005       -12.9256
  77   2.0000      -0.455302       -12.3894
  78   2.0000      -0.445328       -12.1180
  79   2.0000      -0.425610       -11.5814
  80   2.0000      -0.413267       -11.2456
  81   2.0000      -0.394587       -10.7373
  82   0.0000      -0.206424        -5.6171
  83   0.0000      -0.169674        -4.6171
  84   0.0000      -0.154899        -4.2150
  85   0.0000      -0.082679        -2.2498
  86   0.0000      -0.078021        -2.1231

MULLIKEN ATOMIC CHARGES
-----------------------
   0 Ir:    0.605053
   1 C :   -0.318647
   2 C :   -0.168326
   3 C :   -0.218324
   4 C :   -0.172455
   5 C :   -0.253417
   6 N :   -0.459423
   7 C :   -0.135783
   8 C :   -0.626545
   9 H :    0.248376
  10 H :    0.220567
  11 H :    0.260924
  12 C :   -0.660607
  13 H :    0.259572
  14 H :    0.263850
  15 H :    0.227467
  16 H :    0.240263
  17 C :    0.055833
  18 C :   -0.234346
  19 H :    0.268532
  20 C :   -0.239101
  21 C :   -0.144938
  22 S :    0.299317
  23 C :   -0.428005
  24 H :    0.350974
  25 H :    0.264346
  26 H :    0.294276
  27 H :    0.289256
  28 H :    0.304555
  29 H :    0.300543
  30 O :   -0.473444
  31 O :   -0.505950
  32 C :    0.647978
  33 C :   -0.774638
  34 H :    0.274746
  35 H :    0.278255
  36 H :    0.267307
  37 H :    0.298939
  38 H :    0.293020
Sum of atomic charges:    1.0000000

LOEWDIN ATOMIC CHARGES
----------------------
   0 Ir:   -0.140261
   1 C :   -0.056614
   2 C :   -0.022942
   3 C :   -0.030268
   4 C :   -0.043026
   5 C :   -0.062347
   6 N :   -0.047590
   7 C :   -0.060831
   8 C :   -0.350480
   9 H :    0.147749
  10 H :    0.133396
  11 H :    0.147096
  12 C :   -0.359250
  13 H :    0.147037
  14 H :    0.153454
  15 H :    0.133234
  16 H :    0.137325
  17 C :    0.034071
  18 C :   -0.239019
  19 H :    0.153835
  20 C :   -0.123661
  21 C :   -0.172843
  22 S :    0.455214
  23 C :   -0.250586
  24 H :    0.187028
  25 H :    0.156956
  26 H :    0.166943
  27 H :    0.185192
  28 H :    0.191628
  29 H :    0.190975
  30 O :   -0.229872
  31 O :   -0.190449
  32 C :    0.165207
  33 C :   -0.379721
  34 H :    0.166593
  35 H :    0.172514
  36 H :    0.159819
  37 H :    0.187566
  38 H :    0.186928

  Mayer bond orders larger than 0.100000
B(  0-Ir,  1-C ) :   0.5701 B(  0-Ir,  2-C ) :   0.4228 B(  0-Ir,  3-C ) :   0.4443
B(  0-Ir,  4-C ) :   0.3756 B(  0-Ir,  5-C ) :   0.4696 B(  0-Ir,  6-N ) :   0.4856
B(  0-Ir, 30-O ) :   0.3343 B(  0-Ir, 31-O ) :   0.5819 B(  1-C ,  2-C ) :   1.1279
B(  1-C ,  4-C ) :   1.1150 B(  1-C , 27-H ) :   0.9163 B(  2-C ,  5-C ) :   1.2293
B(  2-C , 28-H ) :   0.9008 B(  3-C ,  4-C ) :   1.2636 B(  3-C ,  5-C ) :   1.1038
B(  3-C , 37-H ) :   0.9018 B(  4-C , 38-H ) :   0.9076 B(  5-C , 29-H ) :   0.9049
B(  6-N ,  7-C ) :   0.8761 B(  6-N , 17-C ) :   1.6593 B(  7-C ,  8-C ) :   0.9766
B(  7-C , 12-C ) :   0.9824 B(  7-C , 13-H ) :   0.8921 B(  8-C ,  9-H ) :   0.9069
B(  8-C , 10-H ) :   0.9175 B(  8-C , 11-H ) :   0.9048 B( 12-C , 14-H ) :   0.9053
B( 12-C , 15-H ) :   0.9133 B( 12-C , 16-H ) :   0.9188 B( 17-C , 18-C ) :   1.1017
B( 17-C , 19-H ) :   0.8797 B( 18-C , 20-C ) :   1.4091 B( 18-C , 22-S ) :   1.1548
B( 20-C , 21-C ) :   1.3366 B( 20-C , 24-H ) :   0.8101 B( 21-C , 23-C ) :   1.4569
B( 21-C , 25-H ) :   0.9048 B( 22-S , 23-C ) :   1.2784 B( 23-C , 26-H ) :   0.8944
B( 30-O , 32-C ) :   1.5781 B( 31-O , 32-C ) :   1.3267 B( 32-C , 33-C ) :   0.9480
B( 33-C , 34-H ) :   0.8978 B( 33-C , 35-H ) :   0.8926 B( 33-C , 36-H ) :   0.9057

Dispersion correction           -0.029315410
FINAL SINGLE POINT ENERGY     -1288.397393335270
Dispersion correction            ... done

DIPOLE MOMENT
-------------
                                X             Y             Z
Electronic contribution:     24.31305     -65.34083     123.09638
Nuclear contribution   :    -24.47254      64.29800    -123.22818
                        -----------------------------------------
Total Dipole Moment    :     -0.15949      -1.04282      -0.13180
                        -----------------------------------------
Magnitude (a.u.)       :      1.06315
Magnitude (Debye)      :      2.70232

Rotational constants in cm-1:     0.011000     0.007683     0.006981
Rotational constants in MHz :   329.767093   230.338916   209.272760

                             ****ORCA TERMINATED NORMALLY****
TOTAL RUN TIME: 0 days 0 hours 18 minutes 20 seconds 724 msec
