                         Program Version 5.0.3 -  RELEASE  -
|  1> ! EnGrad PBEh-3c
|  2> %output
|  3> xyzfile=True
|  4> end
|  5> %scf
|  6> maxiter 250
|  7> end
|  8> %output
|  9> Print[P_Hirshfeld] = 1
| 10> end
| 11> % maxcore
| 12> 4000
| 13> *xyz 1 1
| 14> Ir   0.46702611  -0.69354884   1.00462144
| 15> C   -0.09217456  -2.67026252   1.65200203
| 16> C    0.83374292  -2.10876155   2.59767512
| 17> C    1.91751043  -2.36869264   0.58751679
| 18> C    0.62767735  -2.88171727   0.42032131
| 19> C    2.05048395  -1.84262230   1.94043257
| 20> N   -0.96929916   0.00330971  -0.41834452
| 21> C   -2.40249986   0.07275496   0.02189910
| 22> C   -2.85357071   1.50758026   0.32497839
| 23> H   -3.90257359   1.46152031   0.64395717
| 24> H   -2.84060466   2.13064115  -0.57569455
| 25> H   -2.25553134   1.96329289   1.11873037
| 26> C   -3.35537991  -0.60802766  -0.96560946
| 27> H   -2.43845147  -0.49489538   0.95321635
| 28> H   -4.33650645  -0.68444263  -0.48930972
| 29> H   -3.51238912  -0.02530911  -1.87525467
| 30> H   -3.03731182  -1.61487496  -1.23668585
| 31> C   -0.68409484   0.30769318  -1.63690071
| 32> C    0.62954507   0.26706751  -2.25205965
| 33> H   -1.49499636   0.56370044  -2.30921621
| 34> C    1.91682977   0.42173645  -1.76688344
| 35> C    2.92055590   0.06544969  -2.67688564
| 36> S    0.71607754   0.00480043  -3.94185558
| 37> C    2.41239303  -0.09633725  -3.92590190
| 38> H    2.08573174   0.68238900  -0.75735159
| 39> H    3.96615210   0.04542208  -2.39572261
| 40> H    2.98869898  -0.15715200  -4.82711241
| 41> H   -1.04197901  -3.12367386   1.90262966
| 42> H    0.59169441  -1.87150306   3.63041872
| 43> H    2.94203766  -1.40699438   2.37093885
| 44> O    1.61715194   1.50626063   0.78986964
| 45> O   -0.05493541   1.04737476   2.04374046
| 46> C    0.79915263   1.90782828   1.60466925
| 47> C    0.71841048   3.31014705   2.16607096
| 48> H    0.79932492   4.05922117   1.38435784
| 49> H    1.56521841   3.48758243   2.82737727
| 50> H   -0.18472010   3.50970607   2.73633965
| 51> H    2.67359492  -2.31680931  -0.19390126
| 52> H    0.21036379  -3.34647419  -0.47202180
| 53> *
| 54>
| 55>                          ****END OF INPUT****

CARTESIAN COORDINATES (ANGSTROEM)
---------------------------------
  Ir     0.467026   -0.693549    1.004621
  C     -0.092175   -2.670263    1.652002
  C      0.833743   -2.108762    2.597675
  C      1.917510   -2.368693    0.587517
  C      0.627677   -2.881717    0.420321
  C      2.050484   -1.842622    1.940433
  N     -0.969299    0.003310   -0.418345
  C     -2.402500    0.072755    0.021899
  C     -2.853571    1.507580    0.324978
  H     -3.902574    1.461520    0.643957
  H     -2.840605    2.130641   -0.575695
  H     -2.255531    1.963293    1.118730
  C     -3.355380   -0.608028   -0.965609
  H     -2.438451   -0.494895    0.953216
  H     -4.336506   -0.684443   -0.489310
  H     -3.512389   -0.025309   -1.875255
  H     -3.037312   -1.614875   -1.236686
  C     -0.684095    0.307693   -1.636901
  C      0.629545    0.267068   -2.252060
  H     -1.494996    0.563700   -2.309216
  C      1.916830    0.421736   -1.766883
  C      2.920556    0.065450   -2.676886
  S      0.716078    0.004800   -3.941856
  C      2.412393   -0.096337   -3.925902
  H      2.085732    0.682389   -0.757352
  H      3.966152    0.045422   -2.395723
  H      2.988699   -0.157152   -4.827112
  H     -1.041979   -3.123674    1.902630
  H      0.591694   -1.871503    3.630419
  H      2.942038   -1.406994    2.370939
  O      1.617152    1.506261    0.789870
  O     -0.054935    1.047375    2.043740
  C      0.799153    1.907828    1.604669
  C      0.718410    3.310147    2.166071
  H      0.799325    4.059221    1.384358
  H      1.565218    3.487582    2.827377
  H     -0.184720    3.509706    2.736340
  H      2.673595   -2.316809   -0.193901
  H      0.210364   -3.346474   -0.472022

 Total Charge           Charge          ....    1
 Multiplicity           Mult            ....    1
 Number of Electrons    NEL             ....  164
 Basis Dimension        Dim             ....  358

ORBITAL ENERGIES
----------------

  NO   OCC          E(Eh)            E(eV)
   0   2.0000     -89.739473     -2441.9352
   1   2.0000     -19.627818      -534.1001
   2   2.0000     -19.615147      -533.7553
   3   2.0000     -14.827432      -403.4749
   4   2.0000     -10.691607      -290.9334
   5   2.0000     -10.654855      -289.9333
   6   2.0000     -10.644289      -289.6458
   7   2.0000     -10.640992      -289.5561
   8   2.0000     -10.640165      -289.5336
   9   2.0000     -10.639799      -289.5236
  10   2.0000     -10.633698      -289.3576
  11   2.0000     -10.611306      -288.7483
  12   2.0000     -10.604820      -288.5718
  13   2.0000     -10.595403      -288.3156
  14   2.0000     -10.568266      -287.5771
  15   2.0000     -10.565640      -287.5057
  16   2.0000     -10.549710      -287.0722
  17   2.0000     -10.547146      -287.0024
  18   2.0000     -10.541966      -286.8615
  19   2.0000      -8.379420      -228.0156
  20   2.0000      -6.269462      -170.6007
  21   2.0000      -6.266010      -170.5068
  22   2.0000      -6.264053      -170.4536
  23   2.0000      -4.033266      -109.7507
  24   2.0000      -2.351911       -63.9987
  25   2.0000      -2.316244       -63.0282
  26   2.0000      -2.315190       -62.9995
  27   2.0000      -1.329947       -36.1897
  28   2.0000      -1.210610       -32.9424
  29   2.0000      -1.187708       -32.3192
  30   2.0000      -1.174248       -31.9529
  31   2.0000      -1.114075       -30.3155
  32   2.0000      -1.006882       -27.3987
  33   2.0000      -0.989428       -26.9237
  34   2.0000      -0.978094       -26.6153
  35   2.0000      -0.957572       -26.0568
  36   2.0000      -0.943869       -25.6840
  37   2.0000      -0.937673       -25.5154
  38   2.0000      -0.888319       -24.1724
  39   2.0000      -0.861937       -23.4545
  40   2.0000      -0.791210       -21.5299
  41   2.0000      -0.789489       -21.4831
  42   2.0000      -0.787526       -21.4297
  43   2.0000      -0.774659       -21.0795
  44   2.0000      -0.763624       -20.7793
  45   2.0000      -0.747942       -20.3525
  46   2.0000      -0.730370       -19.8744
  47   2.0000      -0.711961       -19.3734
  48   2.0000      -0.680380       -18.5141
  49   2.0000      -0.670077       -18.2337
  50   2.0000      -0.667332       -18.1590
  51   2.0000      -0.654279       -17.8038
  52   2.0000      -0.646729       -17.5984
  53   2.0000      -0.642860       -17.4931
  54   2.0000      -0.640575       -17.4309
  55   2.0000      -0.628546       -17.1036
  56   2.0000      -0.616890       -16.7864
  57   2.0000      -0.612343       -16.6627
  58   2.0000      -0.609824       -16.5941
  59   2.0000      -0.603361       -16.4183
  60   2.0000      -0.588185       -16.0053
  61   2.0000      -0.577403       -15.7119
  62   2.0000      -0.572407       -15.5760
  63   2.0000      -0.563027       -15.3207
  64   2.0000      -0.557899       -15.1812
  65   2.0000      -0.556360       -15.1393
  66   2.0000      -0.554301       -15.0833
  67   2.0000      -0.541268       -14.7287
  68   2.0000      -0.533615       -14.5204
  69   2.0000      -0.525003       -14.2861
  70   2.0000      -0.520946       -14.1757
  71   2.0000      -0.514207       -13.9923
  72   2.0000      -0.507487       -13.8094
  73   2.0000      -0.503536       -13.7019
  74   2.0000      -0.488610       -13.2957
  75   2.0000      -0.480124       -13.0648
  76   2.0000      -0.475620       -12.9423
  77   2.0000      -0.456485       -12.4216
  78   2.0000      -0.446535       -12.1508
  79   2.0000      -0.427730       -11.6391
  80   2.0000      -0.412963       -11.2373
  81   2.0000      -0.395044       -10.7497
  82   0.0000      -0.205854        -5.6016
  83   0.0000      -0.169789        -4.6202
  84   0.0000      -0.155619        -4.2346
  85   0.0000      -0.083070        -2.2604
  86   0.0000      -0.078460        -2.1350

MULLIKEN ATOMIC CHARGES
-----------------------
   0 Ir:    0.594767
   1 C :   -0.320416
   2 C :   -0.168620
   3 C :   -0.208877
   4 C :   -0.176300
   5 C :   -0.261072
   6 N :   -0.458690
   7 C :   -0.134162
   8 C :   -0.628303
   9 H :    0.245905
  10 H :    0.221816
  11 H :    0.264690
  12 C :   -0.664223
  13 H :    0.258149
  14 H :    0.262411
  15 H :    0.229065
  16 H :    0.242736
  17 C :    0.062295
  18 C :   -0.233100
  19 H :    0.270953
  20 C :   -0.221606
  21 C :   -0.149451
  22 S :    0.296425
  23 C :   -0.426983
  24 H :    0.327182
  25 H :    0.262993
  26 H :    0.293046
  27 H :    0.290642
  28 H :    0.308764
  29 H :    0.302345
  30 O :   -0.455740
  31 O :   -0.514358
  32 C :    0.639930
  33 C :   -0.774173
  34 H :    0.273349
  35 H :    0.276789
  36 H :    0.272351
  37 H :    0.303088
  38 H :    0.296382
Sum of atomic charges:    1.0000000

LOEWDIN ATOMIC CHARGES
----------------------
   0 Ir:   -0.143240
   1 C :   -0.055524
   2 C :   -0.021385
   3 C :   -0.023548
   4 C :   -0.046226
   5 C :   -0.064707
   6 N :   -0.048003
   7 C :   -0.060163
   8 C :   -0.350980
   9 H :    0.147007
  10 H :    0.133651
  11 H :    0.148805
  12 C :   -0.360601
  13 H :    0.145781
  14 H :    0.153540
  15 H :    0.133814
  16 H :    0.137891
  17 C :    0.037091
  18 C :   -0.242446
  19 H :    0.153797
  20 C :   -0.125379
  21 C :   -0.171813
  22 S :    0.453952
  23 C :   -0.254346
  24 H :    0.181524
  25 H :    0.157638
  26 H :    0.166815
  27 H :    0.185832
  28 H :    0.194372
  29 H :    0.192117
  30 O :   -0.208364
  31 O :   -0.204993
  32 C :    0.163720
  33 C :   -0.380550
  34 H :    0.165224
  35 H :    0.171344
  36 H :    0.160512
  37 H :    0.189472
  38 H :    0.188369

  Mayer bond orders larger than 0.100000
B(  0-Ir,  1-C ) :   0.5848 B(  0-Ir,  2-C ) :   0.4307 B(  0-Ir,  3-C ) :   0.4317
B(  0-Ir,  4-C ) :   0.3709 B(  0-Ir,  5-C ) :   0.4765 B(  0-Ir,  6-N ) :   0.4794
B(  0-Ir, 30-O ) :   0.3196 B(  0-Ir, 31-O ) :   0.5973 B(  1-C ,  2-C ) :   1.1219
B(  1-C ,  4-C ) :   1.1060 B(  1-C , 27-H ) :   0.9146 B(  2-C ,  5-C ) :   1.2239
B(  2-C , 28-H ) :   0.8966 B(  3-C ,  4-C ) :   1.2771 B(  3-C ,  5-C ) :   1.1001
B(  3-C , 37-H ) :   0.8952 B(  4-C , 38-H ) :   0.9039 B(  5-C , 29-H ) :   0.9040
B(  6-N ,  7-C ) :   0.8766 B(  6-N , 17-C ) :   1.6681 B(  7-C ,  8-C ) :   0.9758
B(  7-C , 12-C ) :   0.9831 B(  7-C , 13-H ) :   0.8930 B(  8-C ,  9-H ) :   0.9075
B(  8-C , 10-H ) :   0.9171 B(  8-C , 11-H ) :   0.9023 B( 12-C , 14-H ) :   0.9060
B( 12-C , 15-H ) :   0.9133 B( 12-C , 16-H ) :   0.9176 B( 17-C , 18-C ) :   1.0951
B( 17-C , 19-H ) :   0.8783 B( 18-C , 20-C ) :   1.4068 B( 18-C , 22-S ) :   1.1585
B( 20-C , 21-C ) :   1.3285 B( 20-C , 24-H ) :   0.8288 B( 21-C , 23-C ) :   1.4647
B( 21-C , 25-H ) :   0.9052 B( 22-S , 23-C ) :   1.2707 B( 23-C , 26-H ) :   0.8950
B( 30-O , 32-C ) :   1.6128 B( 31-O , 32-C ) :   1.2981 B( 32-C , 33-C ) :   0.9471
B( 33-C , 34-H ) :   0.8983 B( 33-C , 35-H ) :   0.8935 B( 33-C , 36-H ) :   0.9039

Dispersion correction           -0.029314214
FINAL SINGLE POINT ENERGY     -1288.395150693678
Dispersion correction            ... done

DIPOLE MOMENT
-------------
                                X             Y             Z
Electronic contribution:     25.32374     -66.43700     123.48530
Nuclear contribution   :    -25.50295      65.40110    -123.57284
                        -----------------------------------------
Total Dipole Moment    :     -0.17921      -1.03591      -0.08753
                        -----------------------------------------
Magnitude (a.u.)       :      1.05493
Magnitude (Debye)      :      2.68143

Rotational constants in cm-1:     0.010973     0.007677     0.006973
Rotational constants in MHz :   328.965459   230.139053   209.035451

                             ****ORCA TERMINATED NORMALLY****
TOTAL RUN TIME: 0 days 0 hours 17 minutes 50 seconds 636 msec
