                         Program Version 5.0.3 -  RELEASE  -
|  1> ! EnGrad PBEh-3c
|  2> %output
|  3> xyzfile=True
|  4> end
|  5> %scf
|  6> maxiter 250
|  7> end
|  8> %output
|  9> Print[P_Hirshfeld] = 1
| 10> end
| 11> % maxcore
| 12> 4000
| 13> *xyz 1 1
| 14> Ir   0.45850605  -0.68412617   1.00266013
| 15> C   -0.08500088  -2.66733593   1.68225129
| 16> C    0.86689034  -2.10637591   2.59954535
| 17> C    1.88025528  -2.36259687   0.55295205
| 18> C    0.57758660  -2.87469348   0.43484792
| 19> C    2.05617272  -1.84920092   1.88912986
| 20> N   -0.96868611   0.01068795  -0.42349761
| 21> C   -2.40041569   0.08747871   0.01708036
| 22> C   -2.85908353   1.52121225   0.29111021
| 23> H   -3.89973880   1.48576980   0.62331022
| 24> H   -2.84023661   2.12650461  -0.62161772
| 25> H   -2.25889288   1.99759872   1.07332361
| 26> C   -3.34933316  -0.61289406  -0.95321006
| 27> H   -2.43710712  -0.46238635   0.96526969
| 28> H   -4.32961519  -0.68626790  -0.48508763
| 29> H   -3.49961286  -0.05252342  -1.87861132
| 30> H   -3.02333997  -1.62750327  -1.20426921
| 31> C   -0.66989725   0.30165723  -1.63697575
| 32> C    0.63680643   0.24217991  -2.23942550
| 33> H   -1.49671050   0.56602903  -2.30757000
| 34> C    1.92219578   0.39187812  -1.75790146
| 35> C    2.92329753   0.05411531  -2.66582715
| 36> S    0.72400303   0.01622315  -3.94404036
| 37> C    2.41787851  -0.08012317  -3.92638619
| 38> H    2.12233813   0.74072514  -0.77847479
| 39> H    3.96259031   0.06019260  -2.40629060
| 40> H    2.99874867  -0.16267405  -4.82428519
| 41> H   -1.01553919  -3.13944251   1.97513813
| 42> H    0.67127509  -1.89036881   3.63547410
| 43> H    2.96905307  -1.42540339   2.28999701
| 44> O    1.61298947   1.52462423   0.80365377
| 45> O   -0.06439503   1.04135046   2.05073212
| 46> C    0.77766659   1.90791762   1.63221417
| 47> C    0.70816271   3.30451204   2.18695918
| 48> H    0.79836722   4.05301672   1.40302387
| 49> H    1.54998544   3.48148157   2.85795893
| 50> H   -0.20732972   3.50882743   2.75389578
| 51> H    2.62225958  -2.36345694  -0.23339822
| 52> H    0.14229647  -3.36698873  -0.43016544
| 53> *
| 54>
| 55>                          ****END OF INPUT****

CARTESIAN COORDINATES (ANGSTROEM)
---------------------------------
  Ir     0.458506   -0.684126    1.002660
  C     -0.085001   -2.667336    1.682251
  C      0.866890   -2.106376    2.599545
  C      1.880255   -2.362597    0.552952
  C      0.577587   -2.874693    0.434848
  C      2.056173   -1.849201    1.889130
  N     -0.968686    0.010688   -0.423498
  C     -2.400416    0.087479    0.017080
  C     -2.859084    1.521212    0.291110
  H     -3.899739    1.485770    0.623310
  H     -2.840237    2.126505   -0.621618
  H     -2.258893    1.997599    1.073324
  C     -3.349333   -0.612894   -0.953210
  H     -2.437107   -0.462386    0.965270
  H     -4.329615   -0.686268   -0.485088
  H     -3.499613   -0.052523   -1.878611
  H     -3.023340   -1.627503   -1.204269
  C     -0.669897    0.301657   -1.636976
  C      0.636806    0.242180   -2.239425
  H     -1.496711    0.566029   -2.307570
  C      1.922196    0.391878   -1.757901
  C      2.923298    0.054115   -2.665827
  S      0.724003    0.016223   -3.944040
  C      2.417879   -0.080123   -3.926386
  H      2.122338    0.740725   -0.778475
  H      3.962590    0.060193   -2.406291
  H      2.998749   -0.162674   -4.824285
  H     -1.015539   -3.139443    1.975138
  H      0.671275   -1.890369    3.635474
  H      2.969053   -1.425403    2.289997
  O      1.612989    1.524624    0.803654
  O     -0.064395    1.041350    2.050732
  C      0.777667    1.907918    1.632214
  C      0.708163    3.304512    2.186959
  H      0.798367    4.053017    1.403024
  H      1.549985    3.481482    2.857959
  H     -0.207330    3.508827    2.753896
  H      2.622260   -2.363457   -0.233398
  H      0.142296   -3.366989   -0.430165

 Total Charge           Charge          ....    1
 Multiplicity           Mult            ....    1
 Number of Electrons    NEL             ....  164
 Basis Dimension        Dim             ....  358

ORBITAL ENERGIES
----------------

  NO   OCC          E(Eh)            E(eV)
   0   2.0000     -89.740723     -2441.9692
   1   2.0000     -19.629927      -534.1575
   2   2.0000     -19.612022      -533.6703
   3   2.0000     -14.825998      -403.4359
   4   2.0000     -10.691111      -290.9199
   5   2.0000     -10.654053      -289.9115
   6   2.0000     -10.640211      -289.5349
   7   2.0000     -10.638829      -289.4972
   8   2.0000     -10.638026      -289.4754
   9   2.0000     -10.637742      -289.4677
  10   2.0000     -10.631348      -289.2937
  11   2.0000     -10.610995      -288.7399
  12   2.0000     -10.605087      -288.5791
  13   2.0000     -10.597373      -288.3692
  14   2.0000     -10.569016      -287.5976
  15   2.0000     -10.564576      -287.4767
  16   2.0000     -10.549122      -287.0562
  17   2.0000     -10.547595      -287.0146
  18   2.0000     -10.541556      -286.8503
  19   2.0000      -8.380514      -228.0454
  20   2.0000      -6.270560      -170.6306
  21   2.0000      -6.267132      -170.5373
  22   2.0000      -6.265116      -170.4825
  23   2.0000      -4.032457      -109.7287
  24   2.0000      -2.351222       -63.9800
  25   2.0000      -2.315377       -63.0046
  26   2.0000      -2.314241       -62.9737
  27   2.0000      -1.326926       -36.1075
  28   2.0000      -1.209390       -32.9092
  29   2.0000      -1.189099       -32.3570
  30   2.0000      -1.175629       -31.9905
  31   2.0000      -1.114679       -30.3320
  32   2.0000      -1.008356       -27.4388
  33   2.0000      -0.987671       -26.8759
  34   2.0000      -0.979309       -26.6483
  35   2.0000      -0.958053       -26.0700
  36   2.0000      -0.945786       -25.7361
  37   2.0000      -0.938255       -25.5312
  38   2.0000      -0.888363       -24.1736
  39   2.0000      -0.861451       -23.4413
  40   2.0000      -0.791037       -21.5252
  41   2.0000      -0.788863       -21.4661
  42   2.0000      -0.787423       -21.4269
  43   2.0000      -0.775429       -21.1005
  44   2.0000      -0.764878       -20.8134
  45   2.0000      -0.746964       -20.3259
  46   2.0000      -0.730670       -19.8825
  47   2.0000      -0.713840       -19.4246
  48   2.0000      -0.680570       -18.5192
  49   2.0000      -0.668730       -18.1971
  50   2.0000      -0.666861       -18.1462
  51   2.0000      -0.653578       -17.7848
  52   2.0000      -0.646060       -17.5802
  53   2.0000      -0.642387       -17.4802
  54   2.0000      -0.640597       -17.4315
  55   2.0000      -0.629609       -17.1325
  56   2.0000      -0.617437       -16.8013
  57   2.0000      -0.612066       -16.6552
  58   2.0000      -0.609981       -16.5984
  59   2.0000      -0.604703       -16.4548
  60   2.0000      -0.587769       -15.9940
  61   2.0000      -0.578952       -15.7541
  62   2.0000      -0.570309       -15.5189
  63   2.0000      -0.563715       -15.3395
  64   2.0000      -0.557407       -15.1678
  65   2.0000      -0.556842       -15.1524
  66   2.0000      -0.554190       -15.0803
  67   2.0000      -0.540977       -14.7207
  68   2.0000      -0.533271       -14.5111
  69   2.0000      -0.524929       -14.2840
  70   2.0000      -0.519520       -14.1369
  71   2.0000      -0.515227       -14.0200
  72   2.0000      -0.507389       -13.8068
  73   2.0000      -0.503139       -13.6911
  74   2.0000      -0.487359       -13.2617
  75   2.0000      -0.478991       -13.0340
  76   2.0000      -0.475231       -12.9317
  77   2.0000      -0.455631       -12.3984
  78   2.0000      -0.445652       -12.1268
  79   2.0000      -0.426180       -11.5969
  80   2.0000      -0.413239       -11.2448
  81   2.0000      -0.394708       -10.7405
  82   0.0000      -0.206246        -5.6122
  83   0.0000      -0.169628        -4.6158
  84   0.0000      -0.155076        -4.2198
  85   0.0000      -0.082659        -2.2493
  86   0.0000      -0.078022        -2.1231

MULLIKEN ATOMIC CHARGES
-----------------------
   0 Ir:    0.602322
   1 C :   -0.319206
   2 C :   -0.168146
   3 C :   -0.215678
   4 C :   -0.173417
   5 C :   -0.255590
   6 N :   -0.459202
   7 C :   -0.135408
   8 C :   -0.626988
   9 H :    0.247755
  10 H :    0.220877
  11 H :    0.261878
  12 C :   -0.661546
  13 H :    0.259239
  14 H :    0.263483
  15 H :    0.227890
  16 H :    0.240896
  17 C :    0.056552
  18 C :   -0.233760
  19 H :    0.269116
  20 C :   -0.235890
  21 C :   -0.145316
  22 S :    0.298815
  23 C :   -0.428321
  24 H :    0.346398
  25 H :    0.264009
  26 H :    0.294002
  27 H :    0.289561
  28 H :    0.305647
  29 H :    0.300982
  30 O :   -0.468982
  31 O :   -0.508120
  32 C :    0.645935
  33 C :   -0.774547
  34 H :    0.274374
  35 H :    0.277878
  36 H :    0.268606
  37 H :    0.300064
  38 H :    0.293835
Sum of atomic charges:    1.0000000

LOEWDIN ATOMIC CHARGES
----------------------
   0 Ir:   -0.140698
   1 C :   -0.056378
   2 C :   -0.022445
   3 C :   -0.028448
   4 C :   -0.043775
   5 C :   -0.063030
   6 N :   -0.047705
   7 C :   -0.060670
   8 C :   -0.350603
   9 H :    0.147563
  10 H :    0.133453
  11 H :    0.147519
  12 C :   -0.359596
  13 H :    0.146722
  14 H :    0.153480
  15 H :    0.133379
  16 H :    0.137469
  17 C :    0.034848
  18 C :   -0.239929
  19 H :    0.153826
  20 C :   -0.123949
  21 C :   -0.172570
  22 S :    0.454891
  23 C :   -0.251463
  24 H :    0.185352
  25 H :    0.157132
  26 H :    0.166895
  27 H :    0.185305
  28 H :    0.192279
  29 H :    0.191231
  30 O :   -0.224477
  31 O :   -0.194138
  32 C :    0.164801
  33 C :   -0.379956
  34 H :    0.166234
  35 H :    0.172211
  36 H :    0.160009
  37 H :    0.187994
  38 H :    0.187239

  Mayer bond orders larger than 0.100000
B(  0-Ir,  1-C ) :   0.5739 B(  0-Ir,  2-C ) :   0.4247 B(  0-Ir,  3-C ) :   0.4411
B(  0-Ir,  4-C ) :   0.3744 B(  0-Ir,  5-C ) :   0.4714 B(  0-Ir,  6-N ) :   0.4840
B(  0-Ir, 30-O ) :   0.3305 B(  0-Ir, 31-O ) :   0.5858 B(  1-C ,  2-C ) :   1.1265
B(  1-C ,  4-C ) :   1.1126 B(  1-C , 27-H ) :   0.9160 B(  2-C ,  5-C ) :   1.2280
B(  2-C , 28-H ) :   0.8997 B(  3-C ,  4-C ) :   1.2672 B(  3-C ,  5-C ) :   1.1030
B(  3-C , 37-H ) :   0.9001 B(  4-C , 38-H ) :   0.9067 B(  5-C , 29-H ) :   0.9047
B(  6-N ,  7-C ) :   0.8762 B(  6-N , 17-C ) :   1.6616 B(  7-C ,  8-C ) :   0.9764
B(  7-C , 12-C ) :   0.9826 B(  7-C , 13-H ) :   0.8923 B(  8-C ,  9-H ) :   0.9071
B(  8-C , 10-H ) :   0.9174 B(  8-C , 11-H ) :   0.9041 B( 12-C , 14-H ) :   0.9055
B( 12-C , 15-H ) :   0.9133 B( 12-C , 16-H ) :   0.9185 B( 17-C , 18-C ) :   1.1002
B( 17-C , 19-H ) :   0.8794 B( 18-C , 20-C ) :   1.4080 B( 18-C , 22-S ) :   1.1559
B( 20-C , 21-C ) :   1.3350 B( 20-C , 24-H ) :   0.8138 B( 21-C , 23-C ) :   1.4583
B( 21-C , 25-H ) :   0.9049 B( 22-S , 23-C ) :   1.2766 B( 23-C , 26-H ) :   0.8946
B( 30-O , 32-C ) :   1.5869 B( 31-O , 32-C ) :   1.3195 B( 32-C , 33-C ) :   0.9478
B( 33-C , 34-H ) :   0.8979 B( 33-C , 35-H ) :   0.8929 B( 33-C , 36-H ) :   0.9052

Dispersion correction           -0.029315610
FINAL SINGLE POINT ENERGY     -1288.397797735984
Dispersion correction            ... done

DIPOLE MOMENT
-------------
                                X             Y             Z
Electronic contribution:     24.56978     -65.61980     123.19530
Nuclear contribution   :    -24.73392      64.57782    -123.31561
                        -----------------------------------------
Total Dipole Moment    :     -0.16414      -1.04199      -0.12031
                        -----------------------------------------
Magnitude (a.u.)       :      1.06167
Magnitude (Debye)      :      2.69856

Rotational constants in cm-1:     0.010993     0.007682     0.006979
Rotational constants in MHz :   329.572853   230.295504   209.219262

                             ****ORCA TERMINATED NORMALLY****
TOTAL RUN TIME: 0 days 0 hours 17 minutes 49 seconds 225 msec
