                         Program Version 5.0.3 -  RELEASE  -
|  1> ! EnGrad PBEh-3c
|  2> %output
|  3> xyzfile=True
|  4> end
|  5> %scf
|  6> maxiter 250
|  7> end
|  8> %output
|  9> Print[P_Hirshfeld] = 1
| 10> end
| 11> % maxcore
| 12> 4000
| 13> *xyz -1 1
| 14> Pd  -2.14313051  -1.63159192   0.72414798
| 15> Cl  -3.40762076  -3.32239085  -0.24997824
| 16> Cl  -0.61434621  -4.74828672   1.34174698
| 17> Cl  -4.06199374  -0.43585761   0.95264657
| 18> N   -0.96276617  -0.05070046   1.41500565
| 19> C   -1.28804079   0.50182692   2.57050707
| 20> C   -0.79253844   1.73873091   2.98959789
| 21> C    0.08991919   2.39153961   2.16568252
| 22> C   -0.08186629   0.54920328   0.58903103
| 23> C    0.46205168   1.80042012   0.95052087
| 24> H    0.49770443   3.35040851   2.46453682
| 25> H   -1.97405928  -0.05542255   3.19520659
| 26> H   -1.09822976   2.15441413   3.93885644
| 27> C    0.33156324  -0.13248625  -0.60474576
| 28> C    1.37663879   2.44069627   0.05827548
| 29> C    1.72263472   1.84602611  -1.10548739
| 30> C    1.22910934   0.54931960  -1.45719084
| 31> H    1.78109584   3.41068271   0.31996774
| 32> H    2.40877125   2.35594438  -1.77247573
| 33> C   -0.11276921  -1.43516191  -0.92182821
| 34> C    1.66204848  -0.06505339  -2.64082100
| 35> C    0.29918911  -1.97150047  -2.12588197
| 36> C    1.22775193  -1.33062303  -2.95161034
| 37> H    2.34386385   0.44699819  -3.30976587
| 38> H    1.58067154  -1.78991086  -3.86720593
| 39> H   -0.39937239  -3.63354311  -0.20739717
| 40> H   -0.07628454  -2.93368162  -2.46134590
| 41> *
| 42>
| 43>                          ****END OF INPUT****

CARTESIAN COORDINATES (ANGSTROEM)
---------------------------------
  Pd    -2.143131   -1.631592    0.724148
  Cl    -3.407621   -3.322391   -0.249978
  Cl    -0.614346   -4.748287    1.341747
  Cl    -4.061994   -0.435858    0.952647
  N     -0.962766   -0.050700    1.415006
  C     -1.288041    0.501827    2.570507
  C     -0.792538    1.738731    2.989598
  C      0.089919    2.391540    2.165683
  C     -0.081866    0.549203    0.589031
  C      0.462052    1.800420    0.950521
  H      0.497704    3.350409    2.464537
  H     -1.974059   -0.055423    3.195207
  H     -1.098230    2.154414    3.938856
  C      0.331563   -0.132486   -0.604746
  C      1.376639    2.440696    0.058275
  C      1.722635    1.846026   -1.105487
  C      1.229109    0.549320   -1.457191
  H      1.781096    3.410683    0.319968
  H      2.408771    2.355944   -1.772476
  C     -0.112769   -1.435162   -0.921828
  C      1.662048   -0.065053   -2.640821
  C      0.299189   -1.971500   -2.125882
  C      1.227752   -1.330623   -2.951610
  H      2.343864    0.446998   -3.309766
  H      1.580672   -1.789911   -3.867206
  H     -0.399372   -3.633543   -0.207397
  H     -0.076285   -2.933682   -2.461346

 Total Charge           Charge          ....   -1
 Multiplicity           Mult            ....    1
 Number of Electrons    NEL             ....  164
 Basis Dimension        Dim             ....  313

ORBITAL ENERGIES
----------------

  NO   OCC          E(Eh)            E(eV)
   0   2.0000    -102.121498     -2778.8672
   1   2.0000    -102.094057     -2778.1205
   2   2.0000    -102.080281     -2777.7457
   3   2.0000     -14.597985      -397.2314
   4   2.0000     -10.413204      -283.3577
   5   2.0000     -10.410462      -283.2831
   6   2.0000     -10.394984      -282.8619
   7   2.0000     -10.387606      -282.6611
   8   2.0000     -10.380409      -282.4653
   9   2.0000     -10.374555      -282.3060
  10   2.0000     -10.373754      -282.2842
  11   2.0000     -10.369269      -282.1622
  12   2.0000     -10.360927      -281.9352
  13   2.0000     -10.353123      -281.7228
  14   2.0000     -10.352227      -281.6984
  15   2.0000     -10.339026      -281.3392
  16   2.0000     -10.338286      -281.3191
  17   2.0000      -9.583098      -260.7694
  18   2.0000      -9.558220      -260.0924
  19   2.0000      -9.544311      -259.7139
  20   2.0000      -7.270495      -197.8402
  21   2.0000      -7.263443      -197.6483
  22   2.0000      -7.263101      -197.6390
  23   2.0000      -7.244387      -197.1298
  24   2.0000      -7.239061      -196.9849
  25   2.0000      -7.238794      -196.9776
  26   2.0000      -7.230664      -196.7564
  27   2.0000      -7.225050      -196.6036
  28   2.0000      -7.224787      -196.5965
  29   2.0000      -3.517120       -95.7057
  30   2.0000      -2.168039       -58.9953
  31   2.0000      -2.156025       -58.6684
  32   2.0000      -2.128805       -57.9277
  33   2.0000      -0.991958       -26.9925
  34   2.0000      -0.883990       -24.0546
  35   2.0000      -0.847328       -23.0570
  36   2.0000      -0.815271       -22.1847
  37   2.0000      -0.778651       -21.1882
  38   2.0000      -0.742526       -20.2051
  39   2.0000      -0.718163       -19.5422
  40   2.0000      -0.692949       -18.8561
  41   2.0000      -0.686152       -18.6712
  42   2.0000      -0.666577       -18.1385
  43   2.0000      -0.647796       -17.6274
  44   2.0000      -0.643051       -17.4983
  45   2.0000      -0.608944       -16.5702
  46   2.0000      -0.573005       -15.5923
  47   2.0000      -0.528334       -14.3767
  48   2.0000      -0.517214       -14.0741
  49   2.0000      -0.496338       -13.5060
  50   2.0000      -0.460999       -12.5444
  51   2.0000      -0.459491       -12.5034
  52   2.0000      -0.431485       -11.7413
  53   2.0000      -0.413681       -11.2568
  54   2.0000      -0.409090       -11.1319
  55   2.0000      -0.403371       -10.9763
  56   2.0000      -0.386676       -10.5220
  57   2.0000      -0.376651       -10.2492
  58   2.0000      -0.353337        -9.6148
  59   2.0000      -0.342813        -9.3284
  60   2.0000      -0.336193        -9.1483
  61   2.0000      -0.315827        -8.5941
  62   2.0000      -0.304180        -8.2772
  63   2.0000      -0.293929        -7.9982
  64   2.0000      -0.275451        -7.4954
  65   2.0000      -0.264899        -7.2083
  66   2.0000      -0.258892        -7.0448
  67   2.0000      -0.247481        -6.7343
  68   2.0000      -0.231295        -6.2939
  69   2.0000      -0.228467        -6.2169
  70   2.0000      -0.223675        -6.0865
  71   2.0000      -0.214087        -5.8256
  72   2.0000      -0.192675        -5.2430
  73   2.0000      -0.189580        -5.1587
  74   2.0000      -0.183226        -4.9858
  75   2.0000      -0.174266        -4.7420
  76   2.0000      -0.164815        -4.4848
  77   2.0000      -0.158003        -4.2995
  78   2.0000      -0.154072        -4.1925
  79   2.0000      -0.143885        -3.9153
  80   2.0000      -0.139131        -3.7860
  81   2.0000      -0.115848        -3.1524
  82   0.0000       0.043445         1.1822
  83   0.0000       0.062475         1.7000
  84   0.0000       0.065527         1.7831
  85   0.0000       0.077339         2.1045
  86   0.0000       0.108519         2.9530

MULLIKEN ATOMIC CHARGES
-----------------------
   0 Pd:    0.211418
   1 Cl:   -0.345706
   2 Cl:   -0.381333
   3 Cl:   -0.385685
   4 N :   -0.575349
   5 C :    0.045119
   6 C :   -0.320453
   7 C :   -0.158280
   8 C :    0.414417
   9 C :    0.026091
  10 H :    0.211355
  11 H :    0.280166
  12 H :    0.220573
  13 C :   -0.037982
  14 C :   -0.302996
  15 C :   -0.280360
  16 C :    0.118796
  17 H :    0.193869
  18 H :    0.195364
  19 C :   -0.124154
  20 C :   -0.320155
  21 C :   -0.335352
  22 C :   -0.191693
  23 H :    0.186747
  24 H :    0.192957
  25 H :    0.244804
  26 H :    0.217821
Sum of atomic charges:   -1.0000000

LOEWDIN ATOMIC CHARGES
----------------------
   0 Pd:   -0.792078
   1 Cl:   -0.095393
   2 Cl:   -0.320440
   3 Cl:   -0.091809
   4 N :    0.035551
   5 C :    0.009969
   6 C :   -0.167927
   7 C :   -0.087415
   8 C :    0.092262
   9 C :   -0.053294
  10 H :    0.135629
  11 H :    0.166216
  12 H :    0.140700
  13 C :   -0.042887
  14 C :   -0.144244
  15 C :   -0.115565
  16 C :   -0.033855
  17 H :    0.129419
  18 H :    0.130643
  19 C :   -0.104182
  20 C :   -0.156159
  21 C :   -0.156846
  22 C :   -0.131721
  23 H :    0.123359
  24 H :    0.124832
  25 H :    0.273146
  26 H :    0.132090

  Mayer bond orders larger than 0.100000
B(  0-Pd,  1-Cl) :   0.9045 B(  0-Pd,  3-Cl) :   0.8662 B(  0-Pd,  4-N ) :   0.3958
B(  0-Pd, 19-C ) :   0.3471 B(  2-Cl, 25-H ) :   0.6968 B(  4-N ,  5-C ) :   1.4575
B(  4-N ,  8-C ) :   1.1581 B(  5-C ,  6-C ) :   1.3261 B(  5-C , 11-H ) :   0.8910
B(  6-C ,  7-C ) :   1.4572 B(  6-C , 12-H ) :   0.9187 B(  7-C ,  9-C ) :   1.2817
B(  7-C , 10-H ) :   0.9287 B(  8-C ,  9-C ) :   1.2170 B(  8-C , 13-C ) :   1.1259
B(  9-C , 14-C ) :   1.1651 B( 13-C , 16-C ) :   1.2726 B( 13-C , 19-C ) :   1.3725
B( 14-C , 15-C ) :   1.6503 B( 14-C , 17-H ) :   0.9300 B( 15-C , 16-C ) :   1.1504
B( 15-C , 18-H ) :   0.9284 B( 16-C , 20-C ) :   1.2848 B( 19-C , 21-C ) :   1.4794
B( 19-C , 25-H ) :   0.1474 B( 20-C , 22-C ) :   1.4948 B( 20-C , 23-H ) :   0.9315
B( 21-C , 22-C ) :   1.3563 B( 21-C , 26-H ) :   0.9183 B( 22-C , 24-H ) :   0.9211

Dispersion correction           -0.024313168
FINAL SINGLE POINT ENERGY     -2061.372445143172
Dispersion correction            ... done

DIPOLE MOMENT
-------------
                                X             Y             Z
Electronic contribution:    -83.80602     -57.55801      30.97369
Nuclear contribution   :     86.86443      61.22623     -30.63563
                        -----------------------------------------
Total Dipole Moment    :      3.05840       3.66822       0.33806
                        -----------------------------------------
Magnitude (a.u.)       :      4.78790
Magnitude (Debye)      :     12.16987

Rotational constants in cm-1:     0.011266     0.007208     0.005508
Rotational constants in MHz :   337.734350   216.103612   165.135788

                             ****ORCA TERMINATED NORMALLY****
TOTAL RUN TIME: 0 days 0 hours 8 minutes 27 seconds 545 msec
