                         Program Version 5.0.3 -  RELEASE  -
|  1> ! EnGrad PBEh-3c
|  2> %output
|  3> xyzfile=True
|  4> end
|  5> %scf
|  6> maxiter 250
|  7> end
|  8> %output
|  9> Print[P_Hirshfeld] = 1
| 10> end
| 11> % maxcore
| 12> 4000
| 13> *xyz -1 1
| 14> Pd  -2.08433562  -1.64972479   0.61839047
| 15> Cl  -3.39993513  -3.29603202  -0.23158322
| 16> Cl  -0.59768702  -4.63997861   1.21705918
| 17> Cl  -4.06855193  -0.40209061   0.96188267
| 18> N   -0.99727847  -0.07492040   1.42754903
| 19> C   -1.28756212   0.50077722   2.57480093
| 20> C   -0.78324673   1.71963782   2.98643524
| 21> C    0.08061738   2.37825120   2.16769605
| 22> C   -0.07329486   0.53489667   0.60939365
| 23> C    0.47038551   1.81486283   0.94532928
| 24> H    0.49897528   3.34670314   2.45653749
| 25> H   -1.97550673  -0.05589187   3.19062325
| 26> H   -1.09639100   2.14537963   3.94158229
| 27> C    0.34078508  -0.13997875  -0.60720123
| 28> C    1.37126433   2.43367702   0.05063793
| 29> C    1.71452713   1.85238943  -1.09634476
| 30> C    1.23933877   0.56387311  -1.47332372
| 31> H    1.77433066   3.41074631   0.32160388
| 32> H    2.40168164   2.35217834  -1.77908157
| 33> C   -0.16772141  -1.48347677  -0.87345417
| 34> C    1.66735268  -0.07290361  -2.64045680
| 35> C    0.31182176  -1.99509183  -2.13133613
| 36> C    1.22089118  -1.30732749  -2.96415939
| 37> H    2.34355869   0.45405576  -3.30565261
| 38> H    1.57939610  -1.79605450  -3.86912852
| 39> H   -0.41887185  -3.65757423  -0.04218263
| 40> H   -0.06516456  -2.93872923  -2.45268972
| 41> *
| 42>
| 43>                          ****END OF INPUT****

CARTESIAN COORDINATES (ANGSTROEM)
---------------------------------
  Pd    -2.084336   -1.649725    0.618390
  Cl    -3.399935   -3.296032   -0.231583
  Cl    -0.597687   -4.639979    1.217059
  Cl    -4.068552   -0.402091    0.961883
  N     -0.997278   -0.074920    1.427549
  C     -1.287562    0.500777    2.574801
  C     -0.783247    1.719638    2.986435
  C      0.080617    2.378251    2.167696
  C     -0.073295    0.534897    0.609394
  C      0.470386    1.814863    0.945329
  H      0.498975    3.346703    2.456537
  H     -1.975507   -0.055892    3.190623
  H     -1.096391    2.145380    3.941582
  C      0.340785   -0.139979   -0.607201
  C      1.371264    2.433677    0.050638
  C      1.714527    1.852389   -1.096345
  C      1.239339    0.563873   -1.473324
  H      1.774331    3.410746    0.321604
  H      2.401682    2.352178   -1.779082
  C     -0.167721   -1.483477   -0.873454
  C      1.667353   -0.072904   -2.640457
  C      0.311822   -1.995092   -2.131336
  C      1.220891   -1.307327   -2.964159
  H      2.343559    0.454056   -3.305653
  H      1.579396   -1.796055   -3.869129
  H     -0.418872   -3.657574   -0.042183
  H     -0.065165   -2.938729   -2.452690

 Total Charge           Charge          ....   -1
 Multiplicity           Mult            ....    1
 Number of Electrons    NEL             ....  164
 Basis Dimension        Dim             ....  313

ORBITAL ENERGIES
----------------

  NO   OCC          E(Eh)            E(eV)
   0   2.0000    -102.148332     -2779.5974
   1   2.0000    -102.079279     -2777.7184
   2   2.0000    -102.079078     -2777.7129
   3   2.0000     -14.595846      -397.1732
   4   2.0000     -10.411345      -283.3071
   5   2.0000     -10.403785      -283.1014
   6   2.0000     -10.390710      -282.7456
   7   2.0000     -10.383229      -282.5420
   8   2.0000     -10.375197      -282.3235
   9   2.0000     -10.369803      -282.1767
  10   2.0000     -10.368840      -282.1505
  11   2.0000     -10.366818      -282.0955
  12   2.0000     -10.361844      -281.9601
  13   2.0000     -10.351277      -281.6726
  14   2.0000     -10.347964      -281.5824
  15   2.0000     -10.345114      -281.5049
  16   2.0000     -10.339490      -281.3518
  17   2.0000      -9.611421      -261.5401
  18   2.0000      -9.543792      -259.6998
  19   2.0000      -9.542745      -259.6713
  20   2.0000      -7.299137      -198.6196
  21   2.0000      -7.291386      -198.4087
  22   2.0000      -7.291083      -198.4005
  23   2.0000      -7.230056      -196.7398
  24   2.0000      -7.228670      -196.7021
  25   2.0000      -7.224558      -196.5902
  26   2.0000      -7.224211      -196.5808
  27   2.0000      -7.223821      -196.5702
  28   2.0000      -7.223557      -196.5630
  29   2.0000      -3.513819       -95.6159
  30   2.0000      -2.165653       -58.9304
  31   2.0000      -2.150616       -58.5212
  32   2.0000      -2.125638       -57.8415
  33   2.0000      -0.983057       -26.7503
  34   2.0000      -0.879394       -23.9295
  35   2.0000      -0.842742       -22.9322
  36   2.0000      -0.811138       -22.0722
  37   2.0000      -0.773456       -21.0468
  38   2.0000      -0.736692       -20.0464
  39   2.0000      -0.733060       -19.9476
  40   2.0000      -0.711096       -19.3499
  41   2.0000      -0.675228       -18.3739
  42   2.0000      -0.662805       -18.0358
  43   2.0000      -0.643058       -17.4985
  44   2.0000      -0.636121       -17.3097
  45   2.0000      -0.603106       -16.4114
  46   2.0000      -0.565968       -15.4008
  47   2.0000      -0.524641       -14.2762
  48   2.0000      -0.512248       -13.9390
  49   2.0000      -0.491903       -13.3854
  50   2.0000      -0.456639       -12.4258
  51   2.0000      -0.455976       -12.4077
  52   2.0000      -0.426386       -11.6025
  53   2.0000      -0.407668       -11.0932
  54   2.0000      -0.402506       -10.9528
  55   2.0000      -0.397960       -10.8290
  56   2.0000      -0.380075       -10.3424
  57   2.0000      -0.370476       -10.0812
  58   2.0000      -0.349640        -9.5142
  59   2.0000      -0.339618        -9.2415
  60   2.0000      -0.332790        -9.0557
  61   2.0000      -0.320246        -8.7143
  62   2.0000      -0.312945        -8.5157
  63   2.0000      -0.300190        -8.1686
  64   2.0000      -0.283786        -7.7222
  65   2.0000      -0.263677        -7.1750
  66   2.0000      -0.251066        -6.8319
  67   2.0000      -0.241609        -6.5745
  68   2.0000      -0.231396        -6.2966
  69   2.0000      -0.226500        -6.1634
  70   2.0000      -0.223452        -6.0804
  71   2.0000      -0.217182        -5.9098
  72   2.0000      -0.214831        -5.8458
  73   2.0000      -0.207064        -5.6345
  74   2.0000      -0.179623        -4.8878
  75   2.0000      -0.173863        -4.7310
  76   2.0000      -0.165961        -4.5160
  77   2.0000      -0.153226        -4.1695
  78   2.0000      -0.148313        -4.0358
  79   2.0000      -0.139282        -3.7900
  80   2.0000      -0.137121        -3.7313
  81   2.0000      -0.116554        -3.1716
  82   0.0000       0.047954         1.3049
  83   0.0000       0.070301         1.9130
  84   0.0000       0.074472         2.0265
  85   0.0000       0.111358         3.0302
  86   0.0000       0.122767         3.3407

MULLIKEN ATOMIC CHARGES
-----------------------
   0 Pd:    0.206382
   1 Cl:   -0.340347
   2 Cl:   -0.337138
   3 Cl:   -0.423772
   4 N :   -0.568898
   5 C :    0.049703
   6 C :   -0.321319
   7 C :   -0.160508
   8 C :    0.368782
   9 C :    0.060945
  10 H :    0.206050
  11 H :    0.274038
  12 H :    0.218547
  13 C :   -0.071195
  14 C :   -0.293402
  15 C :   -0.275454
  16 C :    0.159966
  17 H :    0.190510
  18 H :    0.192219
  19 C :   -0.164216
  20 C :   -0.320028
  21 C :   -0.350775
  22 C :   -0.176531
  23 H :    0.182845
  24 H :    0.190332
  25 H :    0.283800
  26 H :    0.219464
Sum of atomic charges:   -1.0000000

LOEWDIN ATOMIC CHARGES
----------------------
   0 Pd:   -0.815146
   1 Cl:   -0.074047
   2 Cl:   -0.234534
   3 Cl:   -0.165269
   4 N :    0.034564
   5 C :    0.007102
   6 C :   -0.172664
   7 C :   -0.085955
   8 C :    0.099628
   9 C :   -0.058155
  10 H :    0.133103
  11 H :    0.163135
  12 H :    0.141412
  13 C :   -0.035216
  14 C :   -0.144566
  15 C :   -0.116857
  16 C :   -0.037875
  17 H :    0.129051
  18 H :    0.129723
  19 C :   -0.096837
  20 C :   -0.156858
  21 C :   -0.156360
  22 C :   -0.135250
  23 H :    0.121943
  24 H :    0.125445
  25 H :    0.267767
  26 H :    0.132716

  Mayer bond orders larger than 0.100000
B(  0-Pd,  1-Cl) :   0.9276 B(  0-Pd,  3-Cl) :   0.7949 B(  0-Pd,  4-N ) :   0.3976
B(  0-Pd, 19-C ) :   0.4560 B(  2-Cl, 25-H ) :   0.7884 B(  4-N ,  5-C ) :   1.4790
B(  4-N ,  8-C ) :   1.1362 B(  5-C ,  6-C ) :   1.3177 B(  5-C , 11-H ) :   0.8937
B(  6-C ,  7-C ) :   1.4582 B(  6-C , 12-H ) :   0.9200 B(  7-C ,  9-C ) :   1.2772
B(  7-C , 10-H ) :   0.9299 B(  8-C ,  9-C ) :   1.2375 B(  8-C , 13-C ) :   1.1517
B(  9-C , 14-C ) :   1.1678 B( 13-C , 16-C ) :   1.2549 B( 13-C , 19-C ) :   1.3019
B( 14-C , 15-C ) :   1.6373 B( 14-C , 17-H ) :   0.9304 B( 15-C , 16-C ) :   1.1585
B( 15-C , 18-H ) :   0.9281 B( 16-C , 20-C ) :   1.2816 B( 19-C , 21-C ) :   1.4634
B( 20-C , 22-C ) :   1.4953 B( 20-C , 23-H ) :   0.9306 B( 21-C , 22-C ) :   1.3494
B( 21-C , 26-H ) :   0.9167 B( 22-C , 24-H ) :   0.9237

Dispersion correction           -0.023979627
FINAL SINGLE POINT ENERGY     -2061.422076014519
Dispersion correction            ... done

DIPOLE MOMENT
-------------
                                X             Y             Z
Electronic contribution:    -80.62019     -59.61022      26.01710
Nuclear contribution   :     83.88433      62.58241     -25.53894
                        -----------------------------------------
Total Dipole Moment    :      3.26414       2.97220       0.47816
                        -----------------------------------------
Magnitude (a.u.)       :      4.44040
Magnitude (Debye)      :     11.28661

Rotational constants in cm-1:     0.011411     0.007386     0.005583
Rotational constants in MHz :   342.104072   221.425111   167.388001

                             ****ORCA TERMINATED NORMALLY****
TOTAL RUN TIME: 0 days 0 hours 7 minutes 41 seconds 736 msec
