                         Program Version 5.0.3 -  RELEASE  -
|  1> ! EnGrad PBEh-3c
|  2> %output
|  3> xyzfile=True
|  4> end
|  5> %scf
|  6> maxiter 250
|  7> end
|  8> %output
|  9> Print[P_Hirshfeld] = 1
| 10> end
| 11> % maxcore
| 12> 4000
| 13> *xyz -1 1
| 14> Pd  -2.06736655  -1.64257677   0.58270908
| 15> Cl  -3.40373449  -3.28897087  -0.22571744
| 16> Cl  -0.59483811  -4.57967625   1.16360111
| 17> Cl  -4.05973863  -0.38450759   0.95319526
| 18> N   -0.99094128  -0.07764124   1.41918136
| 19> C   -1.29414874   0.48599017   2.57643047
| 20> C   -0.78109322   1.71544272   2.99589672
| 21> C    0.08647915   2.38147179   2.16430187
| 22> C   -0.07215226   0.52768608   0.61285561
| 23> C    0.46167725   1.80116336   0.94900742
| 24> H    0.49612262   3.34018662   2.45365470
| 25> H   -1.97683895  -0.05830247   3.19161092
| 26> H   -1.09264335   2.13598487   3.93971887
| 27> C    0.33657968  -0.15264627  -0.60206235
| 28> C    1.36838752   2.44484323   0.05862209
| 29> C    1.71687813   1.85007537  -1.11106317
| 30> C    1.23252092   0.55692192  -1.46878252
| 31> H    1.76810392   3.40794693   0.32030566
| 32> H    2.39449404   2.35181658  -1.78055001
| 33> C   -0.16772511  -1.49279862  -0.87766657
| 34> C    1.67413437  -0.05970023  -2.64328737
| 35> C    0.31195797  -1.98842976  -2.10965620
| 36> C    1.21218680  -1.31939390  -2.96709580
| 37> H    2.34222008   0.45743820  -3.30547291
| 38> H    1.57944777  -1.79526029  -3.86960006
| 39> H   -0.42468007  -3.66808380   0.03713377
| 40> H   -0.05682856  -2.95217590  -2.45341077
| 41> *
| 42>
| 43>                          ****END OF INPUT****

CARTESIAN COORDINATES (ANGSTROEM)
---------------------------------
  Pd    -2.067367   -1.642577    0.582709
  Cl    -3.403734   -3.288971   -0.225717
  Cl    -0.594838   -4.579676    1.163601
  Cl    -4.059739   -0.384508    0.953195
  N     -0.990941   -0.077641    1.419181
  C     -1.294149    0.485990    2.576430
  C     -0.781093    1.715443    2.995897
  C      0.086479    2.381472    2.164302
  C     -0.072152    0.527686    0.612856
  C      0.461677    1.801163    0.949007
  H      0.496123    3.340187    2.453655
  H     -1.976839   -0.058302    3.191611
  H     -1.092643    2.135985    3.939719
  C      0.336580   -0.152646   -0.602062
  C      1.368388    2.444843    0.058622
  C      1.716878    1.850075   -1.111063
  C      1.232521    0.556922   -1.468783
  H      1.768104    3.407947    0.320306
  H      2.394494    2.351817   -1.780550
  C     -0.167725   -1.492799   -0.877667
  C      1.674134   -0.059700   -2.643287
  C      0.311958   -1.988430   -2.109656
  C      1.212187   -1.319394   -2.967096
  H      2.342220    0.457438   -3.305473
  H      1.579448   -1.795260   -3.869600
  H     -0.424680   -3.668084    0.037134
  H     -0.056829   -2.952176   -2.453411

 Total Charge           Charge          ....   -1
 Multiplicity           Mult            ....    1
 Number of Electrons    NEL             ....  164
 Basis Dimension        Dim             ....  313

ORBITAL ENERGIES
----------------

  NO   OCC          E(Eh)            E(eV)
   0   2.0000    -102.153692     -2779.7433
   1   2.0000    -102.077307     -2777.6647
   2   2.0000    -102.075262     -2777.6091
   3   2.0000     -14.594119      -397.1262
   4   2.0000     -10.408493      -283.2295
   5   2.0000     -10.403754      -283.1005
   6   2.0000     -10.389064      -282.7008
   7   2.0000     -10.381944      -282.5071
   8   2.0000     -10.375121      -282.3214
   9   2.0000     -10.369744      -282.1751
  10   2.0000     -10.368960      -282.1538
  11   2.0000     -10.365696      -282.0649
  12   2.0000     -10.360248      -281.9167
  13   2.0000     -10.352128      -281.6957
  14   2.0000     -10.348116      -281.5865
  15   2.0000     -10.339381      -281.3488
  16   2.0000     -10.337707      -281.3033
  17   2.0000      -9.618702      -261.7382
  18   2.0000      -9.542070      -259.6529
  19   2.0000      -9.538657      -259.5600
  20   2.0000      -7.306254      -198.8133
  21   2.0000      -7.298576      -198.6043
  22   2.0000      -7.298272      -198.5961
  23   2.0000      -7.228288      -196.6917
  24   2.0000      -7.224501      -196.5887
  25   2.0000      -7.222867      -196.5442
  26   2.0000      -7.222511      -196.5345
  27   2.0000      -7.219797      -196.4607
  28   2.0000      -7.219522      -196.4532
  29   2.0000      -3.511679       -95.5576
  30   2.0000      -2.163392       -58.8689
  31   2.0000      -2.148476       -58.4630
  32   2.0000      -2.123494       -57.7832
  33   2.0000      -0.982135       -26.7253
  34   2.0000      -0.874810       -23.8048
  35   2.0000      -0.839960       -22.8565
  36   2.0000      -0.806231       -21.9387
  37   2.0000      -0.771788       -21.0014
  38   2.0000      -0.753532       -20.5047
  39   2.0000      -0.732533       -19.9332
  40   2.0000      -0.710934       -19.3455
  41   2.0000      -0.673215       -18.3191
  42   2.0000      -0.659393       -17.9430
  43   2.0000      -0.641975       -17.4690
  44   2.0000      -0.634557       -17.2672
  45   2.0000      -0.601805       -16.3759
  46   2.0000      -0.566793       -15.4232
  47   2.0000      -0.523277       -14.2391
  48   2.0000      -0.510840       -13.9007
  49   2.0000      -0.490264       -13.3408
  50   2.0000      -0.455668       -12.3994
  51   2.0000      -0.454018       -12.3545
  52   2.0000      -0.424947       -11.5634
  53   2.0000      -0.408090       -11.1047
  54   2.0000      -0.401209       -10.9175
  55   2.0000      -0.396450       -10.7879
  56   2.0000      -0.378873       -10.3097
  57   2.0000      -0.369176       -10.0458
  58   2.0000      -0.356314        -9.6958
  59   2.0000      -0.343974        -9.3600
  60   2.0000      -0.335192        -9.1210
  61   2.0000      -0.328534        -8.9399
  62   2.0000      -0.311724        -8.4824
  63   2.0000      -0.297285        -8.0895
  64   2.0000      -0.283388        -7.7114
  65   2.0000      -0.259700        -7.0668
  66   2.0000      -0.249518        -6.7897
  67   2.0000      -0.240196        -6.5361
  68   2.0000      -0.236090        -6.4243
  69   2.0000      -0.228230        -6.2105
  70   2.0000      -0.224943        -6.1210
  71   2.0000      -0.220018        -5.9870
  72   2.0000      -0.212193        -5.7741
  73   2.0000      -0.208423        -5.6715
  74   2.0000      -0.176732        -4.8091
  75   2.0000      -0.170896        -4.6503
  76   2.0000      -0.165215        -4.4957
  77   2.0000      -0.151622        -4.1258
  78   2.0000      -0.146282        -3.9805
  79   2.0000      -0.136975        -3.7273
  80   2.0000      -0.135408        -3.6846
  81   2.0000      -0.114652        -3.1198
  82   0.0000       0.048912         1.3310
  83   0.0000       0.071408         1.9431
  84   0.0000       0.077250         2.1021
  85   0.0000       0.112845         3.0707
  86   0.0000       0.141178         3.8416

MULLIKEN ATOMIC CHARGES
-----------------------
   0 Pd:    0.195925
   1 Cl:   -0.344413
   2 Cl:   -0.330069
   3 Cl:   -0.431770
   4 N :   -0.570188
   5 C :    0.051113
   6 C :   -0.330156
   7 C :   -0.159254
   8 C :    0.389389
   9 C :    0.048667
  10 H :    0.208190
  11 H :    0.275132
  12 H :    0.218322
  13 C :   -0.055491
  14 C :   -0.301099
  15 C :   -0.279617
  16 C :    0.147624
  17 H :    0.192573
  18 H :    0.193904
  19 C :   -0.151831
  20 C :   -0.327226
  21 C :   -0.354252
  22 C :   -0.181705
  23 H :    0.185913
  24 H :    0.191354
  25 H :    0.305994
  26 H :    0.212970
Sum of atomic charges:   -1.0000000

LOEWDIN ATOMIC CHARGES
----------------------
   0 Pd:   -0.819704
   1 Cl:   -0.076869
   2 Cl:   -0.198090
   3 Cl:   -0.179318
   4 N :    0.036561
   5 C :    0.008741
   6 C :   -0.172127
   7 C :   -0.087904
   8 C :    0.095016
   9 C :   -0.056303
  10 H :    0.133832
  11 H :    0.162320
  12 H :    0.139957
  13 C :   -0.031636
  14 C :   -0.146364
  15 C :   -0.117430
  16 C :   -0.038115
  17 H :    0.129053
  18 H :    0.129749
  19 C :   -0.096862
  20 C :   -0.158355
  21 C :   -0.153905
  22 C :   -0.134852
  23 H :    0.122542
  24 H :    0.125092
  25 H :    0.253723
  26 H :    0.131248

  Mayer bond orders larger than 0.100000
B(  0-Pd,  1-Cl) :   0.9280 B(  0-Pd,  3-Cl) :   0.7791 B(  0-Pd,  4-N ) :   0.3990
B(  0-Pd, 19-C ) :   0.4869 B(  2-Cl, 25-H ) :   0.8073 B(  4-N ,  5-C ) :   1.4715
B(  4-N ,  8-C ) :   1.1407 B(  5-C ,  6-C ) :   1.3238 B(  5-C , 11-H ) :   0.8930
B(  6-C ,  7-C ) :   1.4550 B(  6-C , 12-H ) :   0.9201 B(  7-C ,  9-C ) :   1.2807
B(  7-C , 10-H ) :   0.9294 B(  8-C ,  9-C ) :   1.2248 B(  8-C , 13-C ) :   1.1455
B(  9-C , 14-C ) :   1.1695 B( 13-C , 16-C ) :   1.2540 B( 13-C , 19-C ) :   1.2830
B( 14-C , 15-C ) :   1.6396 B( 14-C , 17-H ) :   0.9298 B( 15-C , 16-C ) :   1.1597
B( 15-C , 18-H ) :   0.9281 B( 16-C , 20-C ) :   1.2860 B( 19-C , 21-C ) :   1.4698
B( 20-C , 22-C ) :   1.4919 B( 20-C , 23-H ) :   0.9299 B( 21-C , 22-C ) :   1.3506
B( 21-C , 26-H ) :   0.9178 B( 22-C , 24-H ) :   0.9235

Dispersion correction           -0.024032618
FINAL SINGLE POINT ENERGY     -2061.446822093616
Dispersion correction            ... done

DIPOLE MOMENT
-------------
                                X             Y             Z
Electronic contribution:    -79.69873     -59.66193      24.44044
Nuclear contribution   :     83.03951      62.44591     -23.89316
                        -----------------------------------------
Total Dipole Moment    :      3.34078       2.78398       0.54728
                        -----------------------------------------
Magnitude (a.u.)       :      4.38303
Magnitude (Debye)      :     11.14077

Rotational constants in cm-1:     0.011494     0.007474     0.005625
Rotational constants in MHz :   344.574990   224.061524   168.633305

                             ****ORCA TERMINATED NORMALLY****
TOTAL RUN TIME: 0 days 0 hours 10 minutes 28 seconds 91 msec
