                         Program Version 5.0.3 -  RELEASE  -
|  1> ! EnGrad PBEh-3c
|  2> %output
|  3> xyzfile=True
|  4> end
|  5> %scf
|  6> maxiter 250
|  7> end
|  8> %output
|  9> Print[P_Hirshfeld] = 1
| 10> end
| 11> % maxcore
| 12> 4000
| 13> *xyz -1 1
| 14> Pd  -2.06767863  -1.63085924   0.57789149
| 15> Cl  -3.40976557  -3.28932023  -0.22519055
| 16> Cl  -0.59671540  -4.55451576   1.15183489
| 17> Cl  -4.04920112  -0.37635910   0.94181158
| 18> N   -0.98126311  -0.07623009   1.41401761
| 19> C   -1.29377084   0.48027146   2.57418743
| 20> C   -0.77925673   1.71205959   2.99676156
| 21> C    0.08689815   2.37933949   2.16521771
| 22> C   -0.07264639   0.52352675   0.60917425
| 23> C    0.45817975   1.79288970   0.95073260
| 24> H    0.49483433   3.33811782   2.45327914
| 25> H   -1.97967272  -0.06300445   3.19476786
| 26> H   -1.09064080   2.13091883   3.94091663
| 27> C    0.33271496  -0.16031131  -0.59863753
| 28> C    1.36603324   2.44271066   0.05577487
| 29> C    1.71325741   1.85023650  -1.11010082
| 30> C    1.22664566   0.54931987  -1.46309930
| 31> H    1.76530656   3.40973864   0.32041646
| 32> H    2.39192628   2.35369969  -1.78343378
| 33> C   -0.15719822  -1.48565921  -0.88428736
| 34> C    1.67022064  -0.06133047  -2.64547192
| 35> C    0.30946160  -1.98972343  -2.10178835
| 36> C    1.21177573  -1.32068617  -2.96184085
| 37> H    2.34309340   0.46104286  -3.30830255
| 38> H    1.57947957  -1.79481453  -3.87054866
| 39> H   -0.42459639  -3.66727177   0.06279388
| 40> H   -0.04969680  -2.95715788  -2.45294801
| 41> *
| 42>
| 43>                          ****END OF INPUT****

CARTESIAN COORDINATES (ANGSTROEM)
---------------------------------
  Pd    -2.067679   -1.630859    0.577891
  Cl    -3.409766   -3.289320   -0.225191
  Cl    -0.596715   -4.554516    1.151835
  Cl    -4.049201   -0.376359    0.941812
  N     -0.981263   -0.076230    1.414018
  C     -1.293771    0.480271    2.574187
  C     -0.779257    1.712060    2.996762
  C      0.086898    2.379339    2.165218
  C     -0.072646    0.523527    0.609174
  C      0.458180    1.792890    0.950733
  H      0.494834    3.338118    2.453279
  H     -1.979673   -0.063004    3.194768
  H     -1.090641    2.130919    3.940917
  C      0.332715   -0.160311   -0.598638
  C      1.366033    2.442711    0.055775
  C      1.713257    1.850237   -1.110101
  C      1.226646    0.549320   -1.463099
  H      1.765307    3.409739    0.320416
  H      2.391926    2.353700   -1.783434
  C     -0.157198   -1.485659   -0.884287
  C      1.670221   -0.061330   -2.645472
  C      0.309462   -1.989723   -2.101788
  C      1.211776   -1.320686   -2.961841
  H      2.343093    0.461043   -3.308303
  H      1.579480   -1.794815   -3.870549
  H     -0.424596   -3.667272    0.062794
  H     -0.049697   -2.957158   -2.452948

 Total Charge           Charge          ....   -1
 Multiplicity           Mult            ....    1
 Number of Electrons    NEL             ....  164
 Basis Dimension        Dim             ....  313

ORBITAL ENERGIES
----------------

  NO   OCC          E(Eh)            E(eV)
   0   2.0000    -102.153902     -2779.7490
   1   2.0000    -102.075715     -2777.6214
   2   2.0000    -102.075121     -2777.6053
   3   2.0000     -14.593344      -397.1051
   4   2.0000     -10.407150      -283.1930
   5   2.0000     -10.404663      -283.1253
   6   2.0000     -10.388875      -282.6957
   7   2.0000     -10.381910      -282.5061
   8   2.0000     -10.375262      -282.3252
   9   2.0000     -10.369660      -282.1728
  10   2.0000     -10.368860      -282.1510
  11   2.0000     -10.365480      -282.0591
  12   2.0000     -10.357981      -281.8550
  13   2.0000     -10.351620      -281.6819
  14   2.0000     -10.348210      -281.5891
  15   2.0000     -10.336475      -281.2698
  16   2.0000     -10.334323      -281.2112
  17   2.0000      -9.619713      -261.7657
  18   2.0000      -9.540349      -259.6061
  19   2.0000      -9.538611      -259.5588
  20   2.0000      -7.307176      -198.8384
  21   2.0000      -7.299563      -198.6312
  22   2.0000      -7.299254      -198.6228
  23   2.0000      -7.226542      -196.6442
  24   2.0000      -7.224448      -196.5872
  25   2.0000      -7.221176      -196.4982
  26   2.0000      -7.220829      -196.4887
  27   2.0000      -7.219747      -196.4593
  28   2.0000      -7.219467      -196.4517
  29   2.0000      -3.510248       -95.5187
  30   2.0000      -2.161779       -58.8250
  31   2.0000      -2.147244       -58.4295
  32   2.0000      -2.122085       -57.7449
  33   2.0000      -0.983937       -26.7743
  34   2.0000      -0.874425       -23.7943
  35   2.0000      -0.840077       -22.8597
  36   2.0000      -0.806639       -21.9498
  37   2.0000      -0.771999       -21.0071
  38   2.0000      -0.759774       -20.6745
  39   2.0000      -0.732199       -19.9242
  40   2.0000      -0.711795       -19.3689
  41   2.0000      -0.671724       -18.2786
  42   2.0000      -0.659183       -17.9373
  43   2.0000      -0.641825       -17.4650
  44   2.0000      -0.634737       -17.2721
  45   2.0000      -0.601876       -16.3779
  46   2.0000      -0.566133       -15.4053
  47   2.0000      -0.522675       -14.2227
  48   2.0000      -0.510689       -13.8966
  49   2.0000      -0.490023       -13.3342
  50   2.0000      -0.454585       -12.3699
  51   2.0000      -0.453669       -12.3450
  52   2.0000      -0.425193       -11.5701
  53   2.0000      -0.408748       -11.1226
  54   2.0000      -0.401353       -10.9214
  55   2.0000      -0.396276       -10.7832
  56   2.0000      -0.378733       -10.3058
  57   2.0000      -0.370049       -10.0695
  58   2.0000      -0.360149        -9.8002
  59   2.0000      -0.344044        -9.3619
  60   2.0000      -0.334923        -9.1137
  61   2.0000      -0.329192        -8.9578
  62   2.0000      -0.310964        -8.4618
  63   2.0000      -0.297365        -8.0917
  64   2.0000      -0.284698        -7.7470
  65   2.0000      -0.259769        -7.0687
  66   2.0000      -0.249139        -6.7794
  67   2.0000      -0.241112        -6.5610
  68   2.0000      -0.236383        -6.4323
  69   2.0000      -0.229530        -6.2458
  70   2.0000      -0.223976        -6.0947
  71   2.0000      -0.219484        -5.9725
  72   2.0000      -0.210094        -5.7169
  73   2.0000      -0.207641        -5.6502
  74   2.0000      -0.176532        -4.8037
  75   2.0000      -0.169398        -4.6096
  76   2.0000      -0.164485        -4.4759
  77   2.0000      -0.151517        -4.1230
  78   2.0000      -0.145688        -3.9644
  79   2.0000      -0.136236        -3.7072
  80   2.0000      -0.134511        -3.6602
  81   2.0000      -0.112994        -3.0747
  82   0.0000       0.049697         1.3523
  83   0.0000       0.072771         1.9802
  84   0.0000       0.078565         2.1379
  85   0.0000       0.112784         3.0690
  86   0.0000       0.144538         3.9331

MULLIKEN ATOMIC CHARGES
-----------------------
   0 Pd:    0.190272
   1 Cl:   -0.350093
   2 Cl:   -0.329167
   3 Cl:   -0.429753
   4 N :   -0.571894
   5 C :    0.049530
   6 C :   -0.331703
   7 C :   -0.155734
   8 C :    0.401142
   9 C :    0.038484
  10 H :    0.208915
  11 H :    0.275858
  12 H :    0.218122
  13 C :   -0.037972
  14 C :   -0.302075
  15 C :   -0.276466
  16 C :    0.129378
  17 H :    0.191842
  18 H :    0.193541
  19 C :   -0.148343
  20 C :   -0.323134
  21 C :   -0.354325
  22 C :   -0.186995
  23 H :    0.185822
  24 H :    0.189877
  25 H :    0.312544
  26 H :    0.212326
Sum of atomic charges:   -1.0000000

LOEWDIN ATOMIC CHARGES
----------------------
   0 Pd:   -0.821638
   1 Cl:   -0.085702
   2 Cl:   -0.187425
   3 Cl:   -0.173379
   4 N :    0.038606
   5 C :    0.009448
   6 C :   -0.171275
   7 C :   -0.089061
   8 C :    0.092874
   9 C :   -0.054656
  10 H :    0.134228
  11 H :    0.163077
  12 H :    0.139526
  13 C :   -0.033035
  14 C :   -0.146146
  15 C :   -0.118078
  16 C :   -0.035961
  17 H :    0.128612
  18 H :    0.129636
  19 C :   -0.099668
  20 C :   -0.159006
  21 C :   -0.152511
  22 C :   -0.134081
  23 H :    0.122510
  24 H :    0.124212
  25 H :    0.247623
  26 H :    0.131273

  Mayer bond orders larger than 0.100000
B(  0-Pd,  1-Cl) :   0.9222 B(  0-Pd,  3-Cl) :   0.7827 B(  0-Pd,  4-N ) :   0.4010
B(  0-Pd, 19-C ) :   0.4899 B(  2-Cl, 25-H ) :   0.8102 B(  4-N ,  5-C ) :   1.4665
B(  4-N ,  8-C ) :   1.1447 B(  5-C ,  6-C ) :   1.3255 B(  5-C , 11-H ) :   0.8927
B(  6-C ,  7-C ) :   1.4525 B(  6-C , 12-H ) :   0.9200 B(  7-C ,  9-C ) :   1.2838
B(  7-C , 10-H ) :   0.9291 B(  8-C ,  9-C ) :   1.2199 B(  8-C , 13-C ) :   1.1370
B(  9-C , 14-C ) :   1.1664 B( 13-C , 16-C ) :   1.2620 B( 13-C , 19-C ) :   1.2847
B( 14-C , 15-C ) :   1.6443 B( 14-C , 17-H ) :   0.9300 B( 15-C , 16-C ) :   1.1559
B( 15-C , 18-H ) :   0.9282 B( 16-C , 20-C ) :   1.2859 B( 19-C , 21-C ) :   1.4789
B( 20-C , 22-C ) :   1.4954 B( 20-C , 23-H ) :   0.9301 B( 21-C , 22-C ) :   1.3472
B( 21-C , 26-H ) :   0.9177 B( 22-C , 24-H ) :   0.9236

Dispersion correction           -0.024069122
FINAL SINGLE POINT ENERGY     -2061.453108481224
Dispersion correction            ... done

DIPOLE MOMENT
-------------
                                X             Y             Z
Electronic contribution:    -79.70782     -59.16485      24.30372
Nuclear contribution   :     83.06300      61.92725     -23.71902
                        -----------------------------------------
Total Dipole Moment    :      3.35518       2.76240       0.58470
                        -----------------------------------------
Magnitude (a.u.)       :      4.38520
Magnitude (Debye)      :     11.14629

Rotational constants in cm-1:     0.011536     0.007510     0.005649
Rotational constants in MHz :   345.847479   225.155343   169.338914

                             ****ORCA TERMINATED NORMALLY****
TOTAL RUN TIME: 0 days 0 hours 7 minutes 42 seconds 670 msec
