                         Program Version 5.0.3 -  RELEASE  -
|  1> ! EnGrad PBEh-3c
|  2> %output
|  3> xyzfile=True
|  4> end
|  5> %scf
|  6> maxiter 250
|  7> end
|  8> %output
|  9> Print[P_Hirshfeld] = 1
| 10> end
| 11> % maxcore
| 12> 4000
| 13> *xyz -1 1
| 14> Pd  -2.04507817  -1.59937803   0.51876277
| 15> Cl  -3.42673991  -3.27908590  -0.21613154
| 16> Cl  -0.59623859  -4.43009114   1.06800914
| 17> Cl  -4.01657587  -0.33494872   0.90737816
| 18> N   -0.96917314  -0.08507954   1.40615005
| 19> C   -1.29180038   0.46171639   2.56986491
| 20> C   -0.77144373   1.69079275   2.99918065
| 21> C    0.08523536   2.36540943   2.16714421
| 22> C   -0.06899030   0.50640609   0.60618198
| 23> C    0.45323441   1.77476439   0.95203772
| 24> H    0.49110518   3.32962664   2.44866528
| 25> H   -1.98785767  -0.07823467   3.20099194
| 26> H   -1.08308328   2.10992941   3.94598227
| 27> C    0.32937035  -0.18286511  -0.59229833
| 28> C    1.35390989   2.43679196   0.05088487
| 29> C    1.69928406   1.84824704  -1.11016599
| 30> C    1.21398004   0.53278846  -1.45315176
| 31> H    1.75180752   3.41300446   0.32062502
| 32> H    2.37834693   2.35700079  -1.79413878
| 33> C   -0.15129549  -1.48579723  -0.87985954
| 34> C    1.66113809  -0.06352780  -2.64965549
| 35> C    0.31149452  -2.00375046  -2.08501337
| 36> C    1.20682832  -1.32200974  -2.95330475
| 37> H    2.34301585   0.47386873  -3.31375723
| 38> H    1.57774891  -1.79482592  -3.87176988
| 39> H   -0.43170113  -3.66981714   0.20940633
| 40> H   -0.02162793  -2.97582565  -2.44670672
| 41> *
| 42>
| 43>                          ****END OF INPUT****

CARTESIAN COORDINATES (ANGSTROEM)
---------------------------------
  Pd    -2.045078   -1.599378    0.518763
  Cl    -3.426740   -3.279086   -0.216132
  Cl    -0.596239   -4.430091    1.068009
  Cl    -4.016576   -0.334949    0.907378
  N     -0.969173   -0.085080    1.406150
  C     -1.291800    0.461716    2.569865
  C     -0.771444    1.690793    2.999181
  C      0.085235    2.365409    2.167144
  C     -0.068990    0.506406    0.606182
  C      0.453234    1.774764    0.952038
  H      0.491105    3.329627    2.448665
  H     -1.987858   -0.078235    3.200992
  H     -1.083083    2.109929    3.945982
  C      0.329370   -0.182865   -0.592298
  C      1.353910    2.436792    0.050885
  C      1.699284    1.848247   -1.110166
  C      1.213980    0.532788   -1.453152
  H      1.751808    3.413004    0.320625
  H      2.378347    2.357001   -1.794139
  C     -0.151295   -1.485797   -0.879860
  C      1.661138   -0.063528   -2.649655
  C      0.311495   -2.003750   -2.085013
  C      1.206828   -1.322010   -2.953305
  H      2.343016    0.473869   -3.313757
  H      1.577749   -1.794826   -3.871770
  H     -0.431701   -3.669817    0.209406
  H     -0.021628   -2.975826   -2.446707

 Total Charge           Charge          ....   -1
 Multiplicity           Mult            ....    1
 Number of Electrons    NEL             ....  164
 Basis Dimension        Dim             ....  313

ORBITAL ENERGIES
----------------

  NO   OCC          E(Eh)            E(eV)
   0   2.0000    -102.147468     -2779.5739
   1   2.0000    -102.071248     -2777.4999
   2   2.0000    -102.070933     -2777.4913
   3   2.0000     -14.591551      -397.0563
   4   2.0000     -10.405184      -283.1395
   5   2.0000     -10.404223      -283.1133
   6   2.0000     -10.387780      -282.6659
   7   2.0000     -10.380582      -282.4700
   8   2.0000     -10.374412      -282.3021
   9   2.0000     -10.369135      -282.1585
  10   2.0000     -10.368159      -282.1320
  11   2.0000     -10.364561      -282.0340
  12   2.0000     -10.353716      -281.7389
  13   2.0000     -10.350813      -281.6599
  14   2.0000     -10.348324      -281.5922
  15   2.0000     -10.335225      -281.2358
  16   2.0000     -10.328510      -281.0530
  17   2.0000      -9.621195      -261.8060
  18   2.0000      -9.535704      -259.4797
  19   2.0000      -9.534505      -259.4471
  20   2.0000      -7.308220      -198.8668
  21   2.0000      -7.300508      -198.6569
  22   2.0000      -7.300188      -198.6482
  23   2.0000      -7.221800      -196.5152
  24   2.0000      -7.220240      -196.4727
  25   2.0000      -7.216626      -196.3744
  26   2.0000      -7.216269      -196.3647
  27   2.0000      -7.215712      -196.3495
  28   2.0000      -7.215396      -196.3409
  29   2.0000      -3.507434       -95.4421
  30   2.0000      -2.158323       -58.7310
  31   2.0000      -2.144986       -58.3680
  32   2.0000      -2.119232       -57.6672
  33   2.0000      -0.985840       -26.8261
  34   2.0000      -0.873378       -23.7658
  35   2.0000      -0.839664       -22.8484
  36   2.0000      -0.808313       -21.9953
  37   2.0000      -0.806128       -21.9359
  38   2.0000      -0.771261       -20.9871
  39   2.0000      -0.731167       -19.8961
  40   2.0000      -0.711517       -19.3614
  41   2.0000      -0.667292       -18.1579
  42   2.0000      -0.655366       -17.8334
  43   2.0000      -0.640483       -17.4284
  44   2.0000      -0.633696       -17.2438
  45   2.0000      -0.601143       -16.3579
  46   2.0000      -0.564046       -15.3485
  47   2.0000      -0.521190       -14.1823
  48   2.0000      -0.509327       -13.8595
  49   2.0000      -0.488606       -13.2956
  50   2.0000      -0.452912       -12.3244
  51   2.0000      -0.451310       -12.2808
  52   2.0000      -0.423935       -11.5358
  53   2.0000      -0.408809       -11.1243
  54   2.0000      -0.402240       -10.9455
  55   2.0000      -0.400948       -10.9104
  56   2.0000      -0.393176       -10.6989
  57   2.0000      -0.377361       -10.2685
  58   2.0000      -0.367693       -10.0054
  59   2.0000      -0.342238        -9.3128
  60   2.0000      -0.334349        -9.0981
  61   2.0000      -0.329944        -8.9782
  62   2.0000      -0.309283        -8.4160
  63   2.0000      -0.296957        -8.0806
  64   2.0000      -0.284416        -7.7393
  65   2.0000      -0.259588        -7.0638
  66   2.0000      -0.251801        -6.8518
  67   2.0000      -0.246212        -6.6998
  68   2.0000      -0.240114        -6.5338
  69   2.0000      -0.235390        -6.4053
  70   2.0000      -0.223757        -6.0887
  71   2.0000      -0.217420        -5.9163
  72   2.0000      -0.206041        -5.6067
  73   2.0000      -0.202103        -5.4995
  74   2.0000      -0.175910        -4.7868
  75   2.0000      -0.166190        -4.5223
  76   2.0000      -0.163675        -4.4538
  77   2.0000      -0.149458        -4.0670
  78   2.0000      -0.142897        -3.8884
  79   2.0000      -0.133018        -3.6196
  80   2.0000      -0.131074        -3.5667
  81   2.0000      -0.109756        -2.9866
  82   0.0000       0.051743         1.4080
  83   0.0000       0.075385         2.0513
  84   0.0000       0.083711         2.2779
  85   0.0000       0.113226         3.0810
  86   0.0000       0.150165         4.0862

MULLIKEN ATOMIC CHARGES
-----------------------
   0 Pd:    0.170871
   1 Cl:   -0.364037
   2 Cl:   -0.321223
   3 Cl:   -0.434448
   4 N :   -0.573352
   5 C :    0.047412
   6 C :   -0.334685
   7 C :   -0.151524
   8 C :    0.412172
   9 C :    0.030546
  10 H :    0.209113
  11 H :    0.275447
  12 H :    0.217325
  13 C :    0.002661
  14 C :   -0.303888
  15 C :   -0.273008
  16 C :    0.104116
  17 H :    0.190150
  18 H :    0.192544
  19 C :   -0.152817
  20 C :   -0.317343
  21 C :   -0.354019
  22 C :   -0.195639
  23 H :    0.185362
  24 H :    0.186854
  25 H :    0.339256
  26 H :    0.212156
Sum of atomic charges:   -1.0000000

LOEWDIN ATOMIC CHARGES
----------------------
   0 Pd:   -0.829636
   1 Cl:   -0.104221
   2 Cl:   -0.115323
   3 Cl:   -0.179744
   4 N :    0.042360
   5 C :    0.009752
   6 C :   -0.170848
   7 C :   -0.090445
   8 C :    0.091506
   9 C :   -0.053117
  10 H :    0.134444
  11 H :    0.163909
  12 H :    0.138923
  13 C :   -0.034491
  14 C :   -0.146045
  15 C :   -0.118968
  16 C :   -0.032718
  17 H :    0.127788
  18 H :    0.129374
  19 C :   -0.093033
  20 C :   -0.159966
  21 C :   -0.147242
  22 C :   -0.133675
  23 H :    0.122425
  24 H :    0.122661
  25 H :    0.194018
  26 H :    0.132313

  Mayer bond orders larger than 0.100000
B(  0-Pd,  1-Cl) :   0.9118 B(  0-Pd,  3-Cl) :   0.7709 B(  0-Pd,  4-N ) :   0.4075
B(  0-Pd, 19-C ) :   0.5358 B(  2-Cl, 25-H ) :   0.8146 B(  4-N ,  5-C ) :   1.4615
B(  4-N ,  8-C ) :   1.1451 B(  5-C ,  6-C ) :   1.3267 B(  5-C , 11-H ) :   0.8928
B(  6-C ,  7-C ) :   1.4478 B(  6-C , 12-H ) :   0.9200 B(  7-C ,  9-C ) :   1.2883
B(  7-C , 10-H ) :   0.9287 B(  8-C ,  9-C ) :   1.2135 B(  8-C , 13-C ) :   1.1265
B(  9-C , 14-C ) :   1.1621 B( 13-C , 16-C ) :   1.2686 B( 13-C , 19-C ) :   1.2575
B( 14-C , 15-C ) :   1.6488 B( 14-C , 17-H ) :   0.9302 B( 15-C , 16-C ) :   1.1507
B( 15-C , 18-H ) :   0.9284 B( 16-C , 20-C ) :   1.2868 B( 19-C , 21-C ) :   1.4856
B( 20-C , 22-C ) :   1.4961 B( 20-C , 23-H ) :   0.9302 B( 21-C , 22-C ) :   1.3443
B( 21-C , 26-H ) :   0.9176 B( 22-C , 24-H ) :   0.9244

Dispersion correction           -0.024193422
FINAL SINGLE POINT ENERGY     -2061.449169662579
Dispersion correction            ... done

DIPOLE MOMENT
-------------
                                X             Y             Z
Electronic contribution:    -78.49155     -58.17027      21.72989
Nuclear contribution   :     81.94569      60.75427     -21.04660
                        -----------------------------------------
Total Dipole Moment    :      3.45414       2.58400       0.68329
                        -----------------------------------------
Magnitude (a.u.)       :      4.36749
Magnitude (Debye)      :     11.10129

Rotational constants in cm-1:     0.011721     0.007699     0.005752
Rotational constants in MHz :   351.383795   230.800408   172.453281

                             ****ORCA TERMINATED NORMALLY****
TOTAL RUN TIME: 0 days 0 hours 10 minutes 56 seconds 323 msec
