                         Program Version 5.0.3 -  RELEASE  -
|  1> ! EnGrad PBEh-3c
|  2> %output
|  3> xyzfile=True
|  4> end
|  5> %scf
|  6> maxiter 250
|  7> end
|  8> %output
|  9> Print[P_Hirshfeld] = 1
| 10> end
| 11> % maxcore
| 12> 4000
| 13> *xyz -1 1
| 14> Pd  -2.03133495  -1.56481918   0.48231859
| 15> Cl  -3.42692405  -3.27856247  -0.22212316
| 16> Cl  -0.59793468  -4.44079687   1.09222294
| 17> Cl  -3.99915458  -0.32621009   0.90485146
| 18> N   -0.96500966  -0.08780588   1.40345327
| 19> C   -1.29138593   0.45523629   2.56661787
| 20> C   -0.77127388   1.67937582   2.99856616
| 21> C    0.08472019   2.35638546   2.16652833
| 22> C   -0.06488687   0.50544339   0.60143896
| 23> C    0.45596122   1.76998736   0.95061819
| 24> H    0.48934020   3.32708374   2.44602572
| 25> H   -1.99388867  -0.08358191   3.20018763
| 26> H   -1.08022129   2.10076688   3.94767338
| 27> C    0.33315174  -0.18066356  -0.59147951
| 28> C    1.34755882   2.43475638   0.05319528
| 29> C    1.69322416   1.84095885  -1.11186576
| 30> C    1.21287124   0.52549591  -1.44885758
| 31> H    1.74574539   3.41277646   0.32074894
| 32> H    2.37218179   2.35595670  -1.79716302
| 33> C   -0.15927933  -1.47529177  -0.87683702
| 34> C    1.65306084  -0.06296203  -2.64672144
| 35> C    0.30998063  -2.00918334  -2.08166904
| 36> C    1.20359837  -1.33030412  -2.94467231
| 37> H    2.34116467   0.47631385  -3.31291804
| 38> H    1.57049501  -1.79418308  -3.86554797
| 39> H   -0.42473368  -3.63072360   0.21173567
| 40> H   -0.01360176  -2.98185713  -2.44043716
| 41> *
| 42>
| 43>                          ****END OF INPUT****

CARTESIAN COORDINATES (ANGSTROEM)
---------------------------------
  Pd    -2.031335   -1.564819    0.482319
  Cl    -3.426924   -3.278562   -0.222123
  Cl    -0.597935   -4.440797    1.092223
  Cl    -3.999155   -0.326210    0.904851
  N     -0.965010   -0.087806    1.403453
  C     -1.291386    0.455236    2.566618
  C     -0.771274    1.679376    2.998566
  C      0.084720    2.356385    2.166528
  C     -0.064887    0.505443    0.601439
  C      0.455961    1.769987    0.950618
  H      0.489340    3.327084    2.446026
  H     -1.993889   -0.083582    3.200188
  H     -1.080221    2.100767    3.947673
  C      0.333152   -0.180664   -0.591480
  C      1.347559    2.434756    0.053195
  C      1.693224    1.840959   -1.111866
  C      1.212871    0.525496   -1.448858
  H      1.745745    3.412776    0.320749
  H      2.372182    2.355957   -1.797163
  C     -0.159279   -1.475292   -0.876837
  C      1.653061   -0.062962   -2.646721
  C      0.309981   -2.009183   -2.081669
  C      1.203598   -1.330304   -2.944672
  H      2.341165    0.476314   -3.312918
  H      1.570495   -1.794183   -3.865548
  H     -0.424734   -3.630724    0.211736
  H     -0.013602   -2.981857   -2.440437

 Total Charge           Charge          ....   -1
 Multiplicity           Mult            ....    1
 Number of Electrons    NEL             ....  164
 Basis Dimension        Dim             ....  313

ORBITAL ENERGIES
----------------

  NO   OCC          E(Eh)            E(eV)
   0   2.0000    -102.147937     -2779.5867
   1   2.0000    -102.071272     -2777.5005
   2   2.0000    -102.068224     -2777.4176
   3   2.0000     -14.592594      -397.0847
   4   2.0000     -10.406058      -283.1632
   5   2.0000     -10.404528      -283.1216
   6   2.0000     -10.388751      -282.6923
   7   2.0000     -10.380383      -282.4646
   8   2.0000     -10.374977      -282.3175
   9   2.0000     -10.370506      -282.1958
  10   2.0000     -10.369260      -282.1619
  11   2.0000     -10.364565      -282.0342
  12   2.0000     -10.353315      -281.7280
  13   2.0000     -10.351834      -281.6877
  14   2.0000     -10.350011      -281.6381
  15   2.0000     -10.337065      -281.2858
  16   2.0000     -10.331979      -281.1474
  17   2.0000      -9.619590      -261.7624
  18   2.0000      -9.534968      -259.4597
  19   2.0000      -9.532425      -259.3905
  20   2.0000      -7.306631      -198.8235
  21   2.0000      -7.299109      -198.6188
  22   2.0000      -7.298805      -198.6106
  23   2.0000      -7.220668      -196.4844
  24   2.0000      -7.218473      -196.4246
  25   2.0000      -7.216195      -196.3626
  26   2.0000      -7.215849      -196.3532
  27   2.0000      -7.213414      -196.2870
  28   2.0000      -7.213048      -196.2770
  29   2.0000      -3.508535       -95.4721
  30   2.0000      -2.158632       -58.7394
  31   2.0000      -2.146857       -58.4189
  32   2.0000      -2.120158       -57.6924
  33   2.0000      -0.987332       -26.8667
  34   2.0000      -0.876357       -23.8469
  35   2.0000      -0.841250       -22.8916
  36   2.0000      -0.807587       -21.9755
  37   2.0000      -0.795182       -21.6380
  38   2.0000      -0.772660       -21.0252
  39   2.0000      -0.734081       -19.9754
  40   2.0000      -0.712219       -19.3805
  41   2.0000      -0.665441       -18.1076
  42   2.0000      -0.654240       -17.8028
  43   2.0000      -0.641392       -17.4532
  44   2.0000      -0.635175       -17.2840
  45   2.0000      -0.602999       -16.4084
  46   2.0000      -0.566131       -15.4052
  47   2.0000      -0.522513       -14.2183
  48   2.0000      -0.510669       -13.8960
  49   2.0000      -0.489816       -13.3286
  50   2.0000      -0.454345       -12.3633
  51   2.0000      -0.452315       -12.3081
  52   2.0000      -0.423962       -11.5366
  53   2.0000      -0.409669       -11.1477
  54   2.0000      -0.403700       -10.9852
  55   2.0000      -0.397660       -10.8209
  56   2.0000      -0.390461       -10.6250
  57   2.0000      -0.378380       -10.2962
  58   2.0000      -0.368550       -10.0287
  59   2.0000      -0.344452        -9.3730
  60   2.0000      -0.336797        -9.1647
  61   2.0000      -0.331753        -9.0275
  62   2.0000      -0.310338        -8.4447
  63   2.0000      -0.298370        -8.1191
  64   2.0000      -0.285641        -7.7727
  65   2.0000      -0.260214        -7.0808
  66   2.0000      -0.249289        -6.7835
  67   2.0000      -0.244663        -6.6576
  68   2.0000      -0.239610        -6.5201
  69   2.0000      -0.235943        -6.4203
  70   2.0000      -0.226224        -6.1559
  71   2.0000      -0.217929        -5.9301
  72   2.0000      -0.206247        -5.6123
  73   2.0000      -0.196998        -5.3606
  74   2.0000      -0.177953        -4.8423
  75   2.0000      -0.167034        -4.5452
  76   2.0000      -0.164650        -4.4804
  77   2.0000      -0.149391        -4.0651
  78   2.0000      -0.142806        -3.8860
  79   2.0000      -0.132306        -3.6002
  80   2.0000      -0.129830        -3.5329
  81   2.0000      -0.111163        -3.0249
  82   0.0000       0.050546         1.3754
  83   0.0000       0.073895         2.0108
  84   0.0000       0.085764         2.3337
  85   0.0000       0.112733         3.0676
  86   0.0000       0.148593         4.0434

MULLIKEN ATOMIC CHARGES
-----------------------
   0 Pd:    0.178208
   1 Cl:   -0.375213
   2 Cl:   -0.326050
   3 Cl:   -0.431254
   4 N :   -0.578691
   5 C :    0.047600
   6 C :   -0.334038
   7 C :   -0.154281
   8 C :    0.416504
   9 C :    0.035489
  10 H :    0.208934
  11 H :    0.276363
  12 H :    0.217715
  13 C :    0.017860
  14 C :   -0.305721
  15 C :   -0.281374
  16 C :    0.112888
  17 H :    0.190901
  18 H :    0.192629
  19 C :   -0.163823
  20 C :   -0.322407
  21 C :   -0.349935
  22 C :   -0.196383
  23 H :    0.185716
  24 H :    0.188303
  25 H :    0.335425
  26 H :    0.214634
Sum of atomic charges:   -1.0000000

LOEWDIN ATOMIC CHARGES
----------------------
   0 Pd:   -0.828218
   1 Cl:   -0.122453
   2 Cl:   -0.136518
   3 Cl:   -0.174405
   4 N :    0.043392
   5 C :    0.009881
   6 C :   -0.170432
   7 C :   -0.089441
   8 C :    0.093426
   9 C :   -0.054175
  10 H :    0.134431
  11 H :    0.164856
  12 H :    0.139246
  13 C :   -0.035454
  14 C :   -0.145572
  15 C :   -0.117544
  16 C :   -0.032952
  17 H :    0.128148
  18 H :    0.129432
  19 C :   -0.085182
  20 C :   -0.158785
  21 C :   -0.145358
  22 C :   -0.132978
  23 H :    0.122832
  24 H :    0.123064
  25 H :    0.206729
  26 H :    0.134032

  Mayer bond orders larger than 0.100000
B(  0-Pd,  1-Cl) :   0.8986 B(  0-Pd,  3-Cl) :   0.7732 B(  0-Pd,  4-N ) :   0.4165
B(  0-Pd, 19-C ) :   0.5545 B(  2-Cl, 25-H ) :   0.8141 B(  4-N ,  5-C ) :   1.4605
B(  4-N ,  8-C ) :   1.1347 B(  5-C ,  6-C ) :   1.3249 B(  5-C , 11-H ) :   0.8922
B(  6-C ,  7-C ) :   1.4488 B(  6-C , 12-H ) :   0.9198 B(  7-C ,  9-C ) :   1.2862
B(  7-C , 10-H ) :   0.9288 B(  8-C ,  9-C ) :   1.2149 B(  8-C , 13-C ) :   1.1306
B(  9-C , 14-C ) :   1.1634 B( 13-C , 16-C ) :   1.2658 B( 13-C , 19-C ) :   1.2514
B( 14-C , 15-C ) :   1.6480 B( 14-C , 17-H ) :   0.9303 B( 15-C , 16-C ) :   1.1497
B( 15-C , 18-H ) :   0.9288 B( 16-C , 20-C ) :   1.2878 B( 19-C , 21-C ) :   1.4737
B( 20-C , 22-C ) :   1.4892 B( 20-C , 23-H ) :   0.9307 B( 21-C , 22-C ) :   1.3537
B( 21-C , 26-H ) :   0.9176 B( 22-C , 24-H ) :   0.9241

Dispersion correction           -0.024149041
FINAL SINGLE POINT ENERGY     -2061.460763375468
Dispersion correction            ... done

DIPOLE MOMENT
-------------
                                X             Y             Z
Electronic contribution:    -77.77741     -56.25635      19.77861
Nuclear contribution   :     81.28233      58.95316     -19.14134
                        -----------------------------------------
Total Dipole Moment    :      3.50492       2.69680       0.63726
                        -----------------------------------------
Magnitude (a.u.)       :      4.46803
Magnitude (Debye)      :     11.35683

Rotational constants in cm-1:     0.011735     0.007731     0.005789
Rotational constants in MHz :   351.809587   231.769692   173.556623

                             ****ORCA TERMINATED NORMALLY****
TOTAL RUN TIME: 0 days 0 hours 9 minutes 39 seconds 376 msec
