                         Program Version 5.0.3 -  RELEASE  -
|  1> ! EnGrad PBEh-3c
|  2> %output
|  3> xyzfile=True
|  4> end
|  5> %scf
|  6> maxiter 250
|  7> end
|  8> %output
|  9> Print[P_Hirshfeld] = 1
| 10> end
| 11> % maxcore
| 12> 4000
| 13> *xyz -1 1
| 14> Pd  -2.00730731  -1.52187911   0.41311584
| 15> Cl  -3.42668260  -3.27022334  -0.22881731
| 16> Cl  -0.59982279  -4.44646617   1.12427479
| 17> Cl  -3.97147205  -0.30350669   0.89755698
| 18> N   -0.96379604  -0.09607889   1.39949276
| 19> C   -1.29401229   0.44013722   2.56615919
| 20> C   -0.76864613   1.66132059   2.99942885
| 21> C    0.08410977   2.34187265   2.16650116
| 22> C   -0.05762291   0.50299234   0.60274556
| 23> C    0.46011375   1.76545128   0.94992582
| 24> H    0.48498607   3.31834504   2.44018337
| 25> H   -1.99975481  -0.09158324   3.19434316
| 26> H   -1.07466785   2.08246940   3.94957815
| 27> C    0.34021238  -0.17899850  -0.58965382
| 28> C    1.34057689   2.43103111   0.04994547
| 29> C    1.68325297   1.83489899  -1.11080345
| 30> C    1.21758686   0.52242089  -1.45058507
| 31> H    1.73295915   3.41008368   0.32029590
| 32> H    2.35721663   2.35122481  -1.80113538
| 33> C   -0.17849938  -1.47758101  -0.86897477
| 34> C    1.64361407  -0.06521642  -2.64479510
| 35> C    0.31074767  -2.01801551  -2.07331596
| 36> C    1.20019510  -1.33600613  -2.93580985
| 37> H    2.33289379   0.47841443  -3.30760774
| 38> H    1.55918099  -1.79513339  -3.85623547
| 39> H   -0.41536033  -3.55374895   0.22944992
| 40> H    0.00082959  -2.99550149  -2.42856728
| 41> *
| 42>
| 43>                          ****END OF INPUT****

CARTESIAN COORDINATES (ANGSTROEM)
---------------------------------
  Pd    -2.007307   -1.521879    0.413116
  Cl    -3.426683   -3.270223   -0.228817
  Cl    -0.599823   -4.446466    1.124275
  Cl    -3.971472   -0.303507    0.897557
  N     -0.963796   -0.096079    1.399493
  C     -1.294012    0.440137    2.566159
  C     -0.768646    1.661321    2.999429
  C      0.084110    2.341873    2.166501
  C     -0.057623    0.502992    0.602746
  C      0.460114    1.765451    0.949926
  H      0.484986    3.318345    2.440183
  H     -1.999755   -0.091583    3.194343
  H     -1.074668    2.082469    3.949578
  C      0.340212   -0.178998   -0.589654
  C      1.340577    2.431031    0.049945
  C      1.683253    1.834899   -1.110803
  C      1.217587    0.522421   -1.450585
  H      1.732959    3.410084    0.320296
  H      2.357217    2.351225   -1.801135
  C     -0.178499   -1.477581   -0.868975
  C      1.643614   -0.065216   -2.644795
  C      0.310748   -2.018016   -2.073316
  C      1.200195   -1.336006   -2.935810
  H      2.332894    0.478414   -3.307608
  H      1.559181   -1.795133   -3.856235
  H     -0.415360   -3.553749    0.229450
  H      0.000830   -2.995501   -2.428567

 Total Charge           Charge          ....   -1
 Multiplicity           Mult            ....    1
 Number of Electrons    NEL             ....  164
 Basis Dimension        Dim             ....  313

ORBITAL ENERGIES
----------------

  NO   OCC          E(Eh)            E(eV)
   0   2.0000    -102.147012     -2779.5615
   1   2.0000    -102.071382     -2777.5035
   2   2.0000    -102.065046     -2777.3311
   3   2.0000     -14.593980      -397.1224
   4   2.0000     -10.407091      -283.1913
   5   2.0000     -10.405092      -283.1370
   6   2.0000     -10.389472      -282.7119
   7   2.0000     -10.380124      -282.4575
   8   2.0000     -10.375819      -282.3404
   9   2.0000     -10.370990      -282.2090
  10   2.0000     -10.369864      -282.1783
  11   2.0000     -10.365072      -282.0479
  12   2.0000     -10.355530      -281.7883
  13   2.0000     -10.353358      -281.7292
  14   2.0000     -10.351276      -281.6725
  15   2.0000     -10.340214      -281.3715
  16   2.0000     -10.338868      -281.3349
  17   2.0000      -9.616367      -261.6747
  18   2.0000      -9.535164      -259.4650
  19   2.0000      -9.529037      -259.2983
  20   2.0000      -7.303499      -198.7383
  21   2.0000      -7.296065      -198.5360
  22   2.0000      -7.295778      -198.5282
  23   2.0000      -7.220788      -196.4876
  24   2.0000      -7.216449      -196.3696
  25   2.0000      -7.216053      -196.3588
  26   2.0000      -7.215031      -196.3310
  27   2.0000      -7.210099      -196.1968
  28   2.0000      -7.209703      -196.1860
  29   2.0000      -3.511337       -95.5483
  30   2.0000      -2.160168       -58.7811
  31   2.0000      -2.150982       -58.5312
  32   2.0000      -2.122721       -57.7622
  33   2.0000      -0.988079       -26.8870
  34   2.0000      -0.879579       -23.9346
  35   2.0000      -0.843055       -22.9407
  36   2.0000      -0.809292       -22.0220
  37   2.0000      -0.778764       -21.1912
  38   2.0000      -0.774949       -21.0874
  39   2.0000      -0.736220       -20.0336
  40   2.0000      -0.714479       -19.4420
  41   2.0000      -0.664472       -18.0812
  42   2.0000      -0.652086       -17.7442
  43   2.0000      -0.643057       -17.4985
  44   2.0000      -0.636559       -17.3217
  45   2.0000      -0.605403       -16.4739
  46   2.0000      -0.568679       -15.4746
  47   2.0000      -0.524524       -14.2730
  48   2.0000      -0.512952       -13.9581
  49   2.0000      -0.491643       -13.3783
  50   2.0000      -0.456126       -12.4118
  51   2.0000      -0.454430       -12.3657
  52   2.0000      -0.425188       -11.5700
  53   2.0000      -0.411141       -11.1877
  54   2.0000      -0.405509       -11.0345
  55   2.0000      -0.398898       -10.8546
  56   2.0000      -0.380331       -10.3493
  57   2.0000      -0.380050       -10.3417
  58   2.0000      -0.370068       -10.0700
  59   2.0000      -0.346535        -9.4297
  60   2.0000      -0.339675        -9.2430
  61   2.0000      -0.333132        -9.0650
  62   2.0000      -0.312518        -8.5040
  63   2.0000      -0.300368        -8.1734
  64   2.0000      -0.287406        -7.8207
  65   2.0000      -0.261668        -7.1203
  66   2.0000      -0.249741        -6.7958
  67   2.0000      -0.245225        -6.6729
  68   2.0000      -0.238393        -6.4870
  69   2.0000      -0.233789        -6.3617
  70   2.0000      -0.230029        -6.2594
  71   2.0000      -0.218551        -5.9471
  72   2.0000      -0.207156        -5.6370
  73   2.0000      -0.190949        -5.1960
  74   2.0000      -0.179285        -4.8786
  75   2.0000      -0.169363        -4.6086
  76   2.0000      -0.167303        -4.5526
  77   2.0000      -0.149892        -4.0788
  78   2.0000      -0.143304        -3.8995
  79   2.0000      -0.131869        -3.5883
  80   2.0000      -0.128103        -3.4859
  81   2.0000      -0.113768        -3.0958
  82   0.0000       0.048956         1.3322
  83   0.0000       0.072136         1.9629
  84   0.0000       0.087767         2.3883
  85   0.0000       0.111598         3.0367
  86   0.0000       0.145889         3.9698

MULLIKEN ATOMIC CHARGES
-----------------------
   0 Pd:    0.188008
   1 Cl:   -0.385952
   2 Cl:   -0.333128
   3 Cl:   -0.429262
   4 N :   -0.582359
   5 C :    0.048836
   6 C :   -0.336407
   7 C :   -0.156763
   8 C :    0.418221
   9 C :    0.043102
  10 H :    0.208480
  11 H :    0.278472
  12 H :    0.218039
  13 C :    0.009476
  14 C :   -0.301390
  15 C :   -0.289129
  16 C :    0.135552
  17 H :    0.191631
  18 H :    0.192069
  19 C :   -0.174690
  20 C :   -0.325763
  21 C :   -0.343694
  22 C :   -0.195278
  23 H :    0.186017
  24 H :    0.190892
  25 H :    0.327697
  26 H :    0.217326
Sum of atomic charges:   -1.0000000

LOEWDIN ATOMIC CHARGES
----------------------
   0 Pd:   -0.827149
   1 Cl:   -0.139026
   2 Cl:   -0.165251
   3 Cl:   -0.174389
   4 N :    0.043305
   5 C :    0.011051
   6 C :   -0.169913
   7 C :   -0.088422
   8 C :    0.094404
   9 C :   -0.055332
  10 H :    0.134198
  11 H :    0.165134
  12 H :    0.139550
  13 C :   -0.031013
  14 C :   -0.144156
  15 C :   -0.116411
  16 C :   -0.034579
  17 H :    0.128715
  18 H :    0.129310
  19 C :   -0.074419
  20 C :   -0.156884
  21 C :   -0.142293
  22 C :   -0.132200
  23 H :    0.123185
  24 H :    0.124360
  25 H :    0.222141
  26 H :    0.136081

  Mayer bond orders larger than 0.100000
B(  0-Pd,  1-Cl) :   0.8864 B(  0-Pd,  3-Cl) :   0.7685 B(  0-Pd,  4-N ) :   0.4248
B(  0-Pd, 19-C ) :   0.5912 B(  2-Cl, 25-H ) :   0.8092 B(  4-N ,  5-C ) :   1.4610
B(  4-N ,  8-C ) :   1.1243 B(  5-C ,  6-C ) :   1.3234 B(  5-C , 11-H ) :   0.8909
B(  6-C ,  7-C ) :   1.4502 B(  6-C , 12-H ) :   0.9200 B(  7-C ,  9-C ) :   1.2855
B(  7-C , 10-H ) :   0.9289 B(  8-C ,  9-C ) :   1.2200 B(  8-C , 13-C ) :   1.1391
B(  9-C , 14-C ) :   1.1642 B( 13-C , 16-C ) :   1.2683 B( 13-C , 19-C ) :   1.2300
B( 14-C , 15-C ) :   1.6473 B( 14-C , 17-H ) :   0.9300 B( 15-C , 16-C ) :   1.1507
B( 15-C , 18-H ) :   0.9290 B( 16-C , 20-C ) :   1.2864 B( 19-C , 21-C ) :   1.4624
B( 20-C , 22-C ) :   1.4865 B( 20-C , 23-H ) :   0.9306 B( 21-C , 22-C ) :   1.3564
B( 21-C , 26-H ) :   0.9171 B( 22-C , 24-H ) :   0.9239

Dispersion correction           -0.024185520
FINAL SINGLE POINT ENERGY     -2061.469196669700
Dispersion correction            ... done

DIPOLE MOMENT
-------------
                                X             Y             Z
Electronic contribution:    -76.56208     -53.92898      16.12485
Nuclear contribution   :     80.12469      56.77618     -15.55877
                        -----------------------------------------
Total Dipole Moment    :      3.56261       2.84720       0.56608
                        -----------------------------------------
Magnitude (a.u.)       :      4.59556
Magnitude (Debye)      :     11.68099

Rotational constants in cm-1:     0.011757     0.007784     0.005850
Rotational constants in MHz :   352.471244   233.360614   175.364383

                             ****ORCA TERMINATED NORMALLY****
TOTAL RUN TIME: 0 days 0 hours 8 minutes 32 seconds 898 msec
