                         Program Version 5.0.3 -  RELEASE  -
|  1> ! EnGrad PBEh-3c
|  2> %output
|  3> xyzfile=True
|  4> end
|  5> %scf
|  6> maxiter 250
|  7> end
|  8> %output
|  9> Print[P_Hirshfeld] = 1
| 10> end
| 11> % maxcore
| 12> 4000
| 13> *xyz -1 1
| 14> Pd  -1.99588170  -1.48480691   0.34335544
| 15> Cl  -3.42701372  -3.25500627  -0.24108783
| 16> Cl  -0.59366299  -4.43058209   1.15149587
| 17> Cl  -3.93412845  -0.27318909   0.88274161
| 18> N   -0.96125601  -0.10379722   1.39651098
| 19> C   -1.29274971   0.42343593   2.56279305
| 20> C   -0.76560862   1.63866178   2.99910311
| 21> C    0.08359705   2.32487619   2.16933195
| 22> C   -0.04958994   0.49994079   0.60883612
| 23> C    0.46596515   1.76217751   0.95054701
| 24> H    0.47766720   3.30339157   2.43357667
| 25> H   -2.00646632  -0.10510097   3.18463003
| 26> H   -1.06756956   2.05806333   3.95264520
| 27> C    0.34842482  -0.18296358  -0.58915845
| 28> C    1.33309137   2.42650986   0.04637056
| 29> C    1.67566253   1.83207751  -1.11269420
| 30> C    1.22208285   0.52181369  -1.45141060
| 31> H    1.71526518   3.40469547   0.31778902
| 32> H    2.33393351   2.34239202  -1.80378606
| 33> C   -0.18976349  -1.48263350  -0.86352253
| 34> C    1.63548917  -0.07253290  -2.64754982
| 35> C    0.31235944  -2.03091697  -2.06401334
| 36> C    1.19841800  -1.33799732  -2.92440569
| 37> H    2.31588021   0.47643380  -3.29810929
| 38> H    1.54536945  -1.79929985  -3.84631312
| 39> H   -0.41053347  -3.45506015   0.26071477
| 40> H    0.01870221  -3.01358713  -2.41164419
| 41> *
| 42>
| 43>                          ****END OF INPUT****

CARTESIAN COORDINATES (ANGSTROEM)
---------------------------------
  Pd    -1.995882   -1.484807    0.343355
  Cl    -3.427014   -3.255006   -0.241088
  Cl    -0.593663   -4.430582    1.151496
  Cl    -3.934128   -0.273189    0.882742
  N     -0.961256   -0.103797    1.396511
  C     -1.292750    0.423436    2.562793
  C     -0.765609    1.638662    2.999103
  C      0.083597    2.324876    2.169332
  C     -0.049590    0.499941    0.608836
  C      0.465965    1.762178    0.950547
  H      0.477667    3.303392    2.433577
  H     -2.006466   -0.105101    3.184630
  H     -1.067570    2.058063    3.952645
  C      0.348425   -0.182964   -0.589158
  C      1.333091    2.426510    0.046371
  C      1.675663    1.832078   -1.112694
  C      1.222083    0.521814   -1.451411
  H      1.715265    3.404695    0.317789
  H      2.333934    2.342392   -1.803786
  C     -0.189763   -1.482633   -0.863523
  C      1.635489   -0.072533   -2.647550
  C      0.312359   -2.030917   -2.064013
  C      1.198418   -1.337997   -2.924406
  H      2.315880    0.476434   -3.298109
  H      1.545369   -1.799300   -3.846313
  H     -0.410533   -3.455060    0.260715
  H      0.018702   -3.013587   -2.411644

 Total Charge           Charge          ....   -1
 Multiplicity           Mult            ....    1
 Number of Electrons    NEL             ....  164
 Basis Dimension        Dim             ....  313

ORBITAL ENERGIES
----------------

  NO   OCC          E(Eh)            E(eV)
   0   2.0000    -102.143887     -2779.4765
   1   2.0000    -102.073020     -2777.5481
   2   2.0000    -102.063622     -2777.2923
   3   2.0000     -14.593757      -397.1163
   4   2.0000     -10.407128      -283.1924
   5   2.0000     -10.405407      -283.1455
   6   2.0000     -10.389367      -282.7090
   7   2.0000     -10.379515      -282.4410
   8   2.0000     -10.375950      -282.3440
   9   2.0000     -10.370435      -282.1939
  10   2.0000     -10.369603      -282.1712
  11   2.0000     -10.365385      -282.0565
  12   2.0000     -10.357580      -281.8441
  13   2.0000     -10.353408      -281.7306
  14   2.0000     -10.350552      -281.6528
  15   2.0000     -10.343077      -281.4494
  16   2.0000     -10.341892      -281.4172
  17   2.0000      -9.611747      -261.5489
  18   2.0000      -9.536980      -259.5144
  19   2.0000      -9.527523      -259.2571
  20   2.0000      -7.298940      -198.6143
  21   2.0000      -7.291558      -198.4134
  22   2.0000      -7.291284      -198.4059
  23   2.0000      -7.222556      -196.5357
  24   2.0000      -7.218290      -196.4196
  25   2.0000      -7.217853      -196.4078
  26   2.0000      -7.213497      -196.2892
  27   2.0000      -7.208615      -196.1564
  28   2.0000      -7.208203      -196.1452
  29   2.0000      -3.513760       -95.6143
  30   2.0000      -2.161266       -58.8110
  31   2.0000      -2.154946       -58.6391
  32   2.0000      -2.125024       -57.8249
  33   2.0000      -0.989777       -26.9332
  34   2.0000      -0.881746       -23.9935
  35   2.0000      -0.844784       -22.9877
  36   2.0000      -0.810837       -22.0640
  37   2.0000      -0.777350       -21.1528
  38   2.0000      -0.764690       -20.8083
  39   2.0000      -0.737538       -20.0694
  40   2.0000      -0.716690       -19.5021
  41   2.0000      -0.666232       -18.1291
  42   2.0000      -0.651435       -17.7265
  43   2.0000      -0.644559       -17.5393
  44   2.0000      -0.637584       -17.3495
  45   2.0000      -0.607847       -16.5404
  46   2.0000      -0.570487       -15.5238
  47   2.0000      -0.526740       -14.3333
  48   2.0000      -0.514898       -14.0111
  49   2.0000      -0.493574       -13.4308
  50   2.0000      -0.457542       -12.4503
  51   2.0000      -0.456488       -12.4217
  52   2.0000      -0.427176       -11.6241
  53   2.0000      -0.411988       -11.2108
  54   2.0000      -0.406510       -11.0617
  55   2.0000      -0.400160       -10.8889
  56   2.0000      -0.381330       -10.3765
  57   2.0000      -0.376150       -10.2356
  58   2.0000      -0.367284        -9.9943
  59   2.0000      -0.347431        -9.4541
  60   2.0000      -0.341832        -9.3017
  61   2.0000      -0.334488        -9.1019
  62   2.0000      -0.313862        -8.5406
  63   2.0000      -0.301858        -8.2140
  64   2.0000      -0.288045        -7.8381
  65   2.0000      -0.263201        -7.1621
  66   2.0000      -0.254743        -6.9319
  67   2.0000      -0.248448        -6.7606
  68   2.0000      -0.236263        -6.4290
  69   2.0000      -0.233393        -6.3510
  70   2.0000      -0.226717        -6.1693
  71   2.0000      -0.218957        -5.9581
  72   2.0000      -0.208526        -5.6743
  73   2.0000      -0.187755        -5.1091
  74   2.0000      -0.180132        -4.9016
  75   2.0000      -0.173106        -4.7105
  76   2.0000      -0.168210        -4.5772
  77   2.0000      -0.150330        -4.0907
  78   2.0000      -0.144125        -3.9218
  79   2.0000      -0.132866        -3.6155
  80   2.0000      -0.126777        -3.4498
  81   2.0000      -0.115769        -3.1502
  82   0.0000       0.047944         1.3046
  83   0.0000       0.071578         1.9477
  84   0.0000       0.088673         2.4129
  85   0.0000       0.110732         3.0132
  86   0.0000       0.144344         3.9278

MULLIKEN ATOMIC CHARGES
-----------------------
   0 Pd:    0.191284
   1 Cl:   -0.390663
   2 Cl:   -0.341885
   3 Cl:   -0.423289
   4 N :   -0.576548
   5 C :    0.048183
   6 C :   -0.337933
   7 C :   -0.157603
   8 C :    0.406324
   9 C :    0.055769
  10 H :    0.208102
  11 H :    0.279200
  12 H :    0.217793
  13 C :    0.003430
  14 C :   -0.300322
  15 C :   -0.288157
  16 C :    0.140220
  17 H :    0.191647
  18 H :    0.193082
  19 C :   -0.187332
  20 C :   -0.318721
  21 C :   -0.332548
  22 C :   -0.197152
  23 H :    0.186697
  24 H :    0.191061
  25 H :    0.319077
  26 H :    0.220282
Sum of atomic charges:   -1.0000000

LOEWDIN ATOMIC CHARGES
----------------------
   0 Pd:   -0.832861
   1 Cl:   -0.144959
   2 Cl:   -0.191869
   3 Cl:   -0.165994
   4 N :    0.042725
   5 C :    0.010456
   6 C :   -0.169354
   7 C :   -0.087159
   8 C :    0.094970
   9 C :   -0.056871
  10 H :    0.133871
  11 H :    0.165032
  12 H :    0.139766
  13 C :   -0.025794
  14 C :   -0.142637
  15 C :   -0.116716
  16 C :   -0.035033
  17 H :    0.128856
  18 H :    0.129697
  19 C :   -0.069985
  20 C :   -0.156240
  21 C :   -0.138637
  22 C :   -0.131333
  23 H :    0.123632
  24 H :    0.124792
  25 H :    0.233532
  26 H :    0.138113

  Mayer bond orders larger than 0.100000
B(  0-Pd,  1-Cl) :   0.8815 B(  0-Pd,  3-Cl) :   0.7696 B(  0-Pd,  4-N ) :   0.4228
B(  0-Pd, 19-C ) :   0.6182 B(  2-Cl, 25-H ) :   0.7982 B(  4-N ,  5-C ) :   1.4670
B(  4-N ,  8-C ) :   1.1274 B(  5-C ,  6-C ) :   1.3198 B(  5-C , 11-H ) :   0.8901
B(  6-C ,  7-C ) :   1.4526 B(  6-C , 12-H ) :   0.9205 B(  7-C ,  9-C ) :   1.2863
B(  7-C , 10-H ) :   0.9289 B(  8-C ,  9-C ) :   1.2239 B(  8-C , 13-C ) :   1.1432
B(  9-C , 14-C ) :   1.1668 B( 13-C , 16-C ) :   1.2750 B( 13-C , 19-C ) :   1.2117
B( 14-C , 15-C ) :   1.6440 B( 14-C , 17-H ) :   0.9299 B( 15-C , 16-C ) :   1.1573
B( 15-C , 18-H ) :   0.9282 B( 16-C , 20-C ) :   1.2830 B( 19-C , 21-C ) :   1.4596
B( 20-C , 22-C ) :   1.4936 B( 20-C , 23-H ) :   0.9297 B( 21-C , 22-C ) :   1.3504
B( 21-C , 26-H ) :   0.9161 B( 22-C , 24-H ) :   0.9244

Dispersion correction           -0.024274671
FINAL SINGLE POINT ENERGY     -2061.470744610075
Dispersion correction            ... done

DIPOLE MOMENT
-------------
                                X             Y             Z
Electronic contribution:    -76.12339     -52.00656      12.51342
Nuclear contribution   :     79.67825      54.99696     -12.00642
                        -----------------------------------------
Total Dipole Moment    :      3.55486       2.99040       0.50701
                        -----------------------------------------
Magnitude (a.u.)       :      4.67296
Magnitude (Debye)      :     11.87773

Rotational constants in cm-1:     0.011784     0.007848     0.005920
Rotational constants in MHz :   353.263800   235.266685   177.471828

                             ****ORCA TERMINATED NORMALLY****
TOTAL RUN TIME: 0 days 0 hours 8 minutes 37 seconds 156 msec
