                         Program Version 5.0.3 -  RELEASE  -
|  1> ! EnGrad PBEh-3c
|  2> %output
|  3> xyzfile=True
|  4> end
|  5> %scf
|  6> maxiter 250
|  7> end
|  8> %output
|  9> Print[P_Hirshfeld] = 1
| 10> end
| 11> % maxcore
| 12> 4000
| 13> *xyz -1 1
| 14> Pd  -2.40923113  -1.63699575   0.81682874
| 15> Cl  -4.09536747  -3.01132698   0.13332564
| 16> Cl  -1.33091702  -3.64611032   1.90475664
| 17> Cl  -3.42992720   0.19709295  -0.14262866
| 18> N   -0.89914810  -0.30286427   1.43648528
| 19> C   -1.16142715   0.18875454   2.63135414
| 20> C   -0.67290992   1.41846584   3.07399561
| 21> C    0.07626954   2.16474182   2.20358234
| 22> C   -0.05615458   0.34928539   0.60968227
| 23> C    0.40221412   1.63949880   0.94723003
| 24> H    0.42682307   3.15192405   2.48029960
| 25> H   -1.81244024  -0.40009269   3.26286385
| 26> H   -0.92595767   1.77422035   4.06205950
| 27> C    0.40623503  -0.27161251  -0.61004269
| 28> C    1.16475021   2.39256960   0.00403827
| 29> C    1.48123721   1.86603619  -1.19666590
| 30> C    1.14265568   0.51662040  -1.52206809
| 31> H    1.46665201   3.39955930   0.26346910
| 32> H    2.03772934   2.45199354  -1.91759596
| 33> C    0.22206859  -1.63034480  -0.90440355
| 34> C    1.59513830  -0.04963725  -2.72371792
| 35> C    0.70064240  -2.17267590  -2.07542802
| 36> C    1.37026591  -1.37292446  -3.00449155
| 37> H    2.14208736   0.56538604  -3.42750491
| 38> H    1.72752377  -1.80365915  -3.93059271
| 39> H   -0.13619920  -2.55226431  -0.09129394
| 40> H    0.56737814  -3.22564044  -2.28354615
| 41> *
| 42>
| 43>                          ****END OF INPUT****

CARTESIAN COORDINATES (ANGSTROEM)
---------------------------------
  Pd    -2.409231   -1.636996    0.816829
  Cl    -4.095367   -3.011327    0.133326
  Cl    -1.330917   -3.646110    1.904757
  Cl    -3.429927    0.197093   -0.142629
  N     -0.899148   -0.302864    1.436485
  C     -1.161427    0.188755    2.631354
  C     -0.672910    1.418466    3.073996
  C      0.076270    2.164742    2.203582
  C     -0.056155    0.349285    0.609682
  C      0.402214    1.639499    0.947230
  H      0.426823    3.151924    2.480300
  H     -1.812440   -0.400093    3.262864
  H     -0.925958    1.774220    4.062060
  C      0.406235   -0.271613   -0.610043
  C      1.164750    2.392570    0.004038
  C      1.481237    1.866036   -1.196666
  C      1.142656    0.516620   -1.522068
  H      1.466652    3.399559    0.263469
  H      2.037729    2.451994   -1.917596
  C      0.222069   -1.630345   -0.904404
  C      1.595138   -0.049637   -2.723718
  C      0.700642   -2.172676   -2.075428
  C      1.370266   -1.372924   -3.004492
  H      2.142087    0.565386   -3.427505
  H      1.727524   -1.803659   -3.930593
  H     -0.136199   -2.552264   -0.091294
  H      0.567378   -3.225640   -2.283546

 Total Charge           Charge          ....   -1
 Multiplicity           Mult            ....    1
 Number of Electrons    NEL             ....  164
 Basis Dimension        Dim             ....  313

ORBITAL ENERGIES
----------------

  NO   OCC          E(Eh)            E(eV)
   0   2.0000    -102.081626     -2777.7823
   1   2.0000    -102.072044     -2777.5215
   2   2.0000    -102.067272     -2777.3917
   3   2.0000     -14.593452      -397.1080
   4   2.0000     -10.419787      -283.5368
   5   2.0000     -10.409641      -283.2607
   6   2.0000     -10.395664      -282.8804
   7   2.0000     -10.390413      -282.7375
   8   2.0000     -10.382790      -282.5301
   9   2.0000     -10.381101      -282.4841
  10   2.0000     -10.380995      -282.4812
  11   2.0000     -10.380329      -282.4631
  12   2.0000     -10.380044      -282.4554
  13   2.0000     -10.368709      -282.1469
  14   2.0000     -10.368520      -282.1418
  15   2.0000     -10.367656      -282.1183
  16   2.0000     -10.357740      -281.8484
  17   2.0000      -9.545538      -259.7473
  18   2.0000      -9.536452      -259.5001
  19   2.0000      -9.529837      -259.3201
  20   2.0000      -7.231575      -196.7812
  21   2.0000      -7.226497      -196.6430
  22   2.0000      -7.226288      -196.6373
  23   2.0000      -7.222805      -196.5425
  24   2.0000      -7.217277      -196.3921
  25   2.0000      -7.216791      -196.3789
  26   2.0000      -7.215233      -196.3365
  27   2.0000      -7.211429      -196.2330
  28   2.0000      -7.211043      -196.2225
  29   2.0000      -3.506868       -95.4267
  30   2.0000      -2.155208       -58.6462
  31   2.0000      -2.148629       -58.4672
  32   2.0000      -2.117952       -57.6324
  33   2.0000      -0.992071       -26.9956
  34   2.0000      -0.896963       -24.4076
  35   2.0000      -0.855921       -23.2908
  36   2.0000      -0.822377       -22.3780
  37   2.0000      -0.789080       -21.4720
  38   2.0000      -0.755166       -20.5491
  39   2.0000      -0.735941       -20.0260
  40   2.0000      -0.674409       -18.3516
  41   2.0000      -0.661039       -17.9878
  42   2.0000      -0.654332       -17.8053
  43   2.0000      -0.650190       -17.6926
  44   2.0000      -0.648906       -17.6576
  45   2.0000      -0.619949       -16.8697
  46   2.0000      -0.588860       -16.0237
  47   2.0000      -0.540046       -14.6954
  48   2.0000      -0.528049       -14.3689
  49   2.0000      -0.503673       -13.7056
  50   2.0000      -0.472065       -12.8455
  51   2.0000      -0.470785       -12.8107
  52   2.0000      -0.441811       -12.0223
  53   2.0000      -0.421205       -11.4616
  54   2.0000      -0.414943       -11.2912
  55   2.0000      -0.405080       -11.0228
  56   2.0000      -0.400696       -10.9035
  57   2.0000      -0.393390       -10.7047
  58   2.0000      -0.376232       -10.2378
  59   2.0000      -0.354744        -9.6531
  60   2.0000      -0.349759        -9.5174
  61   2.0000      -0.328411        -8.9365
  62   2.0000      -0.311740        -8.4829
  63   2.0000      -0.302058        -8.2194
  64   2.0000      -0.288845        -7.8599
  65   2.0000      -0.273227        -7.4349
  66   2.0000      -0.251908        -6.8548
  67   2.0000      -0.249739        -6.7957
  68   2.0000      -0.237298        -6.4572
  69   2.0000      -0.218670        -5.9503
  70   2.0000      -0.216325        -5.8865
  71   2.0000      -0.210983        -5.7411
  72   2.0000      -0.197469        -5.3734
  73   2.0000      -0.178999        -4.8708
  74   2.0000      -0.174016        -4.7352
  75   2.0000      -0.161831        -4.4036
  76   2.0000      -0.154695        -4.2095
  77   2.0000      -0.146098        -3.9755
  78   2.0000      -0.139100        -3.7851
  79   2.0000      -0.133101        -3.6219
  80   2.0000      -0.129918        -3.5352
  81   2.0000      -0.126986        -3.4555
  82   0.0000       0.040223         1.0945
  83   0.0000       0.056855         1.5471
  84   0.0000       0.087461         2.3799
  85   0.0000       0.102500         2.7892
  86   0.0000       0.131105         3.5675

MULLIKEN ATOMIC CHARGES
-----------------------
   0 Pd:    0.087095
   1 Cl:   -0.330627
   2 Cl:   -0.473867
   3 Cl:   -0.393433
   4 N :   -0.538279
   5 C :    0.043447
   6 C :   -0.308926
   7 C :   -0.158702
   8 C :    0.356440
   9 C :    0.047082
  10 H :    0.211685
  11 H :    0.287656
  12 H :    0.221610
  13 C :    0.096911
  14 C :   -0.289853
  15 C :   -0.287220
  16 C :    0.131995
  17 H :    0.198686
  18 H :    0.199123
  19 C :   -0.289117
  20 C :   -0.299733
  21 C :   -0.219267
  22 C :   -0.211736
  23 H :    0.194104
  24 H :    0.201981
  25 H :    0.290841
  26 H :    0.232105
Sum of atomic charges:   -1.0000000

LOEWDIN ATOMIC CHARGES
----------------------
   0 Pd:   -0.951543
   1 Cl:   -0.071749
   2 Cl:   -0.277373
   3 Cl:   -0.123302
   4 N :    0.036752
   5 C :    0.022140
   6 C :   -0.160006
   7 C :   -0.083006
   8 C :    0.094282
   9 C :   -0.047595
  10 H :    0.135882
  11 H :    0.170848
  12 H :    0.141784
  13 C :   -0.018806
  14 C :   -0.132042
  15 C :   -0.117534
  16 C :   -0.026357
  17 H :    0.132138
  18 H :    0.132865
  19 C :   -0.073948
  20 C :   -0.139449
  21 C :   -0.133607
  22 C :   -0.129912
  23 H :    0.127979
  24 H :    0.128998
  25 H :    0.220924
  26 H :    0.141638

  Mayer bond orders larger than 0.100000
B(  0-Pd,  1-Cl) :   0.9520 B(  0-Pd,  2-Cl) :   0.6797 B(  0-Pd,  3-Cl) :   0.8562
B(  0-Pd,  4-N ) :   0.3426 B(  4-N ,  5-C ) :   1.4748 B(  4-N ,  8-C ) :   1.2363
B(  5-C ,  6-C ) :   1.3124 B(  5-C , 11-H ) :   0.8903 B(  6-C ,  7-C ) :   1.4674
B(  6-C , 12-H ) :   0.9189 B(  7-C ,  9-C ) :   1.2784 B(  7-C , 10-H ) :   0.9284
B(  8-C ,  9-C ) :   1.2377 B(  8-C , 13-C ) :   1.1056 B(  9-C , 14-C ) :   1.1612
B( 13-C , 16-C ) :   1.3131 B( 13-C , 19-C ) :   1.2405 B( 14-C , 15-C ) :   1.6526
B( 14-C , 17-H ) :   0.9290 B( 15-C , 16-C ) :   1.1557 B( 15-C , 18-H ) :   0.9277
B( 16-C , 20-C ) :   1.2726 B( 19-C , 21-C ) :   1.4871 B( 19-C , 25-H ) :   0.8251
B( 20-C , 22-C ) :   1.4950 B( 20-C , 23-H ) :   0.9312 B( 21-C , 22-C ) :   1.3491
B( 21-C , 26-H ) :   0.9138 B( 22-C , 24-H ) :   0.9234

Dispersion correction           -0.024466333
FINAL SINGLE POINT ENERGY     -2061.517512757568
Dispersion correction            ... done

DIPOLE MOMENT
-------------
                                X             Y             Z
Electronic contribution:    -94.51673     -62.68598      35.79682
Nuclear contribution   :     98.41634      66.21995     -35.84832
                        -----------------------------------------
Total Dipole Moment    :      3.89961       3.53397      -0.05150
                        -----------------------------------------
Magnitude (a.u.)       :      5.26294
Magnitude (Debye)      :     13.37734

Rotational constants in cm-1:     0.012620     0.007253     0.006003
Rotational constants in MHz :   378.340890   217.430097   179.970200

                             ****ORCA TERMINATED NORMALLY****
TOTAL RUN TIME: 0 days 0 hours 7 minutes 37 seconds 757 msec
