                         Program Version 5.0.3 -  RELEASE  -
|  1> ! EnGrad PBEh-3c
|  2> %output
|  3> xyzfile=True
|  4> end
|  5> %scf
|  6> maxiter 250
|  7> end
|  8> %output
|  9> Print[P_Hirshfeld] = 1
| 10> end
| 11> % maxcore
| 12> 4000
| 13> *xyz -1 1
| 14> Pd  -2.38711731  -1.70400197   0.82938829
| 15> Cl  -4.05145047  -3.03088815   0.11035540
| 16> Cl  -1.30714678  -3.66517001   1.85298041
| 17> Cl  -3.46348208   0.17966392  -0.08742722
| 18> N   -0.90690657  -0.29223024   1.44249453
| 19> C   -1.16801928   0.21202100   2.62956679
| 20> C   -0.68008287   1.43617764   3.06559847
| 21> C    0.07504539   2.17659169   2.20429314
| 22> C   -0.05709970   0.35558573   0.61353357
| 23> C    0.40838210   1.65243463   0.94703300
| 24> H    0.43196622   3.16471014   2.47682356
| 25> H   -1.82646176  -0.37481795   3.25892239
| 26> H   -0.93868361   1.79910125   4.05481532
| 27> C    0.39034608  -0.26568055  -0.60226251
| 28> C    1.17839963   2.39260960   0.00563576
| 29> C    1.49662278   1.86678417  -1.18643315
| 30> C    1.14775014   0.52000663  -1.52328874
| 31> H    1.48759138   3.40078525   0.26800017
| 32> H    2.06302115   2.44522613  -1.90996038
| 33> C    0.17206955  -1.81325152  -0.78736251
| 34> C    1.60117346  -0.05023233  -2.72364082
| 35> C    0.67465252  -2.14451630  -2.09452879
| 36> C    1.35560265  -1.36843177  -3.00822475
| 37> H    2.15692644   0.56262786  -3.41885308
| 38> H    1.71957956  -1.79985810  -3.93146106
| 39> H   -0.10323784  -2.44357473  -0.19394415
| 40> H    0.52961915  -3.21127894  -2.29343601
| 41> *
| 42>
| 43>                          ****END OF INPUT****

CARTESIAN COORDINATES (ANGSTROEM)
---------------------------------
  Pd    -2.387117   -1.704002    0.829388
  Cl    -4.051450   -3.030888    0.110355
  Cl    -1.307147   -3.665170    1.852980
  Cl    -3.463482    0.179664   -0.087427
  N     -0.906907   -0.292230    1.442495
  C     -1.168019    0.212021    2.629567
  C     -0.680083    1.436178    3.065598
  C      0.075045    2.176592    2.204293
  C     -0.057100    0.355586    0.613534
  C      0.408382    1.652435    0.947033
  H      0.431966    3.164710    2.476824
  H     -1.826462   -0.374818    3.258922
  H     -0.938684    1.799101    4.054815
  C      0.390346   -0.265681   -0.602263
  C      1.178400    2.392610    0.005636
  C      1.496623    1.866784   -1.186433
  C      1.147750    0.520007   -1.523289
  H      1.487591    3.400785    0.268000
  H      2.063021    2.445226   -1.909960
  C      0.172070   -1.813252   -0.787363
  C      1.601173   -0.050232   -2.723641
  C      0.674653   -2.144516   -2.094529
  C      1.355603   -1.368432   -3.008225
  H      2.156926    0.562628   -3.418853
  H      1.719580   -1.799858   -3.931461
  H     -0.103238   -2.443575   -0.193944
  H      0.529619   -3.211279   -2.293436

 Total Charge           Charge          ....   -1
 Multiplicity           Mult            ....    1
 Number of Electrons    NEL             ....  164
 Basis Dimension        Dim             ....  313

ORBITAL ENERGIES
----------------

  NO   OCC          E(Eh)            E(eV)
   0   2.0000    -102.076497     -2777.6427
   1   2.0000    -102.074915     -2777.5996
   2   2.0000    -102.070305     -2777.4742
   3   2.0000     -14.591795      -397.0629
   4   2.0000     -10.416679      -283.4522
   5   2.0000     -10.407646      -283.2065
   6   2.0000     -10.394491      -282.8485
   7   2.0000     -10.394271      -282.8425
   8   2.0000     -10.389354      -282.7087
   9   2.0000     -10.386221      -282.6234
  10   2.0000     -10.380755      -282.4747
  11   2.0000     -10.379411      -282.4381
  12   2.0000     -10.379132      -282.4305
  13   2.0000     -10.371254      -282.2162
  14   2.0000     -10.370121      -282.1853
  15   2.0000     -10.369731      -282.1747
  16   2.0000     -10.363909      -282.0163
  17   2.0000      -9.540051      -259.5980
  18   2.0000      -9.539724      -259.5891
  19   2.0000      -9.533125      -259.4095
  20   2.0000      -7.226137      -196.6332
  21   2.0000      -7.226004      -196.6296
  22   2.0000      -7.221101      -196.4961
  23   2.0000      -7.220889      -196.4904
  24   2.0000      -7.220479      -196.4792
  25   2.0000      -7.219950      -196.4648
  26   2.0000      -7.218693      -196.4306
  27   2.0000      -7.214552      -196.3179
  28   2.0000      -7.214267      -196.3102
  29   2.0000      -3.506835       -95.4258
  30   2.0000      -2.155369       -58.6506
  31   2.0000      -2.148008       -58.4503
  32   2.0000      -2.118300       -57.6419
  33   2.0000      -0.989924       -26.9372
  34   2.0000      -0.890482       -24.2312
  35   2.0000      -0.851761       -23.1776
  36   2.0000      -0.821781       -22.3618
  37   2.0000      -0.786045       -21.3894
  38   2.0000      -0.750262       -20.4157
  39   2.0000      -0.737185       -20.0598
  40   2.0000      -0.672695       -18.3050
  41   2.0000      -0.660815       -17.9817
  42   2.0000      -0.658473       -17.9180
  43   2.0000      -0.653545       -17.7839
  44   2.0000      -0.646458       -17.5910
  45   2.0000      -0.613866       -16.7041
  46   2.0000      -0.602303       -16.3895
  47   2.0000      -0.544187       -14.8081
  48   2.0000      -0.522130       -14.2079
  49   2.0000      -0.506284       -13.7767
  50   2.0000      -0.483978       -13.1697
  51   2.0000      -0.467397       -12.7185
  52   2.0000      -0.438299       -11.9267
  53   2.0000      -0.432851       -11.7785
  54   2.0000      -0.420779       -11.4500
  55   2.0000      -0.411495       -11.1973
  56   2.0000      -0.401492       -10.9251
  57   2.0000      -0.389817       -10.6075
  58   2.0000      -0.373843       -10.1728
  59   2.0000      -0.358883        -9.7657
  60   2.0000      -0.349496        -9.5103
  61   2.0000      -0.330339        -8.9890
  62   2.0000      -0.315149        -8.5756
  63   2.0000      -0.302374        -8.2280
  64   2.0000      -0.284643        -7.7455
  65   2.0000      -0.273145        -7.4327
  66   2.0000      -0.249805        -6.7975
  67   2.0000      -0.248352        -6.7580
  68   2.0000      -0.235355        -6.4043
  69   2.0000      -0.220395        -5.9973
  70   2.0000      -0.217478        -5.9179
  71   2.0000      -0.215427        -5.8621
  72   2.0000      -0.194165        -5.2835
  73   2.0000      -0.178576        -4.8593
  74   2.0000      -0.175816        -4.7842
  75   2.0000      -0.163427        -4.4471
  76   2.0000      -0.153998        -4.1905
  77   2.0000      -0.146581        -3.9887
  78   2.0000      -0.138544        -3.7700
  79   2.0000      -0.133117        -3.6223
  80   2.0000      -0.129412        -3.5215
  81   2.0000      -0.127790        -3.4773
  82   0.0000       0.039972         1.0877
  83   0.0000       0.053935         1.4677
  84   0.0000       0.088519         2.4087
  85   0.0000       0.101221         2.7544
  86   0.0000       0.123675         3.3654

MULLIKEN ATOMIC CHARGES
-----------------------
   0 Pd:    0.067925
   1 Cl:   -0.317500
   2 Cl:   -0.460677
   3 Cl:   -0.408866
   4 N :   -0.533929
   5 C :    0.047007
   6 C :   -0.310263
   7 C :   -0.153995
   8 C :    0.371036
   9 C :    0.045398
  10 H :    0.210225
  11 H :    0.284192
  12 H :    0.220522
  13 C :   -0.095377
  14 C :   -0.285057
  15 C :   -0.282236
  16 C :    0.182490
  17 H :    0.197446
  18 H :    0.198878
  19 C :   -0.116423
  20 C :   -0.318336
  21 C :   -0.295815
  22 C :   -0.154035
  23 H :    0.196256
  24 H :    0.206800
  25 H :    0.290457
  26 H :    0.213876
Sum of atomic charges:   -1.0000000

LOEWDIN ATOMIC CHARGES
----------------------
   0 Pd:   -0.958285
   1 Cl:   -0.046894
   2 Cl:   -0.243260
   3 Cl:   -0.156298
   4 N :    0.033302
   5 C :    0.019641
   6 C :   -0.161545
   7 C :   -0.083189
   8 C :    0.082553
   9 C :   -0.047464
  10 H :    0.135186
  11 H :    0.169119
  12 H :    0.141677
  13 C :    0.007796
  14 C :   -0.133103
  15 C :   -0.119142
  16 C :   -0.035848
  17 H :    0.131893
  18 H :    0.133282
  19 C :   -0.038269
  20 C :   -0.131512
  21 C :   -0.123666
  22 C :   -0.138734
  23 H :    0.127902
  24 H :    0.134195
  25 H :    0.164466
  26 H :    0.136197

  Mayer bond orders larger than 0.100000
B(  0-Pd,  1-Cl) :   0.9681 B(  0-Pd,  2-Cl) :   0.7264 B(  0-Pd,  3-Cl) :   0.8255
B(  0-Pd,  4-N ) :   0.3318 B(  4-N ,  5-C ) :   1.4863 B(  4-N ,  8-C ) :   1.2215
B(  5-C ,  6-C ) :   1.3059 B(  5-C , 11-H ) :   0.8928 B(  6-C ,  7-C ) :   1.4706
B(  6-C , 12-H ) :   0.9190 B(  7-C ,  9-C ) :   1.2754 B(  7-C , 10-H ) :   0.9285
B(  8-C ,  9-C ) :   1.2329 B(  8-C , 13-C ) :   1.1303 B(  9-C , 14-C ) :   1.1706
B( 13-C , 16-C ) :   1.3061 B( 13-C , 19-C ) :   1.2489 B( 14-C , 15-C ) :   1.6412
B( 14-C , 17-H ) :   0.9293 B( 15-C , 16-C ) :   1.1568 B( 15-C , 18-H ) :   0.9277
B( 16-C , 20-C ) :   1.2505 B( 19-C , 20-C ) :   0.1116 B( 19-C , 21-C ) :   1.5283
B( 19-C , 25-H ) :   0.8465 B( 20-C , 22-C ) :   1.4999 B( 20-C , 23-H ) :   0.9276
B( 21-C , 22-C ) :   1.3167 B( 21-C , 26-H ) :   0.9210 B( 22-C , 24-H ) :   0.9239

Dispersion correction           -0.024434882
FINAL SINGLE POINT ENERGY     -2061.477388978247
Dispersion correction            ... done

DIPOLE MOMENT
-------------
                                X             Y             Z
Electronic contribution:    -93.44119     -65.95636      36.42641
Nuclear contribution   :     97.33262      69.39644     -36.45596
                        -----------------------------------------
Total Dipole Moment    :      3.89144       3.44007      -0.02955
                        -----------------------------------------
Magnitude (a.u.)       :      5.19406
Magnitude (Debye)      :     13.20225

Rotational constants in cm-1:     0.012610     0.007266     0.005982
Rotational constants in MHz :   378.033185   217.830062   179.325226

                             ****ORCA TERMINATED NORMALLY****
TOTAL RUN TIME: 0 days 0 hours 12 minutes 24 seconds 670 msec
