                         Program Version 5.0.3 -  RELEASE  -
|  1> ! EnGrad PBEh-3c
|  2> %output
|  3> xyzfile=True
|  4> end
|  5> %scf
|  6> maxiter 250
|  7> end
|  8> %output
|  9> Print[P_Hirshfeld] = 1
| 10> end
| 11> % maxcore
| 12> 4000
| 13> *xyz -1 1
| 14> Pd  -2.38047915  -1.72190237   0.83371850
| 15> Cl  -4.04510922  -3.03722174   0.10504207
| 16> Cl  -1.30570802  -3.65553709   1.83749721
| 17> Cl  -3.46606450   0.17218410  -0.07364212
| 18> N   -0.90806830  -0.29274144   1.44429567
| 19> C   -1.17247694   0.21215390   2.62894393
| 20> C   -0.68206609   1.44272172   3.06863801
| 21> C    0.07741662   2.18150477   2.20174016
| 22> C   -0.05711727   0.36013819   0.61423712
| 23> C    0.40756477   1.65261981   0.94822376
| 24> H    0.43267505   3.16676068   2.47588088
| 25> H   -1.82891530  -0.36857542   3.25815122
| 26> H   -0.94107056   1.80358406   4.05147999
| 27> C    0.38009858  -0.30880334  -0.59196355
| 28> C    1.18051706   2.39671244   0.01148065
| 29> C    1.50037015   1.86339878  -1.18987286
| 30> C    1.14175688   0.51101391  -1.51710158
| 31> H    1.49165341   3.39969194   0.26871643
| 32> H    2.06775299   2.44295762  -1.90781671
| 33> C    0.23844361  -1.69502096  -0.90072507
| 34> C    1.60258230  -0.05173707  -2.72506058
| 35> C    0.64767195  -2.17020727  -2.05690974
| 36> C    1.35347959  -1.35511687  -3.01006666
| 37> H    2.16120017   0.56313915  -3.41749389
| 38> H    1.71666017  -1.79986924  -3.93134464
| 39> H   -0.13900706  -2.50700219  -0.12816915
| 40> H    0.52466992  -3.20455666  -2.30018894
| 41> *
| 42>
| 43>                          ****END OF INPUT****

CARTESIAN COORDINATES (ANGSTROEM)
---------------------------------
  Pd    -2.380479   -1.721902    0.833718
  Cl    -4.045109   -3.037222    0.105042
  Cl    -1.305708   -3.655537    1.837497
  Cl    -3.466064    0.172184   -0.073642
  N     -0.908068   -0.292741    1.444296
  C     -1.172477    0.212154    2.628944
  C     -0.682066    1.442722    3.068638
  C      0.077417    2.181505    2.201740
  C     -0.057117    0.360138    0.614237
  C      0.407565    1.652620    0.948224
  H      0.432675    3.166761    2.475881
  H     -1.828915   -0.368575    3.258151
  H     -0.941071    1.803584    4.051480
  C      0.380099   -0.308803   -0.591964
  C      1.180517    2.396712    0.011481
  C      1.500370    1.863399   -1.189873
  C      1.141757    0.511014   -1.517102
  H      1.491653    3.399692    0.268716
  H      2.067753    2.442958   -1.907817
  C      0.238444   -1.695021   -0.900725
  C      1.602582   -0.051737   -2.725061
  C      0.647672   -2.170207   -2.056910
  C      1.353480   -1.355117   -3.010067
  H      2.161200    0.563139   -3.417494
  H      1.716660   -1.799869   -3.931345
  H     -0.139007   -2.507002   -0.128169
  H      0.524670   -3.204557   -2.300189

 Total Charge           Charge          ....   -1
 Multiplicity           Mult            ....    1
 Number of Electrons    NEL             ....  164
 Basis Dimension        Dim             ....  313

ORBITAL ENERGIES
----------------

  NO   OCC          E(Eh)            E(eV)
   0   2.0000    -102.074363     -2777.5846
   1   2.0000    -102.074212     -2777.5805
   2   2.0000    -102.073692     -2777.5664
   3   2.0000     -14.590856      -397.0374
   4   2.0000     -10.419085      -283.5177
   5   2.0000     -10.406856      -283.1850
   6   2.0000     -10.394443      -282.8472
   7   2.0000     -10.390202      -282.7318
   8   2.0000     -10.385962      -282.6164
   9   2.0000     -10.385344      -282.5996
  10   2.0000     -10.380875      -282.4780
  11   2.0000     -10.379985      -282.4538
  12   2.0000     -10.379453      -282.4393
  13   2.0000     -10.369719      -282.1744
  14   2.0000     -10.367409      -282.1115
  15   2.0000     -10.357570      -281.8438
  16   2.0000     -10.353215      -281.7253
  17   2.0000      -9.539068      -259.5712
  18   2.0000      -9.537867      -259.5386
  19   2.0000      -9.536718      -259.5073
  20   2.0000      -7.225481      -196.6153
  21   2.0000      -7.223778      -196.5690
  22   2.0000      -7.222270      -196.5280
  23   2.0000      -7.219809      -196.4610
  24   2.0000      -7.219301      -196.4472
  25   2.0000      -7.218957      -196.4378
  26   2.0000      -7.218732      -196.4317
  27   2.0000      -7.218136      -196.4155
  28   2.0000      -7.217805      -196.4065
  29   2.0000      -3.505093       -95.3784
  30   2.0000      -2.153664       -58.6042
  31   2.0000      -2.146675       -58.4140
  32   2.0000      -2.116264       -57.5865
  33   2.0000      -0.988610       -26.9014
  34   2.0000      -0.891188       -24.2505
  35   2.0000      -0.855045       -23.2669
  36   2.0000      -0.820361       -22.3232
  37   2.0000      -0.788782       -21.4638
  38   2.0000      -0.748037       -20.3551
  39   2.0000      -0.742533       -20.2054
  40   2.0000      -0.672378       -18.2963
  41   2.0000      -0.659111       -17.9353
  42   2.0000      -0.657585       -17.8938
  43   2.0000      -0.653416       -17.7803
  44   2.0000      -0.645942       -17.5770
  45   2.0000      -0.618560       -16.8319
  46   2.0000      -0.586965       -15.9721
  47   2.0000      -0.538418       -14.6511
  48   2.0000      -0.526513       -14.3271
  49   2.0000      -0.502830       -13.6827
  50   2.0000      -0.471475       -12.8295
  51   2.0000      -0.470887       -12.8135
  52   2.0000      -0.439864       -11.9693
  53   2.0000      -0.416793       -11.3415
  54   2.0000      -0.411119       -11.1871
  55   2.0000      -0.405786       -11.0420
  56   2.0000      -0.398961       -10.8563
  57   2.0000      -0.395851       -10.7716
  58   2.0000      -0.382110       -10.3977
  59   2.0000      -0.350843        -9.5469
  60   2.0000      -0.348555        -9.4847
  61   2.0000      -0.327818        -8.9204
  62   2.0000      -0.310641        -8.4530
  63   2.0000      -0.304716        -8.2917
  64   2.0000      -0.289910        -7.8889
  65   2.0000      -0.271299        -7.3824
  66   2.0000      -0.250401        -6.8138
  67   2.0000      -0.249746        -6.7959
  68   2.0000      -0.238610        -6.4929
  69   2.0000      -0.219500        -5.9729
  70   2.0000      -0.216704        -5.8968
  71   2.0000      -0.215187        -5.8555
  72   2.0000      -0.191776        -5.2185
  73   2.0000      -0.182435        -4.9643
  74   2.0000      -0.176156        -4.7934
  75   2.0000      -0.163869        -4.4591
  76   2.0000      -0.154894        -4.2149
  77   2.0000      -0.145757        -3.9663
  78   2.0000      -0.138064        -3.7569
  79   2.0000      -0.132327        -3.6008
  80   2.0000      -0.128713        -3.5024
  81   2.0000      -0.127412        -3.4671
  82   0.0000       0.040672         1.1067
  83   0.0000       0.060149         1.6367
  84   0.0000       0.089724         2.4415
  85   0.0000       0.103828         2.8253
  86   0.0000       0.132292         3.5998

MULLIKEN ATOMIC CHARGES
-----------------------
   0 Pd:    0.068352
   1 Cl:   -0.318778
   2 Cl:   -0.446799
   3 Cl:   -0.413185
   4 N :   -0.528794
   5 C :    0.047458
   6 C :   -0.311344
   7 C :   -0.156968
   8 C :    0.338372
   9 C :    0.061792
  10 H :    0.211353
  11 H :    0.283198
  12 H :    0.220849
  13 C :    0.082974
  14 C :   -0.298069
  15 C :   -0.272385
  16 C :    0.088308
  17 H :    0.198679
  18 H :    0.199025
  19 C :   -0.267526
  20 C :   -0.274901
  21 C :   -0.208134
  22 C :   -0.227867
  23 H :    0.193775
  24 H :    0.201724
  25 H :    0.300847
  26 H :    0.228044
Sum of atomic charges:   -1.0000000

LOEWDIN ATOMIC CHARGES
----------------------
   0 Pd:   -0.974563
   1 Cl:   -0.046496
   2 Cl:   -0.221446
   3 Cl:   -0.164502
   4 N :    0.033639
   5 C :    0.018919
   6 C :   -0.160946
   7 C :   -0.083713
   8 C :    0.089457
   9 C :   -0.047961
  10 H :    0.135785
  11 H :    0.167883
  12 H :    0.141334
  13 C :   -0.003864
  14 C :   -0.132404
  15 C :   -0.121649
  16 C :   -0.023143
  17 H :    0.131822
  18 H :    0.132799
  19 C :   -0.082100
  20 C :   -0.141379
  21 C :   -0.129148
  22 C :   -0.126754
  23 H :    0.127909
  24 H :    0.128953
  25 H :    0.210568
  26 H :    0.141001

  Mayer bond orders larger than 0.100000
B(  0-Pd,  1-Cl) :   0.9691 B(  0-Pd,  2-Cl) :   0.7296 B(  0-Pd,  3-Cl) :   0.8187
B(  0-Pd,  4-N ) :   0.3279 B(  4-N ,  5-C ) :   1.4922 B(  4-N ,  8-C ) :   1.2319
B(  5-C ,  6-C ) :   1.3016 B(  5-C , 11-H ) :   0.8930 B(  6-C ,  7-C ) :   1.4765
B(  6-C , 12-H ) :   0.9190 B(  7-C ,  9-C ) :   1.2705 B(  7-C , 10-H ) :   0.9285
B(  8-C ,  9-C ) :   1.2254 B(  8-C , 13-C ) :   1.1063 B(  9-C , 14-C ) :   1.1738
B( 13-C , 16-C ) :   1.3298 B( 13-C , 19-C ) :   1.2222 B( 14-C , 15-C ) :   1.6333
B( 14-C , 17-H ) :   0.9289 B( 15-C , 16-C ) :   1.1684 B( 15-C , 18-H ) :   0.9276
B( 16-C , 20-C ) :   1.2462 B( 19-C , 21-C ) :   1.5476 B( 19-C , 25-H ) :   0.8282
B( 20-C , 22-C ) :   1.5409 B( 20-C , 23-H ) :   0.9305 B( 21-C , 22-C ) :   1.2931
B( 21-C , 26-H ) :   0.9146 B( 22-C , 24-H ) :   0.9239

Dispersion correction           -0.024445008
FINAL SINGLE POINT ENERGY     -2061.526957789064
Dispersion correction            ... done

DIPOLE MOMENT
-------------
                                X             Y             Z
Electronic contribution:    -93.13084     -66.98471      36.75304
Nuclear contribution   :     97.02936      70.34552     -36.74350
                        -----------------------------------------
Total Dipole Moment    :      3.89851       3.36081       0.00954
                        -----------------------------------------
Magnitude (a.u.)       :      5.14719
Magnitude (Debye)      :     13.08311

Rotational constants in cm-1:     0.012645     0.007278     0.005976
Rotational constants in MHz :   379.075144   218.196146   179.149481

                             ****ORCA TERMINATED NORMALLY****
TOTAL RUN TIME: 0 days 0 hours 11 minutes 42 seconds 735 msec
