                         Program Version 5.0.3 -  RELEASE  -
|  1> ! EnGrad PBEh-3c
|  2> %output
|  3> xyzfile=True
|  4> end
|  5> %scf
|  6> maxiter 250
|  7> end
|  8> %output
|  9> Print[P_Hirshfeld] = 1
| 10> end
| 11> % maxcore
| 12> 4000
| 13> *xyz -1 1
| 14> Pd  -2.37954557  -1.72024571   0.83376492
| 15> Cl  -4.04725754  -3.04035407   0.10427190
| 16> Cl  -1.30696017  -3.64804829   1.83444638
| 17> Cl  -3.46285101   0.16793360  -0.07073596
| 18> N   -0.90694808  -0.29376828   1.44526726
| 19> C   -1.17378319   0.21134222   2.62900550
| 20> C   -0.68170136   1.44385634   3.06836058
| 21> C    0.07705226   2.18153824   2.20228099
| 22> C   -0.05962372   0.35320728   0.61425060
| 23> C    0.40741328   1.65156335   0.94661015
| 24> H    0.43284573   3.16708208   2.47559156
| 25> H   -1.82953438  -0.36829968   3.25888645
| 26> H   -0.94137009   1.80400857   4.05153290
| 27> C    0.38928283  -0.30712910  -0.59785285
| 28> C    1.18057976   2.39610325   0.01126004
| 29> C    1.49825883   1.85903339  -1.18940055
| 30> C    1.13550126   0.50481281  -1.50871819
| 31> H    1.49203154   3.39997663   0.26916562
| 32> H    2.06793180   2.44217602  -1.90792691
| 33> C    0.23876288  -1.66357648  -0.89140330
| 34> C    1.60195701  -0.05041816  -2.72393315
| 35> C    0.66049127  -2.17691992  -2.08063099
| 36> C    1.34725199  -1.36117584  -3.00548384
| 37> H    2.16223303   0.56390666  -3.41754515
| 38> H    1.71531883  -1.79962753  -3.93044683
| 39> H   -0.14304804  -2.50901966  -0.12225233
| 40> H    0.52383786  -3.20784104  -2.30111665
| 41> *
| 42>
| 43>                          ****END OF INPUT****

CARTESIAN COORDINATES (ANGSTROEM)
---------------------------------
  Pd    -2.379546   -1.720246    0.833765
  Cl    -4.047258   -3.040354    0.104272
  Cl    -1.306960   -3.648048    1.834446
  Cl    -3.462851    0.167934   -0.070736
  N     -0.906948   -0.293768    1.445267
  C     -1.173783    0.211342    2.629005
  C     -0.681701    1.443856    3.068361
  C      0.077052    2.181538    2.202281
  C     -0.059624    0.353207    0.614251
  C      0.407413    1.651563    0.946610
  H      0.432846    3.167082    2.475592
  H     -1.829534   -0.368300    3.258886
  H     -0.941370    1.804009    4.051533
  C      0.389283   -0.307129   -0.597853
  C      1.180580    2.396103    0.011260
  C      1.498259    1.859033   -1.189401
  C      1.135501    0.504813   -1.508718
  H      1.492032    3.399977    0.269166
  H      2.067932    2.442176   -1.907927
  C      0.238763   -1.663576   -0.891403
  C      1.601957   -0.050418   -2.723933
  C      0.660491   -2.176920   -2.080631
  C      1.347252   -1.361176   -3.005484
  H      2.162233    0.563907   -3.417545
  H      1.715319   -1.799628   -3.930447
  H     -0.143048   -2.509020   -0.122252
  H      0.523838   -3.207841   -2.301117

 Total Charge           Charge          ....   -1
 Multiplicity           Mult            ....    1
 Number of Electrons    NEL             ....  164
 Basis Dimension        Dim             ....  313

ORBITAL ENERGIES
----------------

  NO   OCC          E(Eh)            E(eV)
   0   2.0000    -102.074582     -2777.5906
   1   2.0000    -102.074217     -2777.5806
   2   2.0000    -102.073753     -2777.5680
   3   2.0000     -14.591019      -397.0418
   4   2.0000     -10.419695      -283.5343
   5   2.0000     -10.406967      -283.1880
   6   2.0000     -10.394042      -282.8363
   7   2.0000     -10.390358      -282.7360
   8   2.0000     -10.384663      -282.5810
   9   2.0000     -10.381237      -282.4878
  10   2.0000     -10.381063      -282.4831
  11   2.0000     -10.379913      -282.4518
  12   2.0000     -10.379322      -282.4357
  13   2.0000     -10.368415      -282.1389
  14   2.0000     -10.367652      -282.1181
  15   2.0000     -10.361421      -281.9486
  16   2.0000     -10.355751      -281.7943
  17   2.0000      -9.538537      -259.5568
  18   2.0000      -9.538147      -259.5462
  19   2.0000      -9.537299      -259.5231
  20   2.0000      -7.224943      -196.6007
  21   2.0000      -7.224056      -196.5766
  22   2.0000      -7.222843      -196.5435
  23   2.0000      -7.219288      -196.4468
  24   2.0000      -7.219233      -196.4453
  25   2.0000      -7.219004      -196.4391
  26   2.0000      -7.218787      -196.4332
  27   2.0000      -7.218723      -196.4314
  28   2.0000      -7.218374      -196.4219
  29   2.0000      -3.504990       -95.3756
  30   2.0000      -2.153379       -58.5964
  31   2.0000      -2.146798       -58.4174
  32   2.0000      -2.116129       -57.5828
  33   2.0000      -0.989286       -26.9198
  34   2.0000      -0.892914       -24.2974
  35   2.0000      -0.854668       -23.2567
  36   2.0000      -0.820128       -22.3168
  37   2.0000      -0.787340       -21.4246
  38   2.0000      -0.751850       -20.4589
  39   2.0000      -0.737581       -20.0706
  40   2.0000      -0.672340       -18.2953
  41   2.0000      -0.659316       -17.9409
  42   2.0000      -0.658055       -17.9066
  43   2.0000      -0.651553       -17.7297
  44   2.0000      -0.647765       -17.6266
  45   2.0000      -0.619240       -16.8504
  46   2.0000      -0.587173       -15.9778
  47   2.0000      -0.539061       -14.6686
  48   2.0000      -0.526981       -14.3399
  49   2.0000      -0.502059       -13.6617
  50   2.0000      -0.471696       -12.8355
  51   2.0000      -0.470406       -12.8004
  52   2.0000      -0.439984       -11.9726
  53   2.0000      -0.417935       -11.3726
  54   2.0000      -0.411565       -11.1993
  55   2.0000      -0.404512       -11.0073
  56   2.0000      -0.399673       -10.8757
  57   2.0000      -0.395040       -10.7496
  58   2.0000      -0.379739       -10.3332
  59   2.0000      -0.351563        -9.5665
  60   2.0000      -0.349234        -9.5031
  61   2.0000      -0.327294        -8.9061
  62   2.0000      -0.311307        -8.4711
  63   2.0000      -0.302505        -8.2316
  64   2.0000      -0.291421        -7.9300
  65   2.0000      -0.271232        -7.3806
  66   2.0000      -0.251148        -6.8341
  67   2.0000      -0.250034        -6.8038
  68   2.0000      -0.236991        -6.4488
  69   2.0000      -0.218606        -5.9486
  70   2.0000      -0.217039        -5.9059
  71   2.0000      -0.214552        -5.8383
  72   2.0000      -0.195456        -5.3186
  73   2.0000      -0.179900        -4.8953
  74   2.0000      -0.175626        -4.7790
  75   2.0000      -0.164301        -4.4709
  76   2.0000      -0.155086        -4.2201
  77   2.0000      -0.145240        -3.9522
  78   2.0000      -0.138033        -3.7561
  79   2.0000      -0.132260        -3.5990
  80   2.0000      -0.128597        -3.4993
  81   2.0000      -0.127372        -3.4660
  82   0.0000       0.042726         1.1626
  83   0.0000       0.058221         1.5843
  84   0.0000       0.090662         2.4670
  85   0.0000       0.102489         2.7889
  86   0.0000       0.132644         3.6094

MULLIKEN ATOMIC CHARGES
-----------------------
   0 Pd:    0.067082
   1 Cl:   -0.321020
   2 Cl:   -0.444501
   3 Cl:   -0.411286
   4 N :   -0.527523
   5 C :    0.045608
   6 C :   -0.310532
   7 C :   -0.156720
   8 C :    0.333517
   9 C :    0.054478
  10 H :    0.210934
  11 H :    0.283406
  12 H :    0.220558
  13 C :    0.128685
  14 C :   -0.296078
  15 C :   -0.276464
  16 C :    0.085593
  17 H :    0.198776
  18 H :    0.199227
  19 C :   -0.300192
  20 C :   -0.278493
  21 C :   -0.202796
  22 C :   -0.227898
  23 H :    0.195163
  24 H :    0.198770
  25 H :    0.299436
  26 H :    0.232269
Sum of atomic charges:   -1.0000000

LOEWDIN ATOMIC CHARGES
----------------------
   0 Pd:   -0.979278
   1 Cl:   -0.050614
   2 Cl:   -0.217509
   3 Cl:   -0.160688
   4 N :    0.034561
   5 C :    0.018857
   6 C :   -0.160604
   7 C :   -0.085075
   8 C :    0.093719
   9 C :   -0.047816
  10 H :    0.135544
  11 H :    0.167939
  12 H :    0.141193
  13 C :   -0.014712
  14 C :   -0.133590
  15 C :   -0.119874
  16 C :   -0.022082
  17 H :    0.131800
  18 H :    0.132989
  19 C :   -0.077022
  20 C :   -0.141314
  21 C :   -0.129313
  22 C :   -0.128751
  23 H :    0.128666
  24 H :    0.127666
  25 H :    0.213225
  26 H :    0.142084

  Mayer bond orders larger than 0.100000
B(  0-Pd,  1-Cl) :   0.9660 B(  0-Pd,  2-Cl) :   0.7305 B(  0-Pd,  3-Cl) :   0.8215
B(  0-Pd,  4-N ) :   0.3280 B(  4-N ,  5-C ) :   1.4865 B(  4-N ,  8-C ) :   1.2428
B(  5-C ,  6-C ) :   1.3071 B(  5-C , 11-H ) :   0.8927 B(  6-C ,  7-C ) :   1.4721
B(  6-C , 12-H ) :   0.9191 B(  7-C ,  9-C ) :   1.2754 B(  7-C , 10-H ) :   0.9285
B(  8-C ,  9-C ) :   1.2311 B(  8-C , 13-C ) :   1.0929 B(  9-C , 14-C ) :   1.1670
B( 13-C , 16-C ) :   1.3132 B( 13-C , 19-C ) :   1.2373 B( 14-C , 15-C ) :   1.6423
B( 14-C , 17-H ) :   0.9288 B( 15-C , 16-C ) :   1.1590 B( 15-C , 18-H ) :   0.9280
B( 16-C , 20-C ) :   1.2676 B( 19-C , 21-C ) :   1.5046 B( 19-C , 25-H ) :   0.8280
B( 20-C , 22-C ) :   1.5067 B( 20-C , 23-H ) :   0.9305 B( 21-C , 22-C ) :   1.3345
B( 21-C , 26-H ) :   0.9136 B( 22-C , 24-H ) :   0.9247

Dispersion correction           -0.024453079
FINAL SINGLE POINT ENERGY     -2061.529779636872
Dispersion correction            ... done

DIPOLE MOMENT
-------------
                                X             Y             Z
Electronic contribution:    -93.08815     -66.91272      36.77293
Nuclear contribution   :     96.98493      70.26282     -36.75393
                        -----------------------------------------
Total Dipole Moment    :      3.89679       3.35010       0.01900
                        -----------------------------------------
Magnitude (a.u.)       :      5.13892
Magnitude (Debye)      :     13.06210

Rotational constants in cm-1:     0.012660     0.007289     0.005978
Rotational constants in MHz :   379.530351   218.514805   179.210091

                             ****ORCA TERMINATED NORMALLY****
TOTAL RUN TIME: 0 days 0 hours 13 minutes 44 seconds 982 msec
