                         Program Version 5.0.3 -  RELEASE  -
|  1> ! EnGrad PBEh-3c
|  2> %output
|  3> xyzfile=True
|  4> end
|  5> %scf
|  6> maxiter 250
|  7> end
|  8> %output
|  9> Print[P_Hirshfeld] = 1
| 10> end
| 11> % maxcore
| 12> 4000
| 13> *xyz -1 1
| 14> Pd  -2.36856185  -1.74133290   0.83853635
| 15> Cl  -4.03706029  -3.05831762   0.09299190
| 16> Cl  -1.30175225  -3.62951581   1.80391402
| 17> Cl  -3.46490121   0.14686828  -0.03941596
| 18> N   -0.90693385  -0.29564435   1.44901942
| 19> C   -1.17970606   0.22059963   2.63033280
| 20> C   -0.68570584   1.45139602   3.06546919
| 21> C    0.07739089   2.18661638   2.20020696
| 22> C   -0.06391082   0.34203875   0.61710500
| 23> C    0.40561259   1.64840783   0.94505162
| 24> H    0.43533997   3.17295953   2.47321717
| 25> H   -1.83731919  -0.35771571   3.26000908
| 26> H   -0.94723869   1.81506296   4.04855908
| 27> C    0.40352942  -0.29933262  -0.59833534
| 28> C    1.18715491   2.39451341   0.00922149
| 29> C    1.49787776   1.84816184  -1.18261191
| 30> C    1.12843517   0.49155001  -1.49972005
| 31> H    1.50122628   3.40054775   0.27209938
| 32> H    2.07684211   2.43456221  -1.90411187
| 33> C    0.24142220  -1.65318719  -0.87541389
| 34> C    1.59764524  -0.04715128  -2.71263912
| 35> C    0.66976536  -2.17161375  -2.10851235
| 36> C    1.33077815  -1.37293741  -3.00543424
| 37> H    2.17070104   0.56482695  -3.41337814
| 38> H    1.70724261  -1.79660500  -3.92722804
| 39> H   -0.14738722  -2.47771017  -0.13312626
| 40> H    0.50625140  -3.21737826  -2.31062208
| 41> *
| 42>
| 43>                          ****END OF INPUT****

CARTESIAN COORDINATES (ANGSTROEM)
---------------------------------
  Pd    -2.368562   -1.741333    0.838536
  Cl    -4.037060   -3.058318    0.092992
  Cl    -1.301752   -3.629516    1.803914
  Cl    -3.464901    0.146868   -0.039416
  N     -0.906934   -0.295644    1.449019
  C     -1.179706    0.220600    2.630333
  C     -0.685706    1.451396    3.065469
  C      0.077391    2.186616    2.200207
  C     -0.063911    0.342039    0.617105
  C      0.405613    1.648408    0.945052
  H      0.435340    3.172960    2.473217
  H     -1.837319   -0.357716    3.260009
  H     -0.947239    1.815063    4.048559
  C      0.403529   -0.299333   -0.598335
  C      1.187155    2.394513    0.009221
  C      1.497878    1.848162   -1.182612
  C      1.128435    0.491550   -1.499720
  H      1.501226    3.400548    0.272099
  H      2.076842    2.434562   -1.904112
  C      0.241422   -1.653187   -0.875414
  C      1.597645   -0.047151   -2.712639
  C      0.669765   -2.171614   -2.108512
  C      1.330778   -1.372937   -3.005434
  H      2.170701    0.564827   -3.413378
  H      1.707243   -1.796605   -3.927228
  H     -0.147387   -2.477710   -0.133126
  H      0.506251   -3.217378   -2.310622

 Total Charge           Charge          ....   -1
 Multiplicity           Mult            ....    1
 Number of Electrons    NEL             ....  164
 Basis Dimension        Dim             ....  313

ORBITAL ENERGIES
----------------

  NO   OCC          E(Eh)            E(eV)
   0   2.0000    -102.076704     -2777.6483
   1   2.0000    -102.073053     -2777.5490
   2   2.0000    -102.072881     -2777.5443
   3   2.0000     -14.590818      -397.0363
   4   2.0000     -10.419592      -283.5315
   5   2.0000     -10.406352      -283.1712
   6   2.0000     -10.393403      -282.8189
   7   2.0000     -10.390359      -282.7361
   8   2.0000     -10.381843      -282.5043
   9   2.0000     -10.380706      -282.4734
  10   2.0000     -10.379348      -282.4364
  11   2.0000     -10.378677      -282.4182
  12   2.0000     -10.377387      -282.3831
  13   2.0000     -10.369666      -282.1730
  14   2.0000     -10.365367      -282.0560
  15   2.0000     -10.363082      -281.9938
  16   2.0000     -10.357327      -281.8372
  17   2.0000      -9.540137      -259.6003
  18   2.0000      -9.537775      -259.5361
  19   2.0000      -9.536527      -259.5021
  20   2.0000      -7.225717      -196.6218
  21   2.0000      -7.224178      -196.5799
  22   2.0000      -7.222391      -196.5313
  23   2.0000      -7.221501      -196.5070
  24   2.0000      -7.221146      -196.4974
  25   2.0000      -7.218532      -196.4262
  26   2.0000      -7.218038      -196.4128
  27   2.0000      -7.217641      -196.4020
  28   2.0000      -7.217397      -196.3953
  29   2.0000      -3.504339       -95.3579
  30   2.0000      -2.152229       -58.5651
  31   2.0000      -2.146834       -58.4183
  32   2.0000      -2.115455       -57.5645
  33   2.0000      -0.989085       -26.9144
  34   2.0000      -0.895060       -24.3558
  35   2.0000      -0.853600       -23.2276
  36   2.0000      -0.820293       -22.3213
  37   2.0000      -0.785566       -21.3763
  38   2.0000      -0.755734       -20.5646
  39   2.0000      -0.732770       -19.9397
  40   2.0000      -0.673346       -18.3227
  41   2.0000      -0.660826       -17.9820
  42   2.0000      -0.658122       -17.9084
  43   2.0000      -0.650856       -17.7107
  44   2.0000      -0.647935       -17.6312
  45   2.0000      -0.617293       -16.7974
  46   2.0000      -0.589138       -16.0313
  47   2.0000      -0.538686       -14.6584
  48   2.0000      -0.526505       -14.3269
  49   2.0000      -0.500721       -13.6253
  50   2.0000      -0.470691       -12.8082
  51   2.0000      -0.469475       -12.7751
  52   2.0000      -0.438601       -11.9349
  53   2.0000      -0.421060       -11.4576
  54   2.0000      -0.411280       -11.1915
  55   2.0000      -0.404507       -11.0072
  56   2.0000      -0.399302       -10.8656
  57   2.0000      -0.395018       -10.7490
  58   2.0000      -0.375861       -10.2277
  59   2.0000      -0.352460        -9.5909
  60   2.0000      -0.349243        -9.5034
  61   2.0000      -0.324100        -8.8192
  62   2.0000      -0.313016        -8.5176
  63   2.0000      -0.304052        -8.2737
  64   2.0000      -0.291521        -7.9327
  65   2.0000      -0.271648        -7.3919
  66   2.0000      -0.254584        -6.9276
  67   2.0000      -0.250439        -6.8148
  68   2.0000      -0.235164        -6.3991
  69   2.0000      -0.219046        -5.9605
  70   2.0000      -0.217532        -5.9193
  71   2.0000      -0.214196        -5.8286
  72   2.0000      -0.199083        -5.4173
  73   2.0000      -0.179957        -4.8969
  74   2.0000      -0.173972        -4.7340
  75   2.0000      -0.165648        -4.5075
  76   2.0000      -0.155327        -4.2267
  77   2.0000      -0.144439        -3.9304
  78   2.0000      -0.136991        -3.7277
  79   2.0000      -0.131622        -3.5816
  80   2.0000      -0.127955        -3.4818
  81   2.0000      -0.126395        -3.4394
  82   0.0000       0.045434         1.2363
  83   0.0000       0.056516         1.5379
  84   0.0000       0.093829         2.5532
  85   0.0000       0.102685         2.7942
  86   0.0000       0.132046         3.5932

MULLIKEN ATOMIC CHARGES
-----------------------
   0 Pd:    0.056181
   1 Cl:   -0.323664
   2 Cl:   -0.430737
   3 Cl:   -0.411847
   4 N :   -0.525512
   5 C :    0.043256
   6 C :   -0.308496
   7 C :   -0.156971
   8 C :    0.342171
   9 C :    0.031972
  10 H :    0.210572
  11 H :    0.282312
  12 H :    0.219918
  13 C :    0.142098
  14 C :   -0.285255
  15 C :   -0.289575
  16 C :    0.110564
  17 H :    0.198847
  18 H :    0.197785
  19 C :   -0.310970
  20 C :   -0.297111
  21 C :   -0.208814
  22 C :   -0.214945
  23 H :    0.195829
  24 H :    0.198443
  25 H :    0.302626
  26 H :    0.231323
Sum of atomic charges:   -1.0000000

LOEWDIN ATOMIC CHARGES
----------------------
   0 Pd:   -0.998559
   1 Cl:   -0.054429
   2 Cl:   -0.189330
   3 Cl:   -0.161692
   4 N :    0.034668
   5 C :    0.017782
   6 C :   -0.160461
   7 C :   -0.087195
   8 C :    0.095588
   9 C :   -0.046305
  10 H :    0.135234
  11 H :    0.167598
  12 H :    0.140881
  13 C :   -0.022718
  14 C :   -0.135709
  15 C :   -0.116615
  16 C :   -0.024827
  17 H :    0.131965
  18 H :    0.132500
  19 C :   -0.068756
  20 C :   -0.139133
  21 C :   -0.129016
  22 C :   -0.131853
  23 H :    0.129158
  24 H :    0.127725
  25 H :    0.210635
  26 H :    0.142863

  Mayer bond orders larger than 0.100000
B(  0-Pd,  1-Cl) :   0.9625 B(  0-Pd,  2-Cl) :   0.7523 B(  0-Pd,  3-Cl) :   0.8182
B(  0-Pd,  4-N ) :   0.3255 B(  4-N ,  5-C ) :   1.4746 B(  4-N ,  8-C ) :   1.2573
B(  5-C ,  6-C ) :   1.3206 B(  5-C , 11-H ) :   0.8934 B(  6-C ,  7-C ) :   1.4601
B(  6-C , 12-H ) :   0.9191 B(  7-C ,  9-C ) :   1.2866 B(  7-C , 10-H ) :   0.9284
B(  8-C ,  9-C ) :   1.2360 B(  8-C , 13-C ) :   1.0825 B(  9-C , 14-C ) :   1.1565
B( 13-C , 16-C ) :   1.2968 B( 13-C , 19-C ) :   1.2625 B( 14-C , 15-C ) :   1.6591
B( 14-C , 17-H ) :   0.9285 B( 15-C , 16-C ) :   1.1428 B( 15-C , 18-H ) :   0.9289
B( 16-C , 20-C ) :   1.2891 B( 19-C , 21-C ) :   1.4606 B( 19-C , 25-H ) :   0.8301
B( 20-C , 22-C ) :   1.4637 B( 20-C , 23-H ) :   0.9311 B( 21-C , 22-C ) :   1.3804
B( 21-C , 26-H ) :   0.9150 B( 22-C , 24-H ) :   0.9247

Dispersion correction           -0.024478418
FINAL SINGLE POINT ENERGY     -2061.533339035138
Dispersion correction            ... done

DIPOLE MOMENT
-------------
                                X             Y             Z
Electronic contribution:    -92.55651     -67.96597      37.06733
Nuclear contribution   :     96.45998      71.26173     -37.01878
                        -----------------------------------------
Total Dipole Moment    :      3.90347       3.29576       0.04854
                        -----------------------------------------
Magnitude (a.u.)       :      5.10896
Magnitude (Debye)      :     12.98594

Rotational constants in cm-1:     0.012718     0.007325     0.005976
Rotational constants in MHz :   381.273986   219.590768   179.145627

                             ****ORCA TERMINATED NORMALLY****
TOTAL RUN TIME: 0 days 0 hours 11 minutes 57 seconds 420 msec
