                         Program Version 5.0.3 -  RELEASE  -
|  1> ! EnGrad PBEh-3c
|  2> %output
|  3> xyzfile=True
|  4> end
|  5> %scf
|  6> maxiter 250
|  7> end
|  8> %output
|  9> Print[P_Hirshfeld] = 1
| 10> end
| 11> % maxcore
| 12> 4000
| 13> *xyz -1 1
| 14> Pd  -2.36649463  -1.74169149   0.83826551
| 15> Cl  -4.03513387  -3.07049968   0.08777930
| 16> Cl  -1.29863393  -3.61624241   1.78986801
| 17> Cl  -3.46162932   0.13248178  -0.02266619
| 18> N   -0.90656802  -0.30108796   1.45101761
| 19> C   -1.18219171   0.22604846   2.63190810
| 20> C   -0.68946500   1.45269435   3.06447348
| 21> C    0.07824210   2.18713570   2.19517173
| 22> C   -0.06216073   0.34159743   0.62092724
| 23> C    0.40153150   1.64207489   0.94679761
| 24> H    0.43657182   3.17532883   2.47138698
| 25> H   -1.84188056  -0.35325706   3.26192266
| 26> H   -0.95001886   1.82019420   4.04721674
| 27> C    0.40823528  -0.29343391  -0.58881414
| 28> C    1.18904919   2.39127137   0.00801685
| 29> C    1.49791735   1.84414807  -1.18054559
| 30> C    1.13665738   0.49573023  -1.50840893
| 31> H    1.50503624   3.39917261   0.27300802
| 32> H    2.07735755   2.42553571  -1.89990891
| 33> C    0.24166532  -1.66945790  -0.87846919
| 34> C    1.59106398  -0.05111269  -2.70493995
| 35> C    0.66636242  -2.16876394  -2.09587002
| 36> C    1.33271994  -1.36784659  -3.01676713
| 37> H    2.17188851   0.56345250  -3.40708602
| 38> H    1.70202711  -1.79521765  -3.92672920
| 39> H   -0.14443651  -2.44456410  -0.14730501
| 40> H    0.49807659  -3.22453736  -2.31633116
| 41> *
| 42>
| 43>                          ****END OF INPUT****

CARTESIAN COORDINATES (ANGSTROEM)
---------------------------------
  Pd    -2.366495   -1.741691    0.838266
  Cl    -4.035134   -3.070500    0.087779
  Cl    -1.298634   -3.616242    1.789868
  Cl    -3.461629    0.132482   -0.022666
  N     -0.906568   -0.301088    1.451018
  C     -1.182192    0.226048    2.631908
  C     -0.689465    1.452694    3.064473
  C      0.078242    2.187136    2.195172
  C     -0.062161    0.341597    0.620927
  C      0.401531    1.642075    0.946798
  H      0.436572    3.175329    2.471387
  H     -1.841881   -0.353257    3.261923
  H     -0.950019    1.820194    4.047217
  C      0.408235   -0.293434   -0.588814
  C      1.189049    2.391271    0.008017
  C      1.497917    1.844148   -1.180546
  C      1.136657    0.495730   -1.508409
  H      1.505036    3.399173    0.273008
  H      2.077358    2.425536   -1.899909
  C      0.241665   -1.669458   -0.878469
  C      1.591064   -0.051113   -2.704940
  C      0.666362   -2.168764   -2.095870
  C      1.332720   -1.367847   -3.016767
  H      2.171889    0.563452   -3.407086
  H      1.702027   -1.795218   -3.926729
  H     -0.144437   -2.444564   -0.147305
  H      0.498077   -3.224537   -2.316331

 Total Charge           Charge          ....   -1
 Multiplicity           Mult            ....    1
 Number of Electrons    NEL             ....  164
 Basis Dimension        Dim             ....  313

ORBITAL ENERGIES
----------------

  NO   OCC          E(Eh)            E(eV)
   0   2.0000    -102.076064     -2777.6309
   1   2.0000    -102.072980     -2777.5470
   2   2.0000    -102.071801     -2777.5149
   3   2.0000     -14.591258      -397.0483
   4   2.0000     -10.418777      -283.5093
   5   2.0000     -10.406479      -283.1747
   6   2.0000     -10.394195      -282.8404
   7   2.0000     -10.390075      -282.7283
   8   2.0000     -10.380918      -282.4792
   9   2.0000     -10.380211      -282.4599
  10   2.0000     -10.379552      -282.4420
  11   2.0000     -10.379011      -282.4272
  12   2.0000     -10.379004      -282.4271
  13   2.0000     -10.368852      -282.1508
  14   2.0000     -10.366224      -282.0793
  15   2.0000     -10.359594      -281.8989
  16   2.0000     -10.358112      -281.8586
  17   2.0000      -9.539640      -259.5868
  18   2.0000      -9.536810      -259.5098
  19   2.0000      -9.536412      -259.4990
  20   2.0000      -7.225234      -196.6086
  21   2.0000      -7.222801      -196.5424
  22   2.0000      -7.222663      -196.5387
  23   2.0000      -7.220979      -196.4928
  24   2.0000      -7.220634      -196.4834
  25   2.0000      -7.217914      -196.4094
  26   2.0000      -7.217662      -196.4026
  27   2.0000      -7.217189      -196.3897
  28   2.0000      -7.216702      -196.3764
  29   2.0000      -3.503805       -95.3434
  30   2.0000      -2.151326       -58.5406
  31   2.0000      -2.146786       -58.4170
  32   2.0000      -2.114889       -57.5491
  33   2.0000      -0.988430       -26.8965
  34   2.0000      -0.894706       -24.3462
  35   2.0000      -0.853491       -23.2247
  36   2.0000      -0.820497       -22.3269
  37   2.0000      -0.787057       -21.4169
  38   2.0000      -0.753287       -20.4980
  39   2.0000      -0.735393       -20.0111
  40   2.0000      -0.673414       -18.3245
  41   2.0000      -0.660819       -17.9818
  42   2.0000      -0.657803       -17.8997
  43   2.0000      -0.653414       -17.7803
  44   2.0000      -0.646356       -17.5882
  45   2.0000      -0.616577       -16.7779
  46   2.0000      -0.590116       -16.0579
  47   2.0000      -0.539232       -14.6733
  48   2.0000      -0.525874       -14.3098
  49   2.0000      -0.501177       -13.6377
  50   2.0000      -0.473407       -12.8821
  51   2.0000      -0.467506       -12.7215
  52   2.0000      -0.438428       -11.9302
  53   2.0000      -0.420551       -11.4438
  54   2.0000      -0.411388       -11.1944
  55   2.0000      -0.405134       -11.0243
  56   2.0000      -0.399125       -10.8607
  57   2.0000      -0.396948       -10.8015
  58   2.0000      -0.376453       -10.2438
  59   2.0000      -0.352475        -9.5913
  60   2.0000      -0.348775        -9.4907
  61   2.0000      -0.324216        -8.8224
  62   2.0000      -0.312817        -8.5122
  63   2.0000      -0.307410        -8.3650
  64   2.0000      -0.291619        -7.9353
  65   2.0000      -0.271804        -7.3962
  66   2.0000      -0.256667        -6.9843
  67   2.0000      -0.250536        -6.8174
  68   2.0000      -0.236218        -6.4278
  69   2.0000      -0.220477        -5.9995
  70   2.0000      -0.216482        -5.8908
  71   2.0000      -0.213109        -5.7990
  72   2.0000      -0.196380        -5.3438
  73   2.0000      -0.180316        -4.9067
  74   2.0000      -0.176120        -4.7925
  75   2.0000      -0.166063        -4.5188
  76   2.0000      -0.155157        -4.2220
  77   2.0000      -0.144270        -3.9258
  78   2.0000      -0.135942        -3.6992
  79   2.0000      -0.130917        -3.5624
  80   2.0000      -0.127313        -3.4644
  81   2.0000      -0.125225        -3.4075
  82   0.0000       0.043445         1.1822
  83   0.0000       0.057946         1.5768
  84   0.0000       0.094973         2.5843
  85   0.0000       0.104432         2.8417
  86   0.0000       0.131871         3.5884

MULLIKEN ATOMIC CHARGES
-----------------------
   0 Pd:    0.050135
   1 Cl:   -0.327570
   2 Cl:   -0.427056
   3 Cl:   -0.407573
   4 N :   -0.528649
   5 C :    0.043719
   6 C :   -0.307341
   7 C :   -0.159453
   8 C :    0.357873
   9 C :    0.027509
  10 H :    0.211217
  11 H :    0.281986
  12 H :    0.220343
  13 C :    0.090689
  14 C :   -0.282180
  15 C :   -0.294497
  16 C :    0.144066
  17 H :    0.198895
  18 H :    0.196716
  19 C :   -0.277723
  20 C :   -0.305998
  21 C :   -0.226214
  22 C :   -0.206761
  23 H :    0.192473
  24 H :    0.202980
  25 H :    0.303501
  26 H :    0.228911
Sum of atomic charges:   -1.0000000

LOEWDIN ATOMIC CHARGES
----------------------
   0 Pd:   -1.008511
   1 Cl:   -0.061395
   2 Cl:   -0.181172
   3 Cl:   -0.152276
   4 N :    0.034304
   5 C :    0.018301
   6 C :   -0.160810
   7 C :   -0.085769
   8 C :    0.091772
   9 C :   -0.045804
  10 H :    0.135556
  11 H :    0.167841
  12 H :    0.141030
  13 C :   -0.015047
  14 C :   -0.134567
  15 C :   -0.117044
  16 C :   -0.028508
  17 H :    0.132328
  18 H :    0.131833
  19 C :   -0.070545
  20 C :   -0.137257
  21 C :   -0.127035
  22 C :   -0.131536
  23 H :    0.127821
  24 H :    0.129547
  25 H :    0.204728
  26 H :    0.142215

  Mayer bond orders larger than 0.100000
B(  0-Pd,  1-Cl) :   0.9574 B(  0-Pd,  2-Cl) :   0.7607 B(  0-Pd,  3-Cl) :   0.8246
B(  0-Pd,  4-N ) :   0.3276 B(  4-N ,  5-C ) :   1.4711 B(  4-N ,  8-C ) :   1.2515
B(  5-C ,  6-C ) :   1.3244 B(  5-C , 11-H ) :   0.8941 B(  6-C ,  7-C ) :   1.4565
B(  6-C , 12-H ) :   0.9189 B(  7-C ,  9-C ) :   1.2871 B(  7-C , 10-H ) :   0.9284
B(  8-C ,  9-C ) :   1.2335 B(  8-C , 13-C ) :   1.0932 B(  9-C , 14-C ) :   1.1558
B( 13-C , 16-C ) :   1.3069 B( 13-C , 19-C ) :   1.2643 B( 14-C , 15-C ) :   1.6591
B( 14-C , 17-H ) :   0.9286 B( 15-C , 16-C ) :   1.1458 B( 15-C , 18-H ) :   0.9288
B( 16-C , 20-C ) :   1.2744 B( 19-C , 21-C ) :   1.4873 B( 19-C , 25-H ) :   0.8335
B( 20-C , 22-C ) :   1.4804 B( 20-C , 23-H ) :   0.9325 B( 21-C , 22-C ) :   1.3557
B( 21-C , 26-H ) :   0.9157 B( 22-C , 24-H ) :   0.9236

Dispersion correction           -0.024508625
FINAL SINGLE POINT ENERGY     -2061.539088752545
Dispersion correction            ... done

DIPOLE MOMENT
-------------
                                X             Y             Z
Electronic contribution:    -92.46628     -67.89910      37.05441
Nuclear contribution   :     96.38037      71.22390     -37.00512
                        -----------------------------------------
Total Dipole Moment    :      3.91410       3.32479       0.04929
                        -----------------------------------------
Magnitude (a.u.)       :      5.13584
Magnitude (Debye)      :     13.05427

Rotational constants in cm-1:     0.012760     0.007345     0.005977
Rotational constants in MHz :   382.544518   220.205616   179.176566

                             ****ORCA TERMINATED NORMALLY****
TOTAL RUN TIME: 0 days 0 hours 11 minutes 16 seconds 137 msec
