                         Program Version 5.0.3 -  RELEASE  -
|  1> ! EnGrad PBEh-3c
|  2> %output
|  3> xyzfile=True
|  4> end
|  5> %scf
|  6> maxiter 250
|  7> end
|  8> %output
|  9> Print[P_Hirshfeld] = 1
| 10> end
| 11> % maxcore
| 12> 4000
| 13> *xyz -1 1
| 14> Pd  -2.36198507  -1.75195660   0.83915003
| 15> Cl  -4.02420854  -3.09242636   0.07645667
| 16> Cl  -1.28809626  -3.60072168   1.76144851
| 17> Cl  -3.46289127   0.10892710   0.01152930
| 18> N   -0.90744906  -0.30496154   1.45906190
| 19> C   -1.18891520   0.23065033   2.63038700
| 20> C   -0.69354223   1.46309002   3.06094954
| 21> C    0.07626737   2.18886236   2.19259804
| 22> C   -0.06033760   0.34003571   0.62799093
| 23> C    0.40211822   1.64251482   0.94615190
| 24> H    0.43893826   3.17918058   2.46662106
| 25> H   -1.85064311  -0.34123918   3.26382217
| 26> H   -0.95638857   1.83188010   4.04318439
| 27> C    0.41331859  -0.30308228  -0.58407226
| 28> C    1.18971279   2.38499061   0.01425237
| 29> C    1.50482854   1.84113606  -1.18187571
| 30> C    1.14022721   0.50105297  -1.50139491
| 31> H    1.51349096   3.39437412   0.27420666
| 32> H    2.08225201   2.41072116  -1.89233515
| 33> C    0.23892292  -1.68341443  -0.86207528
| 34> C    1.59259997  -0.05852000  -2.71450785
| 35> C    0.65990400  -2.17944996  -2.09703743
| 36> C    1.32605717  -1.35657422  -3.01641778
| 37> H    2.17260398   0.55817423  -3.39171629
| 38> H    1.69498100  -1.79505052  -3.93347444
| 39> H   -0.13902284  -2.38831608  -0.17708635
| 40> H    0.48133433  -3.22153573  -2.32398635
| 41> *
| 42>
| 43>                          ****END OF INPUT****

CARTESIAN COORDINATES (ANGSTROEM)
---------------------------------
  Pd    -2.361985   -1.751957    0.839150
  Cl    -4.024209   -3.092426    0.076457
  Cl    -1.288096   -3.600722    1.761449
  Cl    -3.462891    0.108927    0.011529
  N     -0.907449   -0.304962    1.459062
  C     -1.188915    0.230650    2.630387
  C     -0.693542    1.463090    3.060950
  C      0.076267    2.188862    2.192598
  C     -0.060338    0.340036    0.627991
  C      0.402118    1.642515    0.946152
  H      0.438938    3.179181    2.466621
  H     -1.850643   -0.341239    3.263822
  H     -0.956389    1.831880    4.043184
  C      0.413319   -0.303082   -0.584072
  C      1.189713    2.384991    0.014252
  C      1.504829    1.841136   -1.181876
  C      1.140227    0.501053   -1.501395
  H      1.513491    3.394374    0.274207
  H      2.082252    2.410721   -1.892335
  C      0.238923   -1.683414   -0.862075
  C      1.592600   -0.058520   -2.714508
  C      0.659904   -2.179450   -2.097037
  C      1.326057   -1.356574   -3.016418
  H      2.172604    0.558174   -3.391716
  H      1.694981   -1.795051   -3.933474
  H     -0.139023   -2.388316   -0.177086
  H      0.481334   -3.221536   -2.323986

 Total Charge           Charge          ....   -1
 Multiplicity           Mult            ....    1
 Number of Electrons    NEL             ....  164
 Basis Dimension        Dim             ....  313

ORBITAL ENERGIES
----------------

  NO   OCC          E(Eh)            E(eV)
   0   2.0000    -102.075809     -2777.6240
   1   2.0000    -102.072629     -2777.5374
   2   2.0000    -102.070824     -2777.4883
   3   2.0000     -14.591160      -397.0456
   4   2.0000     -10.418734      -283.5082
   5   2.0000     -10.406734      -283.1816
   6   2.0000     -10.393958      -282.8340
   7   2.0000     -10.389394      -282.7098
   8   2.0000     -10.381685      -282.5000
   9   2.0000     -10.380490      -282.4675
  10   2.0000     -10.380349      -282.4636
  11   2.0000     -10.379025      -282.4276
  12   2.0000     -10.378005      -282.3999
  13   2.0000     -10.367401      -282.1113
  14   2.0000     -10.366196      -282.0785
  15   2.0000     -10.359756      -281.9033
  16   2.0000     -10.354704      -281.7658
  17   2.0000      -9.539653      -259.5872
  18   2.0000      -9.536698      -259.5067
  19   2.0000      -9.535348      -259.4700
  20   2.0000      -7.225270      -196.6096
  21   2.0000      -7.222524      -196.5349
  22   2.0000      -7.221731      -196.5133
  23   2.0000      -7.220952      -196.4921
  24   2.0000      -7.220614      -196.4829
  25   2.0000      -7.217799      -196.4063
  26   2.0000      -7.217535      -196.3991
  27   2.0000      -7.216138      -196.3611
  28   2.0000      -7.215656      -196.3480
  29   2.0000      -3.503102       -95.3242
  30   2.0000      -2.150140       -58.5083
  31   2.0000      -2.146808       -58.4176
  32   2.0000      -2.114197       -57.5302
  33   2.0000      -0.988299       -26.8930
  34   2.0000      -0.893098       -24.3024
  35   2.0000      -0.853481       -23.2244
  36   2.0000      -0.819758       -22.3067
  37   2.0000      -0.787421       -21.4268
  38   2.0000      -0.752032       -20.4638
  39   2.0000      -0.735793       -20.0220
  40   2.0000      -0.674396       -18.3512
  41   2.0000      -0.661494       -18.0002
  42   2.0000      -0.657296       -17.8859
  43   2.0000      -0.652531       -17.7563
  44   2.0000      -0.646639       -17.5959
  45   2.0000      -0.617671       -16.8077
  46   2.0000      -0.591270       -16.0893
  47   2.0000      -0.540275       -14.7016
  48   2.0000      -0.526055       -14.3147
  49   2.0000      -0.501938       -13.6584
  50   2.0000      -0.474786       -12.9196
  51   2.0000      -0.468714       -12.7543
  52   2.0000      -0.438454       -11.9309
  53   2.0000      -0.419363       -11.4114
  54   2.0000      -0.411839       -11.2067
  55   2.0000      -0.410265       -11.1639
  56   2.0000      -0.400102       -10.8873
  57   2.0000      -0.395861       -10.7719
  58   2.0000      -0.377961       -10.2848
  59   2.0000      -0.351274        -9.5587
  60   2.0000      -0.350505        -9.5377
  61   2.0000      -0.326531        -8.8854
  62   2.0000      -0.314283        -8.5521
  63   2.0000      -0.306698        -8.3457
  64   2.0000      -0.292447        -7.9579
  65   2.0000      -0.271775        -7.3954
  66   2.0000      -0.259908        -7.0725
  67   2.0000      -0.250877        -6.8267
  68   2.0000      -0.236043        -6.4230
  69   2.0000      -0.222655        -6.0588
  70   2.0000      -0.215623        -5.8674
  71   2.0000      -0.212345        -5.7782
  72   2.0000      -0.196085        -5.3357
  73   2.0000      -0.181070        -4.9272
  74   2.0000      -0.174958        -4.7609
  75   2.0000      -0.166701        -4.5362
  76   2.0000      -0.155098        -4.2204
  77   2.0000      -0.143937        -3.9167
  78   2.0000      -0.134443        -3.6584
  79   2.0000      -0.130174        -3.5422
  80   2.0000      -0.126809        -3.4507
  81   2.0000      -0.123465        -3.3596
  82   0.0000       0.043324         1.1789
  83   0.0000       0.058120         1.5815
  84   0.0000       0.096235         2.6187
  85   0.0000       0.104642         2.8475
  86   0.0000       0.132392         3.6026

MULLIKEN ATOMIC CHARGES
-----------------------
   0 Pd:    0.038718
   1 Cl:   -0.330746
   2 Cl:   -0.420240
   3 Cl:   -0.403458
   4 N :   -0.524887
   5 C :    0.044414
   6 C :   -0.308467
   7 C :   -0.159046
   8 C :    0.343180
   9 C :    0.043598
  10 H :    0.210533
  11 H :    0.281480
  12 H :    0.220300
  13 C :    0.073321
  14 C :   -0.294259
  15 C :   -0.284200
  16 C :    0.127973
  17 H :    0.197923
  18 H :    0.198910
  19 C :   -0.247199
  20 C :   -0.290382
  21 C :   -0.237900
  22 C :   -0.205874
  23 H :    0.193669
  24 H :    0.199404
  25 H :    0.302281
  26 H :    0.230957
Sum of atomic charges:   -1.0000000

LOEWDIN ATOMIC CHARGES
----------------------
   0 Pd:   -1.024210
   1 Cl:   -0.066638
   2 Cl:   -0.165174
   3 Cl:   -0.142796
   4 N :    0.033801
   5 C :    0.019303
   6 C :   -0.161521
   7 C :   -0.084743
   8 C :    0.091842
   9 C :   -0.047584
  10 H :    0.135402
  11 H :    0.167177
  12 H :    0.141049
  13 C :   -0.011917
  14 C :   -0.133372
  15 C :   -0.120002
  16 C :   -0.026678
  17 H :    0.131950
  18 H :    0.132374
  19 C :   -0.067584
  20 C :   -0.138007
  21 C :   -0.123013
  22 C :   -0.132007
  23 H :    0.127981
  24 H :    0.128983
  25 H :    0.192488
  26 H :    0.142898

  Mayer bond orders larger than 0.100000
B(  0-Pd,  1-Cl) :   0.9533 B(  0-Pd,  2-Cl) :   0.7768 B(  0-Pd,  3-Cl) :   0.8299
B(  0-Pd,  4-N ) :   0.3261 B(  4-N ,  5-C ) :   1.4832 B(  4-N ,  8-C ) :   1.2449
B(  5-C ,  6-C ) :   1.3133 B(  5-C , 11-H ) :   0.8942 B(  6-C ,  7-C ) :   1.4663
B(  6-C , 12-H ) :   0.9190 B(  7-C ,  9-C ) :   1.2769 B(  7-C , 10-H ) :   0.9288
B(  8-C ,  9-C ) :   1.2356 B(  8-C , 13-C ) :   1.0986 B(  9-C , 14-C ) :   1.1625
B( 13-C , 16-C ) :   1.3037 B( 13-C , 19-C ) :   1.2725 B( 14-C , 15-C ) :   1.6443
B( 14-C , 17-H ) :   0.9294 B( 15-C , 16-C ) :   1.1610 B( 15-C , 18-H ) :   0.9276
B( 16-C , 20-C ) :   1.2675 B( 19-C , 21-C ) :   1.5036 B( 19-C , 25-H ) :   0.8408
B( 20-C , 22-C ) :   1.4992 B( 20-C , 23-H ) :   0.9303 B( 21-C , 22-C ) :   1.3366
B( 21-C , 26-H ) :   0.9153 B( 22-C , 24-H ) :   0.9254

Dispersion correction           -0.024556178
FINAL SINGLE POINT ENERGY     -2061.540343909709
Dispersion correction            ... done

DIPOLE MOMENT
-------------
                                X             Y             Z
Electronic contribution:    -92.29595     -68.28879      37.10634
Nuclear contribution   :     96.20611      71.62903     -37.04356
                        -----------------------------------------
Total Dipole Moment    :      3.91016       3.34024       0.06278
                        -----------------------------------------
Magnitude (a.u.)       :      5.14300
Magnitude (Debye)      :     13.07248

Rotational constants in cm-1:     0.012808     0.007376     0.005972
Rotational constants in MHz :   383.970221   221.118980   179.029703

                             ****ORCA TERMINATED NORMALLY****
TOTAL RUN TIME: 0 days 0 hours 12 minutes 58 seconds 803 msec
