                         Program Version 5.0.3 -  RELEASE  -
|  1> ! EnGrad PBEh-3c
|  2> %output
|  3> xyzfile=True
|  4> end
|  5> %scf
|  6> maxiter 250
|  7> end
|  8> %output
|  9> Print[P_Hirshfeld] = 1
| 10> end
| 11> % maxcore
| 12> 4000
| 13> *xyz -1 1
| 14> Pd  -2.36205242  -1.75912220   0.83816867
| 15> Cl  -4.00958786  -3.11970677   0.06359274
| 16> Cl  -1.26969484  -3.58864241   1.73186300
| 17> Cl  -3.46716881   0.08446920   0.05126429
| 18> N   -0.90606820  -0.30789321   1.46720804
| 19> C   -1.19581762   0.23836614   2.63222948
| 20> C   -0.70156740   1.47072819   3.05580378
| 21> C    0.07388826   2.19546972   2.19271990
| 22> C   -0.05452968   0.33345432   0.63166736
| 23> C    0.40221268   1.64045967   0.94664076
| 24> H    0.44071154   3.18021653   2.45886507
| 25> H   -1.86253635  -0.32683378   3.26688894
| 26> H   -0.96422040   1.84645819   4.03746264
| 27> C    0.41997209  -0.30078554  -0.57479180
| 28> C    1.19479025   2.37880742   0.01321073
| 29> C    1.50656199   1.83854545  -1.16694190
| 30> C    1.14888734   0.49210937  -1.50578555
| 31> H    1.52168384   3.38369587   0.27565913
| 32> H    2.09282553   2.39708849  -1.88981589
| 33> C    0.25212211  -1.68747063  -0.88473078
| 34> C    1.58813124  -0.04871359  -2.70276789
| 35> C    0.65180718  -2.16727322  -2.08433887
| 36> C    1.31641975  -1.37399063  -3.02259528
| 37> H    2.17633274   0.55439889  -3.37888904
| 38> H    1.68343700  -1.79129826  -3.93877069
| 39> H   -0.14544251  -2.34245066  -0.19015749
| 40> H    0.46065765  -3.22302111  -2.33392902
| 41> *
| 42>
| 43>                          ****END OF INPUT****

CARTESIAN COORDINATES (ANGSTROEM)
---------------------------------
  Pd    -2.362052   -1.759122    0.838169
  Cl    -4.009588   -3.119707    0.063593
  Cl    -1.269695   -3.588642    1.731863
  Cl    -3.467169    0.084469    0.051264
  N     -0.906068   -0.307893    1.467208
  C     -1.195818    0.238366    2.632229
  C     -0.701567    1.470728    3.055804
  C      0.073888    2.195470    2.192720
  C     -0.054530    0.333454    0.631667
  C      0.402213    1.640460    0.946641
  H      0.440712    3.180217    2.458865
  H     -1.862536   -0.326834    3.266889
  H     -0.964220    1.846458    4.037463
  C      0.419972   -0.300786   -0.574792
  C      1.194790    2.378807    0.013211
  C      1.506562    1.838545   -1.166942
  C      1.148887    0.492109   -1.505786
  H      1.521684    3.383696    0.275659
  H      2.092826    2.397088   -1.889816
  C      0.252122   -1.687471   -0.884731
  C      1.588131   -0.048714   -2.702768
  C      0.651807   -2.167273   -2.084339
  C      1.316420   -1.373991   -3.022595
  H      2.176333    0.554399   -3.378889
  H      1.683437   -1.791298   -3.938771
  H     -0.145443   -2.342451   -0.190157
  H      0.460658   -3.223021   -2.333929

 Total Charge           Charge          ....   -1
 Multiplicity           Mult            ....    1
 Number of Electrons    NEL             ....  164
 Basis Dimension        Dim             ....  313

ORBITAL ENERGIES
----------------

  NO   OCC          E(Eh)            E(eV)
   0   2.0000    -102.075012     -2777.6023
   1   2.0000    -102.073004     -2777.5476
   2   2.0000    -102.069978     -2777.4653
   3   2.0000     -14.591030      -397.0421
   4   2.0000     -10.419004      -283.5155
   5   2.0000     -10.406509      -283.1755
   6   2.0000     -10.393619      -282.8247
   7   2.0000     -10.389714      -282.7185
   8   2.0000     -10.380069      -282.4560
   9   2.0000     -10.379572      -282.4425
  10   2.0000     -10.378788      -282.4212
  11   2.0000     -10.378439      -282.4117
  12   2.0000     -10.376693      -282.3642
  13   2.0000     -10.368451      -282.1399
  14   2.0000     -10.367419      -282.1118
  15   2.0000     -10.356840      -281.8240
  16   2.0000     -10.348507      -281.5972
  17   2.0000      -9.539052      -259.5708
  18   2.0000      -9.537388      -259.5255
  19   2.0000      -9.534428      -259.4450
  20   2.0000      -7.224666      -196.5932
  21   2.0000      -7.223197      -196.5532
  22   2.0000      -7.220806      -196.4881
  23   2.0000      -7.220333      -196.4752
  24   2.0000      -7.219991      -196.4660
  25   2.0000      -7.218468      -196.4245
  26   2.0000      -7.218195      -196.4171
  27   2.0000      -7.215225      -196.3363
  28   2.0000      -7.214756      -196.3235
  29   2.0000      -3.502264       -95.3014
  30   2.0000      -2.148879       -58.4740
  31   2.0000      -2.146687       -58.4143
  32   2.0000      -2.113330       -57.5066
  33   2.0000      -0.986948       -26.8562
  34   2.0000      -0.894397       -24.3378
  35   2.0000      -0.854278       -23.2461
  36   2.0000      -0.820334       -22.3224
  37   2.0000      -0.788772       -21.4636
  38   2.0000      -0.751491       -20.4491
  39   2.0000      -0.738778       -20.1032
  40   2.0000      -0.675443       -18.3797
  41   2.0000      -0.662334       -18.0230
  42   2.0000      -0.656832       -17.8733
  43   2.0000      -0.654637       -17.8136
  44   2.0000      -0.645866       -17.5749
  45   2.0000      -0.615415       -16.7463
  46   2.0000      -0.593512       -16.1503
  47   2.0000      -0.540686       -14.7128
  48   2.0000      -0.526073       -14.3152
  49   2.0000      -0.502081       -13.6623
  50   2.0000      -0.476486       -12.9658
  51   2.0000      -0.466775       -12.7016
  52   2.0000      -0.438209       -11.9243
  53   2.0000      -0.420494       -11.4422
  54   2.0000      -0.413421       -11.2498
  55   2.0000      -0.410695       -11.1756
  56   2.0000      -0.399685       -10.8760
  57   2.0000      -0.396688       -10.7944
  58   2.0000      -0.377639       -10.2761
  59   2.0000      -0.352307        -9.5867
  60   2.0000      -0.350591        -9.5401
  61   2.0000      -0.324055        -8.8180
  62   2.0000      -0.314282        -8.5520
  63   2.0000      -0.309417        -8.4197
  64   2.0000      -0.289865        -7.8876
  65   2.0000      -0.272404        -7.4125
  66   2.0000      -0.262758        -7.1500
  67   2.0000      -0.251013        -6.8304
  68   2.0000      -0.237348        -6.4586
  69   2.0000      -0.224577        -6.1110
  70   2.0000      -0.214980        -5.8499
  71   2.0000      -0.211409        -5.7527
  72   2.0000      -0.194544        -5.2938
  73   2.0000      -0.181027        -4.9260
  74   2.0000      -0.177926        -4.8416
  75   2.0000      -0.167546        -4.5592
  76   2.0000      -0.155164        -4.2222
  77   2.0000      -0.143493        -3.9046
  78   2.0000      -0.132931        -3.6172
  79   2.0000      -0.129471        -3.5231
  80   2.0000      -0.126519        -3.4428
  81   2.0000      -0.121749        -3.3130
  82   0.0000       0.043313         1.1786
  83   0.0000       0.058104         1.5811
  84   0.0000       0.098179         2.6716
  85   0.0000       0.108234         2.9452
  86   0.0000       0.131415         3.5760

MULLIKEN ATOMIC CHARGES
-----------------------
   0 Pd:    0.028749
   1 Cl:   -0.333734
   2 Cl:   -0.415663
   3 Cl:   -0.397627
   4 N :   -0.523136
   5 C :    0.046139
   6 C :   -0.309630
   7 C :   -0.155756
   8 C :    0.353946
   9 C :    0.027710
  10 H :    0.211374
  11 H :    0.281021
  12 H :    0.219438
  13 C :    0.061096
  14 C :   -0.282651
  15 C :   -0.290625
  16 C :    0.137693
  17 H :    0.197395
  18 H :    0.195816
  19 C :   -0.226866
  20 C :   -0.301184
  21 C :   -0.237554
  22 C :   -0.210989
  23 H :    0.193879
  24 H :    0.204283
  25 H :    0.301104
  26 H :    0.225771
Sum of atomic charges:   -1.0000000

LOEWDIN ATOMIC CHARGES
----------------------
   0 Pd:   -1.039304
   1 Cl:   -0.071177
   2 Cl:   -0.155362
   3 Cl:   -0.128804
   4 N :    0.032930
   5 C :    0.018663
   6 C :   -0.161039
   7 C :   -0.085856
   8 C :    0.090099
   9 C :   -0.045068
  10 H :    0.135579
  11 H :    0.167038
  12 H :    0.140680
  13 C :   -0.009217
  14 C :   -0.134695
  15 C :   -0.117696
  16 C :   -0.029692
  17 H :    0.132175
  18 H :    0.130889
  19 C :   -0.068695
  20 C :   -0.138655
  21 C :   -0.123193
  22 C :   -0.128221
  23 H :    0.127724
  24 H :    0.130006
  25 H :    0.188104
  26 H :    0.142787

  Mayer bond orders larger than 0.100000
B(  0-Pd,  1-Cl) :   0.9498 B(  0-Pd,  2-Cl) :   0.7845 B(  0-Pd,  3-Cl) :   0.8389
B(  0-Pd,  4-N ) :   0.3246 B(  4-N ,  5-C ) :   1.4843 B(  4-N ,  8-C ) :   1.2406
B(  5-C ,  6-C ) :   1.3126 B(  5-C , 11-H ) :   0.8947 B(  6-C ,  7-C ) :   1.4643
B(  6-C , 12-H ) :   0.9193 B(  7-C ,  9-C ) :   1.2807 B(  7-C , 10-H ) :   0.9281
B(  8-C ,  9-C ) :   1.2390 B(  8-C , 13-C ) :   1.0969 B(  9-C , 14-C ) :   1.1590
B( 13-C , 16-C ) :   1.3033 B( 13-C , 19-C ) :   1.2863 B( 14-C , 15-C ) :   1.6556
B( 14-C , 17-H ) :   0.9294 B( 15-C , 16-C ) :   1.1557 B( 15-C , 18-H ) :   0.9279
B( 16-C , 20-C ) :   1.2764 B( 19-C , 21-C ) :   1.5083 B( 19-C , 25-H ) :   0.8415
B( 20-C , 22-C ) :   1.4890 B( 20-C , 23-H ) :   0.9307 B( 21-C , 22-C ) :   1.3371
B( 21-C , 26-H ) :   0.9179 B( 22-C , 24-H ) :   0.9236

Dispersion correction           -0.024599170
FINAL SINGLE POINT ENERGY     -2061.538098640635
Dispersion correction            ... done

DIPOLE MOMENT
-------------
                                X             Y             Z
Electronic contribution:    -92.40353     -68.48529      37.03581
Nuclear contribution   :     96.30097      71.86067     -36.98323
                        -----------------------------------------
Total Dipole Moment    :      3.89744       3.37538       0.05258
                        -----------------------------------------
Magnitude (a.u.)       :      5.15616
Magnitude (Debye)      :     13.10591

Rotational constants in cm-1:     0.012848     0.007407     0.005966
Rotational constants in MHz :   385.172702   222.041380   178.845874

                             ****ORCA TERMINATED NORMALLY****
TOTAL RUN TIME: 0 days 0 hours 13 minutes 59 seconds 871 msec
