                         Program Version 5.0.3 -  RELEASE  -
|  1> ! EnGrad PBEh-3c
|  2> %output
|  3> xyzfile=True
|  4> end
|  5> %scf
|  6> maxiter 250
|  7> end
|  8> %output
|  9> Print[P_Hirshfeld] = 1
| 10> end
| 11> % maxcore
| 12> 4000
| 13> *xyz 0 1
| 14> Pd   0.37642852   0.13323957  -0.18797711
| 15> O    1.94616483   1.33977060   0.65535999
| 16> C    1.83053057   2.53831627   0.43092309
| 17> O    0.75354228   3.01500628  -0.12315528
| 18> C    2.94415868   3.49736013   0.69050889
| 19> H    2.61751996   4.43346096   1.14357774
| 20> H    3.42329367   3.75659566  -0.25640716
| 21> H    3.70341348   3.04475782   1.32193669
| 22> N   -1.25491188  -0.93976513  -0.89785193
| 23> C   -0.89465153  -2.32585101  -1.24396147
| 24> H   -0.10345586  -2.37037051  -1.98635318
| 25> H   -1.71361411  -2.88587152  -1.72575568
| 26> H   -0.53796559  -2.85725712  -0.37240541
| 27> C   -1.77961998  -0.32851322  -2.12875557
| 28> H   -1.93138180   0.73592659  -1.97509754
| 29> H   -2.72962252  -0.77776899  -2.44478392
| 30> H   -1.10764151  -0.46885493  -2.96868980
| 31> C   -1.83191299  -1.13266726   1.49593614
| 32> C   -2.44704925  -1.88851105   2.48757528
| 33> C   -2.07816135  -1.77647960   3.81644411
| 34> C   -1.08274914  -0.89487789   4.17767452
| 35> C   -0.50617167  -0.10494031   3.19444343
| 36> C   -0.94242181  -0.14457395   1.87902906
| 37> H   -0.80433939  -0.78080486   5.21823745
| 38> H    0.14858120   0.65497900   3.60223144
| 39> H   -3.28141371  -2.54080041   2.25496574
| 40> H   -2.57881625  -2.35619192   4.58076201
| 41> H   -0.82234483   3.95480662   0.75667569
| 42> C   -2.35277947  -1.01404000   0.09751699
| 43> H   -2.96944907  -0.11273557   0.01925996
| 44> H   -3.06034588  -1.83666707  -0.07388817
| 45> O    1.40454773   0.63116091  -1.90700790
| 46> C    2.12484961  -0.23617536  -2.51089204
| 47> O    2.15080443  -1.40166851  -2.14832456
| 48> C    3.13157862   0.26271986  -3.52593348
| 49> H    3.50333014  -0.54319086  -4.15851838
| 50> H    3.99654546   0.67678189  -3.00164883
| 51> H    2.75552310   1.04369490  -4.18563812
| 52> *
| 53>
| 54>                          ****END OF INPUT****

CARTESIAN COORDINATES (ANGSTROEM)
---------------------------------
  Pd     0.376429    0.133240   -0.187977
  O      1.946165    1.339771    0.655360
  C      1.830531    2.538316    0.430923
  O      0.753542    3.015006   -0.123155
  C      2.944159    3.497360    0.690509
  H      2.617520    4.433461    1.143578
  H      3.423294    3.756596   -0.256407
  H      3.703413    3.044758    1.321937
  N     -1.254912   -0.939765   -0.897852
  C     -0.894652   -2.325851   -1.243961
  H     -0.103456   -2.370371   -1.986353
  H     -1.713614   -2.885872   -1.725756
  H     -0.537966   -2.857257   -0.372405
  C     -1.779620   -0.328513   -2.128756
  H     -1.931382    0.735927   -1.975098
  H     -2.729623   -0.777769   -2.444784
  H     -1.107642   -0.468855   -2.968690
  C     -1.831913   -1.132667    1.495936
  C     -2.447049   -1.888511    2.487575
  C     -2.078161   -1.776480    3.816444
  C     -1.082749   -0.894878    4.177675
  C     -0.506172   -0.104940    3.194443
  C     -0.942422   -0.144574    1.879029
  H     -0.804339   -0.780805    5.218237
  H      0.148581    0.654979    3.602231
  H     -3.281414   -2.540800    2.254966
  H     -2.578816   -2.356192    4.580762
  H     -0.822345    3.954807    0.756676
  C     -2.352779   -1.014040    0.097517
  H     -2.969449   -0.112736    0.019260
  H     -3.060346   -1.836667   -0.073888
  O      1.404548    0.631161   -1.907008
  C      2.124850   -0.236175   -2.510892
  O      2.150804   -1.401669   -2.148325
  C      3.131579    0.262720   -3.525933
  H      3.503330   -0.543191   -4.158518
  H      3.996545    0.676782   -3.001649
  H      2.755523    1.043695   -4.185638

 Total Charge           Charge          ....    0
 Multiplicity           Mult            ....    1
 Number of Electrons    NEL             ....  154
 Basis Dimension        Dim             ....  339

ORBITAL ENERGIES
----------------

  NO   OCC          E(Eh)            E(eV)
   0   2.0000     -19.526847      -531.3525
   1   2.0000     -19.516191      -531.0626
   2   2.0000     -19.450725      -529.2811
   3   2.0000     -19.409799      -528.1675
   4   2.0000     -14.723132      -400.6368
   5   2.0000     -10.582145      -287.9548
   6   2.0000     -10.513994      -286.1003
   7   2.0000     -10.490911      -285.4722
   8   2.0000     -10.477577      -285.1094
   9   2.0000     -10.465491      -284.7805
  10   2.0000     -10.455230      -284.5013
  11   2.0000     -10.453452      -284.4529
  12   2.0000     -10.448934      -284.3300
  13   2.0000     -10.446131      -284.2537
  14   2.0000     -10.443997      -284.1956
  15   2.0000     -10.443356      -284.1782
  16   2.0000     -10.441861      -284.1375
  17   2.0000     -10.408864      -283.2396
  18   2.0000      -3.647724       -99.2596
  19   2.0000      -2.295848       -62.4732
  20   2.0000      -2.287268       -62.2397
  21   2.0000      -2.259762       -61.4913
  22   2.0000      -1.207639       -32.8615
  23   2.0000      -1.135389       -30.8955
  24   2.0000      -1.091942       -29.7133
  25   2.0000      -1.075911       -29.2770
  26   2.0000      -1.029086       -28.0028
  27   2.0000      -0.958987       -26.0954
  28   2.0000      -0.872234       -23.7347
  29   2.0000      -0.836436       -22.7606
  30   2.0000      -0.827328       -22.5128
  31   2.0000      -0.811256       -22.0754
  32   2.0000      -0.789373       -21.4799
  33   2.0000      -0.787373       -21.4255
  34   2.0000      -0.714273       -19.4364
  35   2.0000      -0.677051       -18.4235
  36   2.0000      -0.650962       -17.7136
  37   2.0000      -0.626042       -17.0355
  38   2.0000      -0.585954       -15.9446
  39   2.0000      -0.574522       -15.6335
  40   2.0000      -0.567144       -15.4328
  41   2.0000      -0.566786       -15.4230
  42   2.0000      -0.552417       -15.0320
  43   2.0000      -0.546206       -14.8630
  44   2.0000      -0.542336       -14.7577
  45   2.0000      -0.530386       -14.4325
  46   2.0000      -0.519236       -14.1291
  47   2.0000      -0.497254       -13.5310
  48   2.0000      -0.496387       -13.5074
  49   2.0000      -0.480438       -13.0734
  50   2.0000      -0.478193       -13.0123
  51   2.0000      -0.473828       -12.8935
  52   2.0000      -0.468324       -12.7438
  53   2.0000      -0.465574       -12.6689
  54   2.0000      -0.454869       -12.3776
  55   2.0000      -0.447217       -12.1694
  56   2.0000      -0.439424       -11.9573
  57   2.0000      -0.435106       -11.8398
  58   2.0000      -0.428665       -11.6646
  59   2.0000      -0.419369       -11.4116
  60   2.0000      -0.411774       -11.2049
  61   2.0000      -0.409178       -11.1343
  62   2.0000      -0.401611       -10.9284
  63   2.0000      -0.390755       -10.6330
  64   2.0000      -0.370871       -10.0919
  65   2.0000      -0.366742        -9.9796
  66   2.0000      -0.354864        -9.6563
  67   2.0000      -0.343995        -9.3606
  68   2.0000      -0.341905        -9.3037
  69   2.0000      -0.327577        -8.9138
  70   2.0000      -0.323706        -8.8085
  71   2.0000      -0.291427        -7.9301
  72   2.0000      -0.289220        -7.8701
  73   2.0000      -0.283877        -7.7247
  74   2.0000      -0.280058        -7.6208
  75   2.0000      -0.261278        -7.1097
  76   2.0000      -0.257806        -7.0153
  77   0.0000      -0.183156        -4.9839
  78   0.0000      -0.053127        -1.4457
  79   0.0000       0.013981         0.3804
  80   0.0000       0.024601         0.6694
  81   0.0000       0.047041         1.2800

MULLIKEN ATOMIC CHARGES
-----------------------
   0 Pd:    0.402890
   1 O :   -0.392579
   2 C :    0.615803
   3 O :   -0.435197
   4 C :   -0.749497
   5 H :    0.242798
   6 H :    0.267360
   7 H :    0.251995
   8 N :   -0.485372
   9 C :   -0.555650
  10 H :    0.313121
  11 H :    0.217374
  12 H :    0.278636
  13 C :   -0.527840
  14 H :    0.275052
  15 H :    0.227449
  16 H :    0.280323
  17 C :    0.060832
  18 C :   -0.267599
  19 C :   -0.220276
  20 C :   -0.214270
  21 C :   -0.281530
  22 C :   -0.077956
  23 H :    0.223473
  24 H :    0.216214
  25 H :    0.206412
  26 H :    0.219502
  27 H :    0.250528
  28 C :   -0.326228
  29 H :    0.269634
  30 H :    0.234007
  31 O :   -0.533068
  32 C :    0.533534
  33 O :   -0.472594
  34 C :   -0.745351
  35 H :    0.236509
  36 H :    0.237781
  37 H :    0.223777
Sum of atomic charges:   -0.0000000

LOEWDIN ATOMIC CHARGES
----------------------
   0 Pd:   -0.359999
   1 O :   -0.054645
   2 C :    0.160769
   3 O :   -0.216353
   4 C :   -0.379087
   5 H :    0.149246
   6 H :    0.166764
   7 H :    0.148675
   8 N :   -0.026287
   9 C :   -0.241633
  10 H :    0.167927
  11 H :    0.119439
  12 H :    0.155665
  13 C :   -0.230474
  14 H :    0.153496
  15 H :    0.123430
  16 H :    0.156870
  17 C :   -0.070442
  18 C :   -0.132621
  19 C :   -0.136514
  20 C :   -0.133362
  21 C :   -0.125203
  22 C :   -0.028705
  23 H :    0.136068
  24 H :    0.140300
  25 H :    0.132415
  26 H :    0.135479
  27 H :    0.259193
  28 C :   -0.106854
  29 H :    0.152125
  30 H :    0.131290
  31 O :   -0.204888
  32 C :    0.103569
  33 O :   -0.283163
  34 C :   -0.385980
  35 H :    0.140142
  36 H :    0.149327
  37 H :    0.134016

  Mayer bond orders larger than 0.100000
B(  0-Pd,  1-O ) :   0.4259 B(  0-Pd,  3-O ) :   0.1154 B(  0-Pd,  8-N ) :   0.4564
B(  0-Pd, 22-C ) :   0.6407 B(  0-Pd, 27-H ) :   0.1459 B(  0-Pd, 31-O ) :   0.5433
B(  1-O ,  2-C ) :   1.6018 B(  1-O , 27-H ) :   0.1083 B(  2-C ,  3-O ) :   1.3847
B(  2-C ,  4-C ) :   0.9524 B(  3-O , 27-H ) :   0.4861 B(  4-C ,  5-H ) :   0.9119
B(  4-C ,  6-H ) :   0.8990 B(  4-C ,  7-H ) :   0.9090 B(  8-N ,  9-C ) :   0.9139
B(  8-N , 13-C ) :   0.9178 B(  8-N , 28-C ) :   0.8853 B(  9-C , 10-H ) :   0.8683
B(  9-C , 11-H ) :   0.9027 B(  9-C , 12-H ) :   0.8985 B( 13-C , 14-H ) :   0.9010
B( 13-C , 15-H ) :   0.9001 B( 13-C , 16-H ) :   0.8968 B( 17-C , 18-C ) :   1.4009
B( 17-C , 22-C ) :   1.3421 B( 17-C , 28-C ) :   0.9683 B( 18-C , 19-C ) :   1.4425
B( 18-C , 25-H ) :   0.9199 B( 19-C , 20-C ) :   1.4331 B( 19-C , 26-H ) :   0.9167
B( 20-C , 21-C ) :   1.4134 B( 20-C , 23-H ) :   0.9139 B( 21-C , 22-C ) :   1.4052
B( 21-C , 24-H ) :   0.9163 B( 22-C , 27-H ) :   0.1226 B( 28-C , 29-H ) :   0.8954
B( 28-C , 30-H ) :   0.9051 B( 31-O , 32-C ) :   1.3282 B( 32-C , 33-O ) :   1.8415
B( 32-C , 34-C ) :   0.9314 B( 34-C , 35-H ) :   0.9200 B( 34-C , 36-H ) :   0.9157
B( 34-C , 37-H ) :   0.9170

Dispersion correction           -0.026080356
FINAL SINGLE POINT ENERGY      -988.277169520515
Dispersion correction            ... done

DIPOLE MOMENT
-------------
                                X             Y             Z
Electronic contribution:     14.43342       7.09107      -9.64034
Nuclear contribution   :    -16.28125      -5.85119      10.22130
                        -----------------------------------------
Total Dipole Moment    :     -1.84783       1.23989       0.58095
                        -----------------------------------------
Magnitude (a.u.)       :      2.29985
Magnitude (Debye)      :      5.84575

Rotational constants in cm-1:     0.014880     0.008325     0.006240
Rotational constants in MHz :   446.097386   249.563329   187.083090

                             ****ORCA TERMINATED NORMALLY****
TOTAL RUN TIME: 0 days 0 hours 13 minutes 16 seconds 695 msec
