                         Program Version 5.0.3 -  RELEASE  -
|  1> ! EnGrad PBEh-3c
|  2> %output
|  3> xyzfile=True
|  4> end
|  5> %scf
|  6> maxiter 250
|  7> end
|  8> %output
|  9> Print[P_Hirshfeld] = 1
| 10> end
| 11> % maxcore
| 12> 4000
| 13> *xyz 0 1
| 14> Pd   0.27162359   0.26982393   0.04209922
| 15> O    1.83725707   1.40918747   0.60505372
| 16> C    1.66405679   2.59719556   0.44258387
| 17> O    0.44048366   3.09797719   0.02264191
| 18> C    2.88756007   3.52909836   0.66849107
| 19> H    2.52216367   4.45584672   1.10686015
| 20> H    3.35836272   3.80950713  -0.28179574
| 21> H    3.66925338   3.10968077   1.31528810
| 22> N   -1.32737078  -0.92534003  -0.94413886
| 23> C   -0.94377143  -2.26865634  -1.44975871
| 24> H   -0.16185563  -2.16812607  -2.19709760
| 25> H   -1.87273877  -2.70895382  -1.84097269
| 26> H   -0.59748930  -2.86880772  -0.60521418
| 27> C   -1.86615162  -0.14126345  -2.07823190
| 28> H   -1.99365461   0.90558436  -1.80171246
| 29> H   -2.83603125  -0.57160435  -2.35189574
| 30> H   -1.16168141  -0.19043406  -2.91103337
| 31> C   -1.81353918  -1.05355717   1.51088607
| 32> C   -2.26010183  -2.00393085   2.44314514
| 33> C   -1.85387916  -1.92788081   3.76904775
| 34> C   -1.09395061  -0.83166843   4.14774844
| 35> C   -0.66505224   0.11837849   3.19695407
| 36> C   -0.76198316  -0.14202809   1.80072045
| 37> H   -0.77883188  -0.74745032   5.19040415
| 38> H   -0.14594211   0.97199183   3.60083663
| 39> H   -2.94203880  -2.80011117   2.15648510
| 40> H   -2.25833138  -2.60138998   4.51580884
| 41> H   -0.61695502   3.59379685   0.71810333
| 42> C   -2.36392061  -1.06028335   0.12318880
| 43> H   -2.99659727  -0.17625227   0.06946958
| 44> H   -2.97733784  -1.93710048  -0.12480156
| 45> O    1.41215262   0.55526470  -1.92711854
| 46> C    2.20316907  -0.37629327  -2.36406621
| 47> O    2.16410195  -1.58019894  -2.11891794
| 48> C    3.24467640   0.08640173  -3.43107681
| 49> H    3.61168842  -0.77217564  -4.00239659
| 50> H    4.10269700   0.49701213  -2.89494911
| 51> H    2.90117257   0.85928926  -4.12400799
| 52> *
| 53>
| 54>                          ****END OF INPUT****

CARTESIAN COORDINATES (ANGSTROEM)
---------------------------------
  Pd     0.271624    0.269824    0.042099
  O      1.837257    1.409187    0.605054
  C      1.664057    2.597196    0.442584
  O      0.440484    3.097977    0.022642
  C      2.887560    3.529098    0.668491
  H      2.522164    4.455847    1.106860
  H      3.358363    3.809507   -0.281796
  H      3.669253    3.109681    1.315288
  N     -1.327371   -0.925340   -0.944139
  C     -0.943771   -2.268656   -1.449759
  H     -0.161856   -2.168126   -2.197098
  H     -1.872739   -2.708954   -1.840973
  H     -0.597489   -2.868808   -0.605214
  C     -1.866152   -0.141263   -2.078232
  H     -1.993655    0.905584   -1.801712
  H     -2.836031   -0.571604   -2.351896
  H     -1.161681   -0.190434   -2.911033
  C     -1.813539   -1.053557    1.510886
  C     -2.260102   -2.003931    2.443145
  C     -1.853879   -1.927881    3.769048
  C     -1.093951   -0.831668    4.147748
  C     -0.665052    0.118378    3.196954
  C     -0.761983   -0.142028    1.800720
  H     -0.778832   -0.747450    5.190404
  H     -0.145942    0.971992    3.600837
  H     -2.942039   -2.800111    2.156485
  H     -2.258331   -2.601390    4.515809
  H     -0.616955    3.593797    0.718103
  C     -2.363921   -1.060283    0.123189
  H     -2.996597   -0.176252    0.069470
  H     -2.977338   -1.937100   -0.124802
  O      1.412153    0.555265   -1.927119
  C      2.203169   -0.376293   -2.364066
  O      2.164102   -1.580199   -2.118918
  C      3.244676    0.086402   -3.431077
  H      3.611688   -0.772176   -4.002397
  H      4.102697    0.497012   -2.894949
  H      2.901173    0.859289   -4.124008

 Total Charge           Charge          ....    0
 Multiplicity           Mult            ....    1
 Number of Electrons    NEL             ....  154
 Basis Dimension        Dim             ....  339

ORBITAL ENERGIES
----------------

  NO   OCC          E(Eh)            E(eV)
   0   2.0000     -19.574844      -532.6586
   1   2.0000     -19.569580      -532.5153
   2   2.0000     -19.429971      -528.7164
   3   2.0000     -19.400566      -527.9163
   4   2.0000     -14.701281      -400.0422
   5   2.0000     -10.641182      -289.5613
   6   2.0000     -10.505034      -285.8565
   7   2.0000     -10.482699      -285.2487
   8   2.0000     -10.480193      -285.1805
   9   2.0000     -10.470560      -284.9184
  10   2.0000     -10.458241      -284.5832
  11   2.0000     -10.453625      -284.4576
  12   2.0000     -10.450153      -284.3631
  13   2.0000     -10.443084      -284.1708
  14   2.0000     -10.440263      -284.0940
  15   2.0000     -10.439238      -284.0661
  16   2.0000     -10.434467      -283.9363
  17   2.0000     -10.394154      -282.8393
  18   2.0000      -3.643258       -99.1381
  19   2.0000      -2.290175       -62.3188
  20   2.0000      -2.285570       -62.1935
  21   2.0000      -2.254894       -61.3588
  22   2.0000      -1.248067       -33.9616
  23   2.0000      -1.130409       -30.7600
  24   2.0000      -1.102257       -29.9939
  25   2.0000      -1.052425       -28.6379
  26   2.0000      -1.011805       -27.5326
  27   2.0000      -0.942897       -25.6575
  28   2.0000      -0.858206       -23.3530
  29   2.0000      -0.857606       -23.3366
  30   2.0000      -0.819095       -22.2887
  31   2.0000      -0.799528       -21.7563
  32   2.0000      -0.774561       -21.0769
  33   2.0000      -0.761114       -20.7110
  34   2.0000      -0.695054       -18.9134
  35   2.0000      -0.685321       -18.6485
  36   2.0000      -0.668256       -18.1842
  37   2.0000      -0.639096       -17.3907
  38   2.0000      -0.625844       -17.0301
  39   2.0000      -0.577197       -15.7063
  40   2.0000      -0.575438       -15.6585
  41   2.0000      -0.563732       -15.3399
  42   2.0000      -0.550280       -14.9739
  43   2.0000      -0.549453       -14.9514
  44   2.0000      -0.542592       -14.7647
  45   2.0000      -0.528312       -14.3761
  46   2.0000      -0.505140       -13.7456
  47   2.0000      -0.499848       -13.6016
  48   2.0000      -0.493837       -13.4380
  49   2.0000      -0.481686       -13.1073
  50   2.0000      -0.472987       -12.8706
  51   2.0000      -0.465352       -12.6629
  52   2.0000      -0.457327       -12.4445
  53   2.0000      -0.455013       -12.3815
  54   2.0000      -0.452445       -12.3117
  55   2.0000      -0.447614       -12.1802
  56   2.0000      -0.446273       -12.1437
  57   2.0000      -0.440512       -11.9869
  58   2.0000      -0.428809       -11.6685
  59   2.0000      -0.423447       -11.5226
  60   2.0000      -0.419325       -11.4104
  61   2.0000      -0.408977       -11.1288
  62   2.0000      -0.405441       -11.0326
  63   2.0000      -0.400572       -10.9001
  64   2.0000      -0.387103       -10.5336
  65   2.0000      -0.379582       -10.3290
  66   2.0000      -0.359534        -9.7834
  67   2.0000      -0.350887        -9.5481
  68   2.0000      -0.337806        -9.1922
  69   2.0000      -0.336880        -9.1670
  70   2.0000      -0.324268        -8.8238
  71   2.0000      -0.284589        -7.7441
  72   2.0000      -0.277505        -7.5513
  73   2.0000      -0.273389        -7.4393
  74   2.0000      -0.271287        -7.3821
  75   2.0000      -0.254999        -6.9389
  76   2.0000      -0.249166        -6.7801
  77   0.0000      -0.094475        -2.5708
  78   0.0000      -0.039704        -1.0804
  79   0.0000       0.002165         0.0589
  80   0.0000       0.016610         0.4520
  81   0.0000       0.025241         0.6868

MULLIKEN ATOMIC CHARGES
-----------------------
   0 Pd:    0.360743
   1 O :   -0.350254
   2 C :    0.656630
   3 O :   -0.572995
   4 C :   -0.737265
   5 H :    0.241598
   6 H :    0.284011
   7 H :    0.277837
   8 N :   -0.458461
   9 C :   -0.515160
  10 H :    0.305066
  11 H :    0.197477
  12 H :    0.266037
  13 C :   -0.512527
  14 H :    0.257043
  15 H :    0.217175
  16 H :    0.278426
  17 C :    0.076501
  18 C :   -0.259746
  19 C :   -0.219832
  20 C :   -0.216963
  21 C :   -0.311396
  22 C :   -0.112955
  23 H :    0.215251
  24 H :    0.200619
  25 H :    0.207497
  26 H :    0.213316
  27 H :    0.445159
  28 C :   -0.328356
  29 H :    0.256036
  30 H :    0.225540
  31 O :   -0.553914
  32 C :    0.534772
  33 O :   -0.485801
  34 C :   -0.739257
  35 H :    0.228086
  36 H :    0.214083
  37 H :    0.215978
Sum of atomic charges:   -0.0000000

LOEWDIN ATOMIC CHARGES
----------------------
   0 Pd:   -0.394581
   1 O :    0.006550
   2 C :    0.254639
   3 O :   -0.304126
   4 C :   -0.370627
   5 H :    0.148026
   6 H :    0.172928
   7 H :    0.164434
   8 N :   -0.059305
   9 C :   -0.230821
  10 H :    0.169632
  11 H :    0.111857
  12 H :    0.151885
  13 C :   -0.231537
  14 H :    0.146119
  15 H :    0.119292
  16 H :    0.158345
  17 C :   -0.054496
  18 C :   -0.140031
  19 C :   -0.149173
  20 C :   -0.140952
  21 C :   -0.135067
  22 C :   -0.017990
  23 H :    0.133924
  24 H :    0.131385
  25 H :    0.133131
  26 H :    0.134451
  27 H :    0.406542
  28 C :   -0.108411
  29 H :    0.148092
  30 H :    0.127729
  31 O :   -0.284969
  32 C :    0.112537
  33 O :   -0.305412
  34 C :   -0.402024
  35 H :    0.134563
  36 H :    0.134796
  37 H :    0.128665

  Mayer bond orders larger than 0.100000
B(  0-Pd,  1-O ) :   0.3919 B(  0-Pd,  8-N ) :   0.4342 B(  0-Pd, 22-C ) :   0.8550
B(  0-Pd, 31-O ) :   0.4528 B(  1-O ,  2-C ) :   1.7387 B(  2-C ,  3-O ) :   1.1000
B(  2-C ,  4-C ) :   0.9453 B(  3-O , 27-H ) :   0.6964 B(  4-C ,  5-H ) :   0.9070
B(  4-C ,  6-H ) :   0.8904 B(  4-C ,  7-H ) :   0.8990 B(  8-N ,  9-C ) :   0.9164
B(  8-N , 13-C ) :   0.9233 B(  8-N , 28-C ) :   0.8828 B(  9-C , 10-H ) :   0.8725
B(  9-C , 11-H ) :   0.9051 B(  9-C , 12-H ) :   0.9051 B( 13-C , 14-H ) :   0.9063
B( 13-C , 15-H ) :   0.9037 B( 13-C , 16-H ) :   0.8972 B( 17-C , 18-C ) :   1.4082
B( 17-C , 22-C ) :   1.2981 B( 17-C , 28-C ) :   0.9751 B( 18-C , 19-C ) :   1.4209
B( 18-C , 25-H ) :   0.9220 B( 19-C , 20-C ) :   1.4432 B( 19-C , 26-H ) :   0.9181
B( 20-C , 21-C ) :   1.4129 B( 20-C , 23-H ) :   0.9187 B( 21-C , 22-C ) :   1.3876
B( 21-C , 24-H ) :   0.9234 B( 28-C , 29-H ) :   0.8977 B( 28-C , 30-H ) :   0.9059
B( 31-O , 32-C ) :   1.3771 B( 31-O , 33-O ) :   0.1097 B( 32-C , 33-O ) :   1.8408
B( 32-C , 34-C ) :   0.9100 B( 34-C , 35-H ) :   0.9237 B( 34-C , 36-H ) :   0.9244
B( 34-C , 37-H ) :   0.9222

Dispersion correction           -0.026211124
FINAL SINGLE POINT ENERGY      -988.389311892704
Dispersion correction            ... done

DIPOLE MOMENT
-------------
                                X             Y             Z
Electronic contribution:      9.52370      15.73782       3.05717
Nuclear contribution   :    -11.06780     -13.15630      -1.97636
                        -----------------------------------------
Total Dipole Moment    :     -1.54410       2.58152       1.08081
                        -----------------------------------------
Magnitude (a.u.)       :      3.19635
Magnitude (Debye)      :      8.12447

Rotational constants in cm-1:     0.014199     0.008527     0.006402
Rotational constants in MHz :   425.684550   255.620062   191.915869

                             ****ORCA TERMINATED NORMALLY****
TOTAL RUN TIME: 0 days 0 hours 9 minutes 19 seconds 189 msec
