                         Program Version 5.0.3 -  RELEASE  -
|  1> ! EnGrad PBEh-3c
|  2> %output
|  3> xyzfile=True
|  4> end
|  5> %scf
|  6> maxiter 250
|  7> end
|  8> %output
|  9> Print[P_Hirshfeld] = 1
| 10> end
| 11> % maxcore
| 12> 4000
| 13> *xyz 0 1
| 14> Pd   0.16477699   0.31985349   0.12732982
| 15> O    1.72943489   1.50877668   0.58300213
| 16> C    1.51763775   2.67274628   0.47689933
| 17> O    0.10017651   3.21908417   0.22031748
| 18> C    2.77183678   3.57032604   0.62811217
| 19> H    2.41886369   4.48652075   1.06899718
| 20> H    3.27649664   3.86259197  -0.30454924
| 21> H    3.59879989   3.18152458   1.29163592
| 22> N   -1.36881896  -0.84480742  -0.94742611
| 23> C   -1.03251793  -2.15237806  -1.65221434
| 24> H   -0.26392030  -1.95128186  -2.44206934
| 25> H   -2.03598991  -2.52215170  -2.00164046
| 26> H   -0.65727126  -2.87420035  -0.89844734
| 27> C   -1.95130442   0.06105619  -1.98780309
| 28> H   -2.06842886   1.08844084  -1.58950194
| 29> H   -2.95580579  -0.32205508  -2.26805567
| 30> H   -1.24831749   0.12965893  -2.84203249
| 31> C   -1.73571236  -1.06137534   1.50285871
| 32> C   -2.03320062  -2.10771713   2.39382096
| 33> C   -1.58508062  -2.05963361   3.71194106
| 34> C   -1.11050098  -0.74983297   4.11823156
| 35> C   -0.80364956   0.29761320   3.18612417
| 36> C   -0.74118071  -0.07876901   1.81000972
| 37> H   -0.76782758  -0.69082545   5.15526422
| 38> H   -0.50722492   1.32097639   3.61984136
| 39> H   -2.52320793  -3.07486907   2.04116538
| 40> H   -1.85188789  -2.87641961   4.43369154
| 41> H   -0.36038321   3.16130263   0.65136445
| 42> C   -2.34921156  -1.10469569   0.11722342
| 43> H   -3.04552788  -0.25914250   0.11293944
| 44> H   -2.88535117  -2.04917743  -0.14251866
| 45> O    1.46114349   0.41334759  -1.88519880
| 46> C    2.24496714  -0.53523572  -2.30360161
| 47> O    2.15073211  -1.72559410  -2.09594238
| 48> C    3.37991645  -0.12709583  -3.28853655
| 49> H    3.74611313  -1.02782569  -3.81052238
| 50> H    4.23803211   0.29212900  -2.75881605
| 51> H    3.08526662   0.62852017  -4.03727107
| 52> *
| 53>
| 54>                          ****END OF INPUT****

CARTESIAN COORDINATES (ANGSTROEM)
---------------------------------
  Pd     0.164777    0.319853    0.127330
  O      1.729435    1.508777    0.583002
  C      1.517638    2.672746    0.476899
  O      0.100177    3.219084    0.220317
  C      2.771837    3.570326    0.628112
  H      2.418864    4.486521    1.068997
  H      3.276497    3.862592   -0.304549
  H      3.598800    3.181525    1.291636
  N     -1.368819   -0.844807   -0.947426
  C     -1.032518   -2.152378   -1.652214
  H     -0.263920   -1.951282   -2.442069
  H     -2.035990   -2.522152   -2.001640
  H     -0.657271   -2.874200   -0.898447
  C     -1.951304    0.061056   -1.987803
  H     -2.068429    1.088441   -1.589502
  H     -2.955806   -0.322055   -2.268056
  H     -1.248317    0.129659   -2.842032
  C     -1.735712   -1.061375    1.502859
  C     -2.033201   -2.107717    2.393821
  C     -1.585081   -2.059634    3.711941
  C     -1.110501   -0.749833    4.118232
  C     -0.803650    0.297613    3.186124
  C     -0.741181   -0.078769    1.810010
  H     -0.767828   -0.690825    5.155264
  H     -0.507225    1.320976    3.619841
  H     -2.523208   -3.074869    2.041165
  H     -1.851888   -2.876420    4.433692
  H     -0.360383    3.161303    0.651364
  C     -2.349212   -1.104696    0.117223
  H     -3.045528   -0.259142    0.112939
  H     -2.885351   -2.049177   -0.142519
  O      1.461143    0.413348   -1.885199
  C      2.244967   -0.535236   -2.303602
  O      2.150732   -1.725594   -2.095942
  C      3.379916   -0.127096   -3.288537
  H      3.746113   -1.027826   -3.810522
  H      4.238032    0.292129   -2.758816
  H      3.085267    0.628520   -4.037271

 Total Charge           Charge          ....    0
 Multiplicity           Mult            ....    1
 Number of Electrons    NEL             ....  154
 Basis Dimension        Dim             ....  339

ORBITAL ENERGIES
----------------

  NO   OCC          E(Eh)            E(eV)
   0   2.0000     -19.599678      -533.3343
   1   2.0000     -19.530482      -531.4514
   2   2.0000     -19.419916      -528.4428
   3   2.0000     -19.396014      -527.7924
   4   2.0000     -14.707187      -400.2029
   5   2.0000     -10.670316      -290.3541
   6   2.0000     -10.500371      -285.7296
   7   2.0000     -10.498799      -285.6868
   8   2.0000     -10.489842      -285.4431
   9   2.0000     -10.481074      -285.2045
  10   2.0000     -10.474696      -285.0310
  11   2.0000     -10.473483      -284.9980
  12   2.0000     -10.469083      -284.8782
  13   2.0000     -10.462534      -284.7000
  14   2.0000     -10.456061      -284.5239
  15   2.0000     -10.452238      -284.4198
  16   2.0000     -10.450515      -284.3730
  17   2.0000     -10.392620      -282.7976
  18   2.0000      -3.657832       -99.5347
  19   2.0000      -2.305549       -62.7372
  20   2.0000      -2.300800       -62.6079
  21   2.0000      -2.270664       -61.7879
  22   2.0000      -1.294319       -35.2202
  23   2.0000      -1.251049       -34.0428
  24   2.0000      -1.102654       -30.0047
  25   2.0000      -1.054704       -28.6999
  26   2.0000      -1.007311       -27.4103
  27   2.0000      -0.946122       -25.7453
  28   2.0000      -0.880419       -23.9574
  29   2.0000      -0.854724       -23.2582
  30   2.0000      -0.826768       -22.4975
  31   2.0000      -0.796327       -21.6691
  32   2.0000      -0.775835       -21.1115
  33   2.0000      -0.765056       -20.8182
  34   2.0000      -0.756524       -20.5861
  35   2.0000      -0.697965       -18.9926
  36   2.0000      -0.671349       -18.2683
  37   2.0000      -0.665339       -18.1048
  38   2.0000      -0.645672       -17.5696
  39   2.0000      -0.595272       -16.1982
  40   2.0000      -0.579580       -15.7712
  41   2.0000      -0.575301       -15.6547
  42   2.0000      -0.551453       -15.0058
  43   2.0000      -0.549518       -14.9531
  44   2.0000      -0.539058       -14.6685
  45   2.0000      -0.530365       -14.4320
  46   2.0000      -0.523127       -14.2350
  47   2.0000      -0.507661       -13.8142
  48   2.0000      -0.496756       -13.5174
  49   2.0000      -0.493867       -13.4388
  50   2.0000      -0.484848       -13.1934
  51   2.0000      -0.474754       -12.9187
  52   2.0000      -0.466446       -12.6926
  53   2.0000      -0.459823       -12.5124
  54   2.0000      -0.453892       -12.3510
  55   2.0000      -0.453014       -12.3271
  56   2.0000      -0.445468       -12.1218
  57   2.0000      -0.442522       -12.0416
  58   2.0000      -0.437653       -11.9091
  59   2.0000      -0.434565       -11.8251
  60   2.0000      -0.431026       -11.7288
  61   2.0000      -0.425841       -11.5877
  62   2.0000      -0.411184       -11.1889
  63   2.0000      -0.400474       -10.8975
  64   2.0000      -0.394019       -10.7218
  65   2.0000      -0.378832       -10.3085
  66   2.0000      -0.377238       -10.2652
  67   2.0000      -0.365639        -9.9495
  68   2.0000      -0.353920        -9.6307
  69   2.0000      -0.343898        -9.3579
  70   2.0000      -0.337543        -9.1850
  71   2.0000      -0.298206        -8.1146
  72   2.0000      -0.275000        -7.4831
  73   2.0000      -0.271530        -7.3887
  74   2.0000      -0.269392        -7.3305
  75   2.0000      -0.252980        -6.8839
  76   2.0000      -0.246728        -6.7138
  77   0.0000      -0.052577        -1.4307
  78   0.0000      -0.044681        -1.2158
  79   0.0000      -0.006996        -0.1904
  80   0.0000       0.014317         0.3896
  81   0.0000       0.039860         1.0846

MULLIKEN ATOMIC CHARGES
-----------------------
   0 Pd:    0.378382
   1 O :   -0.294431
   2 C :    0.630007
   3 O :   -0.516185
   4 C :   -0.740861
   5 H :    0.259355
   6 H :    0.297361
   7 H :    0.286329
   8 N :   -0.459175
   9 C :   -0.499992
  10 H :    0.299713
  11 H :    0.194996
  12 H :    0.265949
  13 C :   -0.523159
  14 H :    0.259507
  15 H :    0.221695
  16 H :    0.281664
  17 C :    0.083700
  18 C :   -0.253418
  19 C :   -0.217928
  20 C :   -0.237752
  21 C :   -0.293708
  22 C :   -0.117259
  23 H :    0.220057
  24 H :    0.204007
  25 H :    0.208357
  26 H :    0.217244
  27 H :    0.297249
  28 C :   -0.318765
  29 H :    0.259664
  30 H :    0.227416
  31 O :   -0.571345
  32 C :    0.524336
  33 O :   -0.477340
  34 C :   -0.740551
  35 H :    0.225080
  36 H :    0.210887
  37 H :    0.208912
Sum of atomic charges:   -0.0000000

LOEWDIN ATOMIC CHARGES
----------------------
   0 Pd:   -0.372483
   1 O :    0.050544
   2 C :    0.338241
   3 O :   -0.300415
   4 C :   -0.365607
   5 H :    0.154663
   6 H :    0.179473
   7 H :    0.175679
   8 N :   -0.066587
   9 C :   -0.222222
  10 H :    0.174249
  11 H :    0.113194
  12 H :    0.151606
  13 C :   -0.233538
  14 H :    0.147938
  15 H :    0.122368
  16 H :    0.161542
  17 C :   -0.044315
  18 C :   -0.138629
  19 C :   -0.154549
  20 C :   -0.140861
  21 C :   -0.133700
  22 C :    0.007685
  23 H :    0.137143
  24 H :    0.139718
  25 H :    0.135046
  26 H :    0.140523
  27 H :    0.205691
  28 C :   -0.108113
  29 H :    0.150791
  30 H :    0.132026
  31 O :   -0.319438
  32 C :    0.092321
  33 O :   -0.296331
  34 C :   -0.404584
  35 H :    0.134072
  36 H :    0.130562
  37 H :    0.126296

  Mayer bond orders larger than 0.100000
B(  0-Pd,  1-O ) :   0.3521 B(  0-Pd,  8-N ) :   0.4308 B(  0-Pd, 22-C ) :   0.9291
B(  0-Pd, 31-O ) :   0.4127 B(  1-O ,  2-C ) :   1.8512 B(  2-C ,  3-O ) :   0.9515
B(  2-C ,  4-C ) :   0.9486 B(  3-O , 27-H ) :   0.8887 B(  4-C ,  5-H ) :   0.8966
B(  4-C ,  6-H ) :   0.8820 B(  4-C ,  7-H ) :   0.8962 B(  8-N ,  9-C ) :   0.9014
B(  8-N , 13-C ) :   0.9166 B(  8-N , 28-C ) :   0.8747 B(  9-C , 10-H ) :   0.8806
B(  9-C , 11-H ) :   0.9023 B(  9-C , 12-H ) :   0.9044 B( 13-C , 14-H ) :   0.9013
B( 13-C , 15-H ) :   0.9029 B( 13-C , 16-H ) :   0.8937 B( 17-C , 18-C ) :   1.3965
B( 17-C , 22-C ) :   1.2844 B( 17-C , 28-C ) :   0.9693 B( 18-C , 19-C ) :   1.4151
B( 18-C , 25-H ) :   0.9212 B( 19-C , 20-C ) :   1.4163 B( 19-C , 26-H ) :   0.9171
B( 20-C , 21-C ) :   1.4044 B( 20-C , 23-H ) :   0.9174 B( 21-C , 22-C ) :   1.3566
B( 21-C , 24-H ) :   0.9231 B( 28-C , 29-H ) :   0.8952 B( 28-C , 30-H ) :   0.9054
B( 31-O , 32-C ) :   1.4017 B( 31-O , 33-O ) :   0.1100 B( 32-C , 33-O ) :   1.8622
B( 32-C , 34-C ) :   0.9026 B( 34-C , 35-H ) :   0.9255 B( 34-C , 36-H ) :   0.9252
B( 34-C , 37-H ) :   0.9244

Dispersion correction           -0.025884363
FINAL SINGLE POINT ENERGY      -988.126060454275
Dispersion correction            ... done

DIPOLE MOMENT
-------------
                                X             Y             Z
Electronic contribution:      4.63021      17.79375       7.47884
Nuclear contribution   :     -5.76998     -15.76039      -6.28259
                        -----------------------------------------
Total Dipole Moment    :     -1.13977       2.03336       1.19625
                        -----------------------------------------
Magnitude (a.u.)       :      2.62005
Magnitude (Debye)      :      6.65963

Rotational constants in cm-1:     0.013429     0.008714     0.006565
Rotational constants in MHz :   402.585154   261.234148   196.816468

                             ****ORCA TERMINATED NORMALLY****
TOTAL RUN TIME: 0 days 0 hours 9 minutes 16 seconds 17 msec
