                         Program Version 5.0.3 -  RELEASE  -
|  1> ! EnGrad PBEh-3c
|  2> %output
|  3> xyzfile=True
|  4> end
|  5> %scf
|  6> maxiter 250
|  7> end
|  8> %output
|  9> Print[P_Hirshfeld] = 1
| 10> end
| 11> % maxcore
| 12> 4000
| 13> *xyz 0 1
| 14> Pd   0.22621870   0.29108419   0.07831831
| 15> O    1.79143760   1.45150831   0.59568281
| 16> C    1.60183542   2.62930114   0.45716636
| 17> O    0.29586876   3.14944209   0.10664494
| 18> C    2.83838299   3.54661823   0.65133189
| 19> H    2.47826593   4.46888178   1.09077013
| 20> H    3.32357340   3.83206575  -0.29146493
| 21> H    3.63931389   3.14021109   1.30523701
| 22> N   -1.34498435  -0.89111737  -0.94553579
| 23> C   -0.98148461  -2.21924341  -1.53579305
| 24> H   -0.20522843  -2.07597725  -2.30119933
| 25> H   -1.94211300  -2.62957150  -1.90924911
| 26> H   -0.62289389  -2.87109934  -0.72982480
| 27> C   -1.90233765  -0.05528690  -2.03980381
| 28> H   -2.02543023   0.98328996  -1.71153274
| 29> H   -2.88692993  -0.46555738  -2.31626756
| 30> H   -1.19849776  -0.05440925  -2.88171116
| 31> C   -1.78046636  -1.05687953   1.50747481
| 32> C   -2.16367924  -2.04803525   2.42218463
| 33> C   -1.73965213  -1.98386969   3.74478003
| 34> C   -1.10098376  -0.79689212   4.13520512
| 35> C   -0.72394973   0.19454500   3.19235186
| 36> C   -0.75314308  -0.11514589   1.80466796
| 37> H   -0.77415556  -0.72338735   5.17547129
| 38> H   -0.29947070   1.12029423   3.60891277
| 39> H   -2.76405493  -2.91687065   2.10747952
| 40> H   -2.08561157  -2.71826493   4.48091276
| 41> H   -0.50792379   3.41000668   0.68974237
| 42> C   -2.35766994  -1.07915656   0.12065379
| 43> H   -3.01739053  -0.21147681   0.08794227
| 44> H   -2.93824773  -1.98472803  -0.13233051
| 45> O    1.43297149   0.49495645  -1.90930458
| 46> C    2.22093133  -0.44383651  -2.33837154
| 47> O    2.15842038  -1.64198520  -2.10915438
| 48> C    3.30214720  -0.00432492  -3.37050375
| 49> H    3.66881274  -0.88081516  -3.92085887
| 50> H    4.16020820   0.40994621  -2.83709882
| 51> H    2.97940408   0.76122300  -4.08714878
| 52> *
| 53>
| 54>                          ****END OF INPUT****

CARTESIAN COORDINATES (ANGSTROEM)
---------------------------------
  Pd     0.226219    0.291084    0.078318
  O      1.791438    1.451508    0.595683
  C      1.601835    2.629301    0.457166
  O      0.295869    3.149442    0.106645
  C      2.838383    3.546618    0.651332
  H      2.478266    4.468882    1.090770
  H      3.323573    3.832066   -0.291465
  H      3.639314    3.140211    1.305237
  N     -1.344984   -0.891117   -0.945536
  C     -0.981485   -2.219243   -1.535793
  H     -0.205228   -2.075977   -2.301199
  H     -1.942113   -2.629571   -1.909249
  H     -0.622894   -2.871099   -0.729825
  C     -1.902338   -0.055287   -2.039804
  H     -2.025430    0.983290   -1.711533
  H     -2.886930   -0.465557   -2.316268
  H     -1.198498   -0.054409   -2.881711
  C     -1.780466   -1.056880    1.507475
  C     -2.163679   -2.048035    2.422185
  C     -1.739652   -1.983870    3.744780
  C     -1.100984   -0.796892    4.135205
  C     -0.723950    0.194545    3.192352
  C     -0.753143   -0.115146    1.804668
  H     -0.774156   -0.723387    5.175471
  H     -0.299471    1.120294    3.608913
  H     -2.764055   -2.916871    2.107480
  H     -2.085612   -2.718265    4.480913
  H     -0.507924    3.410007    0.689742
  C     -2.357670   -1.079157    0.120654
  H     -3.017391   -0.211477    0.087942
  H     -2.938248   -1.984728   -0.132331
  O      1.432971    0.494956   -1.909305
  C      2.220931   -0.443837   -2.338372
  O      2.158420   -1.641985   -2.109154
  C      3.302147   -0.004325   -3.370504
  H      3.668813   -0.880815   -3.920859
  H      4.160208    0.409946   -2.837099
  H      2.979404    0.761223   -4.087149

 Total Charge           Charge          ....    0
 Multiplicity           Mult            ....    1
 Number of Electrons    NEL             ....  154
 Basis Dimension        Dim             ....  339

ORBITAL ENERGIES
----------------

  NO   OCC          E(Eh)            E(eV)
   0   2.0000     -19.580971      -532.8253
   1   2.0000     -19.563015      -532.3367
   2   2.0000     -19.425431      -528.5928
   3   2.0000     -19.398346      -527.8558
   4   2.0000     -14.703210      -400.0947
   5   2.0000     -10.655924      -289.9624
   6   2.0000     -10.502003      -285.7740
   7   2.0000     -10.490623      -285.4644
   8   2.0000     -10.483390      -285.2676
   9   2.0000     -10.474226      -285.0182
  10   2.0000     -10.463996      -284.7398
  11   2.0000     -10.460150      -284.6352
  12   2.0000     -10.454065      -284.4696
  13   2.0000     -10.451606      -284.4027
  14   2.0000     -10.444296      -284.2037
  15   2.0000     -10.443453      -284.1808
  16   2.0000     -10.438862      -284.0559
  17   2.0000     -10.393109      -282.8109
  18   2.0000      -3.648041       -99.2682
  19   2.0000      -2.295009       -62.4504
  20   2.0000      -2.290908       -62.3388
  21   2.0000      -2.260044       -61.4989
  22   2.0000      -1.260164       -34.2908
  23   2.0000      -1.148337       -31.2478
  24   2.0000      -1.102148       -29.9910
  25   2.0000      -1.054163       -28.6852
  26   2.0000      -1.009947       -27.4820
  27   2.0000      -0.944664       -25.7056
  28   2.0000      -0.867192       -23.5975
  29   2.0000      -0.857152       -23.3243
  30   2.0000      -0.822140       -22.3716
  31   2.0000      -0.798481       -21.7278
  32   2.0000      -0.775608       -21.1054
  33   2.0000      -0.759246       -20.6601
  34   2.0000      -0.724535       -19.7156
  35   2.0000      -0.695651       -18.9296
  36   2.0000      -0.667821       -18.1723
  37   2.0000      -0.650260       -17.6945
  38   2.0000      -0.641113       -17.4456
  39   2.0000      -0.583716       -15.8837
  40   2.0000      -0.576212       -15.6795
  41   2.0000      -0.569241       -15.4898
  42   2.0000      -0.550511       -14.9802
  43   2.0000      -0.550004       -14.9664
  44   2.0000      -0.541086       -14.7237
  45   2.0000      -0.529218       -14.4008
  46   2.0000      -0.508249       -13.8302
  47   2.0000      -0.505871       -13.7655
  48   2.0000      -0.495075       -13.4717
  49   2.0000      -0.486433       -13.2365
  50   2.0000      -0.475064       -12.9272
  51   2.0000      -0.468593       -12.7511
  52   2.0000      -0.461748       -12.5648
  53   2.0000      -0.455920       -12.4062
  54   2.0000      -0.453429       -12.3384
  55   2.0000      -0.452086       -12.3019
  56   2.0000      -0.447396       -12.1743
  57   2.0000      -0.441199       -12.0056
  58   2.0000      -0.429664       -11.6917
  59   2.0000      -0.426454       -11.6044
  60   2.0000      -0.424656       -11.5555
  61   2.0000      -0.419383       -11.4120
  62   2.0000      -0.406494       -11.0613
  63   2.0000      -0.401439       -10.9237
  64   2.0000      -0.390139       -10.6162
  65   2.0000      -0.378722       -10.3055
  66   2.0000      -0.366907        -9.9840
  67   2.0000      -0.356872        -9.7110
  68   2.0000      -0.343830        -9.3561
  69   2.0000      -0.339367        -9.2346
  70   2.0000      -0.329037        -8.9536
  71   2.0000      -0.289122        -7.8674
  72   2.0000      -0.275488        -7.4964
  73   2.0000      -0.272439        -7.4134
  74   2.0000      -0.270850        -7.3702
  75   2.0000      -0.254038        -6.9127
  76   2.0000      -0.248063        -6.7501
  77   0.0000      -0.043866        -1.1937
  78   0.0000      -0.035688        -0.9711
  79   0.0000       0.004331         0.1178
  80   0.0000       0.022086         0.6010
  81   0.0000       0.029142         0.7930

MULLIKEN ATOMIC CHARGES
-----------------------
   0 Pd:    0.364772
   1 O :   -0.328452
   2 C :    0.664137
   3 O :   -0.664349
   4 C :   -0.737785
   5 H :    0.248330
   6 H :    0.289898
   7 H :    0.282032
   8 N :   -0.458376
   9 C :   -0.509090
  10 H :    0.302708
  11 H :    0.196125
  12 H :    0.265906
  13 C :   -0.516603
  14 H :    0.257393
  15 H :    0.218837
  16 H :    0.279922
  17 C :    0.082208
  18 C :   -0.261059
  19 C :   -0.216537
  20 C :   -0.225227
  21 C :   -0.306110
  22 C :   -0.114042
  23 H :    0.217029
  24 H :    0.200123
  25 H :    0.208957
  26 H :    0.213920
  27 H :    0.487328
  28 C :   -0.325319
  29 H :    0.257218
  30 H :    0.226043
  31 O :   -0.560872
  32 C :    0.530454
  33 O :   -0.482271
  34 C :   -0.739785
  35 H :    0.226877
  36 H :    0.212618
  37 H :    0.213043
Sum of atomic charges:    0.0000000

LOEWDIN ATOMIC CHARGES
----------------------
   0 Pd:   -0.385598
   1 O :    0.023426
   2 C :    0.292996
   3 O :   -0.356192
   4 C :   -0.367898
   5 H :    0.150455
   6 H :    0.175729
   7 H :    0.169431
   8 N :   -0.061476
   9 C :   -0.227439
  10 H :    0.171491
  11 H :    0.112196
  12 H :    0.151389
  13 C :   -0.232241
  14 H :    0.146392
  15 H :    0.120472
  16 H :    0.159648
  17 C :   -0.049958
  18 C :   -0.139530
  19 C :   -0.151545
  20 C :   -0.140793
  21 C :   -0.135453
  22 C :   -0.007691
  23 H :    0.135082
  24 H :    0.133396
  25 H :    0.133931
  26 H :    0.136297
  27 H :    0.378740
  28 C :   -0.108593
  29 H :    0.149008
  30 H :    0.129302
  31 O :   -0.299177
  32 C :    0.103514
  33 O :   -0.301440
  34 C :   -0.402863
  35 H :    0.134382
  36 H :    0.132975
  37 H :    0.127635

  Mayer bond orders larger than 0.100000
B(  0-Pd,  1-O ) :   0.3735 B(  0-Pd,  8-N ) :   0.4335 B(  0-Pd, 22-C ) :   0.8856
B(  0-Pd, 31-O ) :   0.4363 B(  1-O ,  2-C ) :   1.7939 B(  2-C ,  3-O ) :   1.0040
B(  2-C ,  4-C ) :   0.9483 B(  3-O , 27-H ) :   0.6991 B(  4-C ,  5-H ) :   0.9030
B(  4-C ,  6-H ) :   0.8868 B(  4-C ,  7-H ) :   0.8977 B(  8-N ,  9-C ) :   0.9114
B(  8-N , 13-C ) :   0.9211 B(  8-N , 28-C ) :   0.8795 B(  9-C , 10-H ) :   0.8758
B(  9-C , 11-H ) :   0.9040 B(  9-C , 12-H ) :   0.9050 B( 13-C , 14-H ) :   0.9046
B( 13-C , 15-H ) :   0.9035 B( 13-C , 16-H ) :   0.8956 B( 17-C , 18-C ) :   1.4097
B( 17-C , 22-C ) :   1.2891 B( 17-C , 28-C ) :   0.9728 B( 18-C , 19-C ) :   1.4145
B( 18-C , 25-H ) :   0.9216 B( 19-C , 20-C ) :   1.4396 B( 19-C , 26-H ) :   0.9182
B( 20-C , 21-C ) :   1.4059 B( 20-C , 23-H ) :   0.9184 B( 21-C , 22-C ) :   1.3802
B( 21-C , 24-H ) :   0.9244 B( 28-C , 29-H ) :   0.8969 B( 28-C , 30-H ) :   0.9057
B( 31-O , 32-C ) :   1.3876 B( 31-O , 33-O ) :   0.1098 B( 32-C , 33-O ) :   1.8499
B( 32-C , 34-C ) :   0.9073 B( 34-C , 35-H ) :   0.9245 B( 34-C , 36-H ) :   0.9248
B( 34-C , 37-H ) :   0.9231

Dispersion correction           -0.025888351
FINAL SINGLE POINT ENERGY      -988.433153942839
Dispersion correction            ... done

DIPOLE MOMENT
-------------
                                X             Y             Z
Electronic contribution:      7.44365      16.66301       4.94096
Nuclear contribution   :     -8.81647     -14.26292      -3.80631
                        -----------------------------------------
Total Dipole Moment    :     -1.37282       2.40009       1.13465
                        -----------------------------------------
Magnitude (a.u.)       :      2.98873
Magnitude (Debye)      :      7.59674

Rotational constants in cm-1:     0.013885     0.008615     0.006475
Rotational constants in MHz :   416.268302   258.272360   194.120411

                             ****ORCA TERMINATED NORMALLY****
TOTAL RUN TIME: 0 days 0 hours 8 minutes 32 seconds 80 msec
