                         Program Version 5.0.3 -  RELEASE  -
|  1> ! EnGrad PBEh-3c
|  2> %output
|  3> xyzfile=True
|  4> end
|  5> %scf
|  6> maxiter 250
|  7> end
|  8> %output
|  9> Print[P_Hirshfeld] = 1
| 10> end
| 11> % maxcore
| 12> 4000
| 13> *xyz 0 1
| 14> Pd   0.17531209   0.28097003   0.07278551
| 15> O    1.72020999   1.51888266   0.59351576
| 16> C    1.50782015   2.67528797   0.48677174
| 17> O    0.23060362   3.17928915   0.18791384
| 18> C    2.76589303   3.57722820   0.63160058
| 19> H    2.43405517   4.49075456   1.07667575
| 20> H    3.27676387   3.84892949  -0.30193602
| 21> H    3.58492424   3.16592445   1.28456500
| 22> N   -1.35094713  -0.84201823  -0.94023872
| 23> C   -1.02649821  -2.15155054  -1.61038135
| 24> H   -0.26165378  -1.98597277  -2.40159197
| 25> H   -1.99919334  -2.54670874  -1.98590656
| 26> H   -0.64781667  -2.86822934  -0.86973326
| 27> C   -1.93499466   0.03320040  -1.99274578
| 28> H   -2.06065852   1.05819248  -1.61661112
| 29> H   -2.93345558  -0.34991543  -2.28427556
| 30> H   -1.24550875   0.08788581  -2.84462395
| 31> C   -1.72662758  -1.09553309   1.49735351
| 32> C   -2.06558154  -2.09996069   2.40039549
| 33> C   -1.62706124  -2.01346011   3.72090414
| 34> C   -1.10676428  -0.77203643   4.11673015
| 35> C   -0.76351715   0.25770834   3.18548716
| 36> C   -0.78421361  -0.07591529   1.81887664
| 37> H   -0.77904650  -0.68713576   5.15447241
| 38> H   -0.45411003   1.25898022   3.60517265
| 39> H   -2.57138548  -3.02136933   2.05554259
| 40> H   -1.88951097  -2.83280205   4.43462972
| 41> H   -0.37432292   3.21250949   0.67383192
| 42> C   -2.34700009  -1.09645671   0.11456100
| 43> H   -3.04534036  -0.25152502   0.10233902
| 44> H   -2.89685119  -2.02750265  -0.13047865
| 45> O    1.45876579   0.41567156  -1.87327219
| 46> C    2.22799770  -0.49182643  -2.33469737
| 47> O    2.14437431  -1.71681308  -2.08750714
| 48> C    3.36104267  -0.10010044  -3.29950024
| 49> H    3.72498214  -0.98936068  -3.83036712
| 50> H    4.22034852   0.31975288  -2.77353932
| 51> H    3.05954711   0.65480410  -4.04173192
| 52> *
| 53>
| 54>                          ****END OF INPUT****

CARTESIAN COORDINATES (ANGSTROEM)
---------------------------------
  Pd     0.175312    0.280970    0.072786
  O      1.720210    1.518883    0.593516
  C      1.507820    2.675288    0.486772
  O      0.230604    3.179289    0.187914
  C      2.765893    3.577228    0.631601
  H      2.434055    4.490755    1.076676
  H      3.276764    3.848929   -0.301936
  H      3.584924    3.165924    1.284565
  N     -1.350947   -0.842018   -0.940239
  C     -1.026498   -2.151551   -1.610381
  H     -0.261654   -1.985973   -2.401592
  H     -1.999193   -2.546709   -1.985907
  H     -0.647817   -2.868229   -0.869733
  C     -1.934995    0.033200   -1.992746
  H     -2.060659    1.058192   -1.616611
  H     -2.933456   -0.349915   -2.284276
  H     -1.245509    0.087886   -2.844624
  C     -1.726628   -1.095533    1.497354
  C     -2.065582   -2.099961    2.400395
  C     -1.627061   -2.013460    3.720904
  C     -1.106764   -0.772036    4.116730
  C     -0.763517    0.257708    3.185487
  C     -0.784214   -0.075915    1.818877
  H     -0.779046   -0.687136    5.154472
  H     -0.454110    1.258980    3.605173
  H     -2.571385   -3.021369    2.055543
  H     -1.889511   -2.832802    4.434630
  H     -0.374323    3.212509    0.673832
  C     -2.347000   -1.096457    0.114561
  H     -3.045340   -0.251525    0.102339
  H     -2.896851   -2.027503   -0.130479
  O      1.458766    0.415672   -1.873272
  C      2.227998   -0.491826   -2.334697
  O      2.144374   -1.716813   -2.087507
  C      3.361043   -0.100100   -3.299500
  H      3.724982   -0.989361   -3.830367
  H      4.220349    0.319753   -2.773539
  H      3.059547    0.654804   -4.041732

 Total Charge           Charge          ....    0
 Multiplicity           Mult            ....    1
 Number of Electrons    NEL             ....  154
 Basis Dimension        Dim             ....  339

ORBITAL ENERGIES
----------------

  NO   OCC          E(Eh)            E(eV)
   0   2.0000     -19.578544      -532.7593
   1   2.0000     -19.551760      -532.0304
   2   2.0000     -19.426371      -528.6184
   3   2.0000     -19.387298      -527.5552
   4   2.0000     -14.710415      -400.2907
   5   2.0000     -10.653738      -289.9030
   6   2.0000     -10.499145      -285.6963
   7   2.0000     -10.488606      -285.4095
   8   2.0000     -10.487856      -285.3891
   9   2.0000     -10.479911      -285.1729
  10   2.0000     -10.468868      -284.8724
  11   2.0000     -10.463451      -284.7250
  12   2.0000     -10.460082      -284.6333
  13   2.0000     -10.456976      -284.5488
  14   2.0000     -10.449130      -284.3353
  15   2.0000     -10.445805      -284.2448
  16   2.0000     -10.444894      -284.2200
  17   2.0000     -10.394442      -282.8471
  18   2.0000      -3.652220       -99.3820
  19   2.0000      -2.298771       -62.5527
  20   2.0000      -2.295425       -62.4617
  21   2.0000      -2.264620       -61.6234
  22   2.0000      -1.286182       -34.9988
  23   2.0000      -1.217358       -33.1260
  24   2.0000      -1.096903       -29.8483
  25   2.0000      -1.061102       -28.8741
  26   2.0000      -1.000491       -27.2247
  27   2.0000      -0.948704       -25.8155
  28   2.0000      -0.872222       -23.7344
  29   2.0000      -0.858219       -23.3533
  30   2.0000      -0.826704       -22.4958
  31   2.0000      -0.800468       -21.7818
  32   2.0000      -0.782745       -21.2996
  33   2.0000      -0.778423       -21.1820
  34   2.0000      -0.762744       -20.7553
  35   2.0000      -0.700749       -19.0683
  36   2.0000      -0.669863       -18.2279
  37   2.0000      -0.658771       -17.9261
  38   2.0000      -0.646092       -17.5811
  39   2.0000      -0.593107       -16.1393
  40   2.0000      -0.582051       -15.8384
  41   2.0000      -0.577563       -15.7163
  42   2.0000      -0.554366       -15.0851
  43   2.0000      -0.552623       -15.0376
  44   2.0000      -0.544244       -14.8096
  45   2.0000      -0.534198       -14.5363
  46   2.0000      -0.510660       -13.8958
  47   2.0000      -0.507492       -13.8096
  48   2.0000      -0.497285       -13.5318
  49   2.0000      -0.493674       -13.4336
  50   2.0000      -0.479504       -13.0480
  51   2.0000      -0.473937       -12.8965
  52   2.0000      -0.464755       -12.6466
  53   2.0000      -0.459501       -12.5037
  54   2.0000      -0.453996       -12.3539
  55   2.0000      -0.453322       -12.3355
  56   2.0000      -0.444391       -12.0925
  57   2.0000      -0.440629       -11.9901
  58   2.0000      -0.438681       -11.9371
  59   2.0000      -0.432660       -11.7733
  60   2.0000      -0.428515       -11.6605
  61   2.0000      -0.426543       -11.6068
  62   2.0000      -0.409082       -11.1317
  63   2.0000      -0.399917       -10.8823
  64   2.0000      -0.395800       -10.7703
  65   2.0000      -0.378712       -10.3053
  66   2.0000      -0.367855       -10.0098
  67   2.0000      -0.366049        -9.9607
  68   2.0000      -0.347472        -9.4552
  69   2.0000      -0.344584        -9.3766
  70   2.0000      -0.332343        -9.0435
  71   2.0000      -0.293809        -7.9950
  72   2.0000      -0.277262        -7.5447
  73   2.0000      -0.274229        -7.4622
  74   2.0000      -0.264964        -7.2100
  75   2.0000      -0.254454        -6.9240
  76   2.0000      -0.241086        -6.5603
  77   0.0000      -0.046457        -1.2642
  78   0.0000      -0.026481        -0.7206
  79   0.0000       0.003498         0.0952
  80   0.0000       0.017680         0.4811
  81   0.0000       0.045738         1.2446

MULLIKEN ATOMIC CHARGES
-----------------------
   0 Pd:    0.371391
   1 O :   -0.309770
   2 C :    0.639334
   3 O :   -0.604698
   4 C :   -0.740138
   5 H :    0.249409
   6 H :    0.290152
   7 H :    0.279218
   8 N :   -0.467776
   9 C :   -0.511537
  10 H :    0.302183
  11 H :    0.198255
  12 H :    0.270138
  13 C :   -0.524321
  14 H :    0.259633
  15 H :    0.224297
  16 H :    0.283463
  17 C :    0.093499
  18 C :   -0.262767
  19 C :   -0.217098
  20 C :   -0.228462
  21 C :   -0.313699
  22 C :   -0.113047
  23 H :    0.217235
  24 H :    0.201309
  25 H :    0.210812
  26 H :    0.213852
  27 H :    0.436227
  28 C :   -0.319232
  29 H :    0.258151
  30 H :    0.229263
  31 O :   -0.547536
  32 C :    0.531576
  33 O :   -0.518452
  34 C :   -0.738176
  35 H :    0.233090
  36 H :    0.216962
  37 H :    0.207260
Sum of atomic charges:   -0.0000000

LOEWDIN ATOMIC CHARGES
----------------------
   0 Pd:   -0.384890
   1 O :    0.033183
   2 C :    0.274021
   3 O :   -0.284492
   4 C :   -0.370527
   5 H :    0.147854
   6 H :    0.175227
   7 H :    0.169847
   8 N :   -0.052602
   9 C :   -0.226184
  10 H :    0.173022
  11 H :    0.113106
  12 H :    0.152618
  13 C :   -0.232019
  14 H :    0.147125
  15 H :    0.123452
  16 H :    0.160805
  17 C :   -0.045038
  18 C :   -0.139967
  19 C :   -0.148635
  20 C :   -0.138630
  21 C :   -0.135098
  22 C :   -0.009502
  23 H :    0.136255
  24 H :    0.136723
  25 H :    0.135173
  26 H :    0.137868
  27 H :    0.295715
  28 C :   -0.104854
  29 H :    0.149292
  30 H :    0.131794
  31 O :   -0.280681
  32 C :    0.102515
  33 O :   -0.343105
  34 C :   -0.397976
  35 H :    0.138166
  36 H :    0.134376
  37 H :    0.126064

  Mayer bond orders larger than 0.100000
B(  0-Pd,  1-O ) :   0.3646 B(  0-Pd,  8-N ) :   0.4441 B(  0-Pd, 22-C ) :   0.8917
B(  0-Pd, 31-O ) :   0.4209 B(  1-O ,  2-C ) :   1.8223 B(  2-C ,  3-O ) :   1.0249
B(  2-C ,  4-C ) :   0.9496 B(  3-O , 27-H ) :   0.7653 B(  4-C ,  5-H ) :   0.9015
B(  4-C ,  6-H ) :   0.8879 B(  4-C ,  7-H ) :   0.9020 B(  8-N ,  9-C ) :   0.9044
B(  8-N , 13-C ) :   0.9173 B(  8-N , 28-C ) :   0.8724 B(  9-C , 10-H ) :   0.8775
B(  9-C , 11-H ) :   0.9021 B(  9-C , 12-H ) :   0.9033 B( 13-C , 14-H ) :   0.9020
B( 13-C , 15-H ) :   0.9025 B( 13-C , 16-H ) :   0.8934 B( 17-C , 18-C ) :   1.4355
B( 17-C , 22-C ) :   1.2674 B( 17-C , 28-C ) :   0.9678 B( 18-C , 19-C ) :   1.3905
B( 18-C , 25-H ) :   0.9204 B( 19-C , 20-C ) :   1.4556 B( 19-C , 26-H ) :   0.9191
B( 20-C , 21-C ) :   1.3808 B( 20-C , 23-H ) :   0.9182 B( 21-C , 22-C ) :   1.4024
B( 21-C , 24-H ) :   0.9253 B( 28-C , 29-H ) :   0.8962 B( 28-C , 30-H ) :   0.9063
B( 31-O , 32-C ) :   1.4294 B( 31-O , 33-O ) :   0.1106 B( 32-C , 33-O ) :   1.8024
B( 32-C , 34-C ) :   0.9138 B( 34-C , 35-H ) :   0.9237 B( 34-C , 36-H ) :   0.9227
B( 34-C , 37-H ) :   0.9229

Dispersion correction           -0.025956354
FINAL SINGLE POINT ENERGY      -988.384282444955
Dispersion correction            ... done

DIPOLE MOMENT
-------------
                                X             Y             Z
Electronic contribution:      4.79610      15.95188       4.44123
Nuclear contribution   :     -6.24291     -13.69992      -3.36713
                        -----------------------------------------
Total Dipole Moment    :     -1.44682       2.25196       1.07410
                        -----------------------------------------
Magnitude (a.u.)       :      2.88415
Magnitude (Debye)      :      7.33092

Rotational constants in cm-1:     0.013627     0.008731     0.006559
Rotational constants in MHz :   408.539070   261.734094   196.622462

                             ****ORCA TERMINATED NORMALLY****
TOTAL RUN TIME: 0 days 0 hours 9 minutes 32 seconds 820 msec
