                         Program Version 5.0.3 -  RELEASE  -
|  1> ! EnGrad PBEh-3c
|  2> %output
|  3> xyzfile=True
|  4> end
|  5> %scf
|  6> maxiter 250
|  7> end
|  8> %output
|  9> Print[P_Hirshfeld] = 1
| 10> end
| 11> % maxcore
| 12> 4000
| 13> *xyz 0 1
| 14> Pd   0.16708355   0.23117226   0.03362511
| 15> O    1.69081776   1.53034590   0.60389686
| 16> C    1.48337781   2.71177177   0.50859857
| 17> O    0.41361199   3.18778617   0.11262210
| 18> C    2.74984023   3.58675775   0.63069226
| 19> H    2.45379900   4.50583848   1.08494861
| 20> H    3.27453599   3.83671446  -0.30268651
| 21> H    3.56425857   3.14903920   1.27189024
| 22> N   -1.33533778  -0.83834987  -0.92748083
| 23> C   -1.01437321  -2.15350102  -1.56397372
| 24> H   -0.24890143  -2.02740921  -2.35348342
| 25> H   -1.95722458  -2.57361338  -1.97176799
| 26> H   -0.63918518  -2.86744879  -0.82916132
| 27> C   -1.91631925   0.00319400  -2.00028582
| 28> H   -2.05020317   1.03047666  -1.65402687
| 29> H   -2.90927999  -0.38150842  -2.30244237
| 30> H   -1.23891713   0.04195958  -2.85432752
| 31> C   -1.70790809  -1.13961553   1.48798364
| 32> C   -2.10449742  -2.09247947   2.40735677
| 33> C   -1.67861882  -1.98439361   3.73031918
| 34> C   -1.09632079  -0.78797675   4.10717247
| 35> C   -0.70761791   0.21529354   3.16863942
| 36> C   -0.81100738  -0.08508711   1.81540791
| 37> H   -0.78454936  -0.68717034   5.14421098
| 38> H   -0.38424298   1.20753083   3.58066721
| 39> H   -2.65006776  -2.97579031   2.07599167
| 40> H   -1.95051804  -2.79996983   4.43936867
| 41> H   -0.36707071   3.21549330   0.73374577
| 42> C   -2.34694767  -1.08678997   0.11351083
| 43> H   -3.04501312  -0.23651383   0.09731203
| 44> H   -2.92411812  -1.99995299  -0.12112099
| 45> O    1.43818554   0.42523124  -1.86236555
| 46> C    2.21537205  -0.47469145  -2.34268709
| 47> O    2.17525532  -1.67930528  -2.02361876
| 48> C    3.33114854  -0.06864520  -3.31953836
| 49> H    3.69279380  -0.94738572  -3.86316468
| 50> H    4.20169838   0.35005875  -2.80767764
| 51> H    3.01474411   0.68372640  -4.05142636
| 52> *
| 53>
| 54>                          ****END OF INPUT****

CARTESIAN COORDINATES (ANGSTROEM)
---------------------------------
  Pd     0.167084    0.231172    0.033625
  O      1.690818    1.530346    0.603897
  C      1.483378    2.711772    0.508599
  O      0.413612    3.187786    0.112622
  C      2.749840    3.586758    0.630692
  H      2.453799    4.505838    1.084949
  H      3.274536    3.836714   -0.302687
  H      3.564259    3.149039    1.271890
  N     -1.335338   -0.838350   -0.927481
  C     -1.014373   -2.153501   -1.563974
  H     -0.248901   -2.027409   -2.353483
  H     -1.957225   -2.573613   -1.971768
  H     -0.639185   -2.867449   -0.829161
  C     -1.916319    0.003194   -2.000286
  H     -2.050203    1.030477   -1.654027
  H     -2.909280   -0.381508   -2.302442
  H     -1.238917    0.041960   -2.854328
  C     -1.707908   -1.139616    1.487984
  C     -2.104497   -2.092479    2.407357
  C     -1.678619   -1.984394    3.730319
  C     -1.096321   -0.787977    4.107172
  C     -0.707618    0.215294    3.168639
  C     -0.811007   -0.085087    1.815408
  H     -0.784549   -0.687170    5.144211
  H     -0.384243    1.207531    3.580667
  H     -2.650068   -2.975790    2.075992
  H     -1.950518   -2.799970    4.439369
  H     -0.367071    3.215493    0.733746
  C     -2.346948   -1.086790    0.113511
  H     -3.045013   -0.236514    0.097312
  H     -2.924118   -1.999953   -0.121121
  O      1.438186    0.425231   -1.862366
  C      2.215372   -0.474691   -2.342687
  O      2.175255   -1.679305   -2.023619
  C      3.331149   -0.068645   -3.319538
  H      3.692794   -0.947386   -3.863165
  H      4.201698    0.350059   -2.807678
  H      3.014744    0.683726   -4.051426

 Total Charge           Charge          ....    0
 Multiplicity           Mult            ....    1
 Number of Electrons    NEL             ....  154
 Basis Dimension        Dim             ....  339

ORBITAL ENERGIES
----------------

  NO   OCC          E(Eh)            E(eV)
   0   2.0000     -19.586546      -532.9770
   1   2.0000     -19.548436      -531.9400
   2   2.0000     -19.425287      -528.5889
   3   2.0000     -19.387839      -527.5699
   4   2.0000     -14.713842      -400.3840
   5   2.0000     -10.628177      -289.2074
   6   2.0000     -10.498930      -285.6904
   7   2.0000     -10.488609      -285.4096
   8   2.0000     -10.479520      -285.1622
   9   2.0000     -10.470850      -284.9263
  10   2.0000     -10.466747      -284.8147
  11   2.0000     -10.454636      -284.4851
  12   2.0000     -10.453907      -284.4653
  13   2.0000     -10.452385      -284.4238
  14   2.0000     -10.445364      -284.2328
  15   2.0000     -10.442618      -284.1581
  16   2.0000     -10.441718      -284.1336
  17   2.0000     -10.395522      -282.8765
  18   2.0000      -3.647286       -99.2477
  19   2.0000      -2.293750       -62.4161
  20   2.0000      -2.289616       -62.3036
  21   2.0000      -2.259705       -61.4897
  22   2.0000      -1.301808       -35.4240
  23   2.0000      -1.190101       -32.3843
  24   2.0000      -1.097230       -29.8572
  25   2.0000      -1.067398       -29.0454
  26   2.0000      -0.999475       -27.1971
  27   2.0000      -0.949570       -25.8391
  28   2.0000      -0.859849       -23.3977
  29   2.0000      -0.858494       -23.3608
  30   2.0000      -0.826833       -22.4993
  31   2.0000      -0.803916       -21.8757
  32   2.0000      -0.779977       -21.2243
  33   2.0000      -0.766623       -20.8609
  34   2.0000      -0.764916       -20.8144
  35   2.0000      -0.704389       -19.1674
  36   2.0000      -0.671257       -18.2658
  37   2.0000      -0.648169       -17.6376
  38   2.0000      -0.636917       -17.3314
  39   2.0000      -0.601390       -16.3647
  40   2.0000      -0.596628       -16.2351
  41   2.0000      -0.579075       -15.7574
  42   2.0000      -0.558314       -15.1925
  43   2.0000      -0.555700       -15.1214
  44   2.0000      -0.545814       -14.8524
  45   2.0000      -0.536862       -14.6088
  46   2.0000      -0.512032       -13.9331
  47   2.0000      -0.497531       -13.5385
  48   2.0000      -0.493066       -13.4170
  49   2.0000      -0.486189       -13.2299
  50   2.0000      -0.479030       -13.0351
  51   2.0000      -0.469483       -12.7753
  52   2.0000      -0.463040       -12.6000
  53   2.0000      -0.458961       -12.4890
  54   2.0000      -0.453314       -12.3353
  55   2.0000      -0.449418       -12.2293
  56   2.0000      -0.444986       -12.1087
  57   2.0000      -0.438360       -11.9284
  58   2.0000      -0.433968       -11.8089
  59   2.0000      -0.427684       -11.6379
  60   2.0000      -0.427525       -11.6335
  61   2.0000      -0.419094       -11.4041
  62   2.0000      -0.407536       -11.0896
  63   2.0000      -0.399275       -10.8648
  64   2.0000      -0.394735       -10.7413
  65   2.0000      -0.378282       -10.2936
  66   2.0000      -0.370708       -10.0875
  67   2.0000      -0.358692        -9.7605
  68   2.0000      -0.343063        -9.3352
  69   2.0000      -0.340334        -9.2610
  70   2.0000      -0.324850        -8.8396
  71   2.0000      -0.289818        -7.8863
  72   2.0000      -0.278808        -7.5868
  73   2.0000      -0.275231        -7.4894
  74   2.0000      -0.264129        -7.1873
  75   2.0000      -0.255454        -6.9513
  76   2.0000      -0.241418        -6.5693
  77   0.0000      -0.038194        -1.0393
  78   0.0000      -0.017120        -0.4658
  79   0.0000       0.008225         0.2238
  80   0.0000       0.019700         0.5361
  81   0.0000       0.030651         0.8340

MULLIKEN ATOMIC CHARGES
-----------------------
   0 Pd:    0.366171
   1 O :   -0.352294
   2 C :    0.596913
   3 O :   -0.529386
   4 C :   -0.745916
   5 H :    0.234198
   6 H :    0.284462
   7 H :    0.270569
   8 N :   -0.481394
   9 C :   -0.521224
  10 H :    0.302457
  11 H :    0.203035
  12 H :    0.274652
  13 C :   -0.525150
  14 H :    0.259595
  15 H :    0.226120
  16 H :    0.286261
  17 C :    0.099907
  18 C :   -0.268218
  19 C :   -0.218781
  20 C :   -0.226096
  21 C :   -0.323921
  22 C :   -0.111732
  23 H :    0.215018
  24 H :    0.194410
  25 H :    0.209707
  26 H :    0.213066
  27 H :    0.502098
  28 C :   -0.320513
  29 H :    0.257028
  30 H :    0.230132
  31 O :   -0.547309
  32 C :    0.531520
  33 O :   -0.510259
  34 C :   -0.738802
  35 H :    0.232566
  36 H :    0.222868
  37 H :    0.208241
Sum of atomic charges:   -0.0000000

LOEWDIN ATOMIC CHARGES
----------------------
   0 Pd:   -0.409025
   1 O :   -0.014048
   2 C :    0.163346
   3 O :   -0.189493
   4 C :   -0.379023
   5 H :    0.139828
   6 H :    0.172493
   7 H :    0.162876
   8 N :   -0.040218
   9 C :   -0.228260
  10 H :    0.170809
  11 H :    0.114277
  12 H :    0.154055
  13 C :   -0.230632
  14 H :    0.146415
  15 H :    0.124274
  16 H :    0.161006
  17 C :   -0.047006
  18 C :   -0.139647
  19 C :   -0.145213
  20 C :   -0.135616
  21 C :   -0.135715
  22 C :   -0.025077
  23 H :    0.135216
  24 H :    0.134050
  25 H :    0.134086
  26 H :    0.136710
  27 H :    0.390096
  28 C :   -0.101629
  29 H :    0.147815
  30 H :    0.130891
  31 O :   -0.274934
  32 C :    0.104871
  33 O :   -0.333216
  34 C :   -0.396401
  35 H :    0.137998
  36 H :    0.137988
  37 H :    0.126053

  Mayer bond orders larger than 0.100000
B(  0-Pd,  1-O ) :   0.3896 B(  0-Pd,  8-N ) :   0.4518 B(  0-Pd, 22-C ) :   0.8651
B(  0-Pd, 31-O ) :   0.4431 B(  1-O ,  2-C ) :   1.7460 B(  2-C ,  3-O ) :   1.2065
B(  2-C ,  4-C ) :   0.9491 B(  3-O , 27-H ) :   0.6847 B(  4-C ,  5-H ) :   0.9061
B(  4-C ,  6-H ) :   0.8919 B(  4-C ,  7-H ) :   0.9090 B(  8-N ,  9-C ) :   0.9063
B(  8-N , 13-C ) :   0.9165 B(  8-N , 28-C ) :   0.8713 B(  9-C , 10-H ) :   0.8784
B(  9-C , 11-H ) :   0.9026 B(  9-C , 12-H ) :   0.9012 B( 13-C , 14-H ) :   0.9027
B( 13-C , 15-H ) :   0.9020 B( 13-C , 16-H ) :   0.8922 B( 17-C , 18-C ) :   1.4602
B( 17-C , 22-C ) :   1.2515 B( 17-C , 28-C ) :   0.9665 B( 18-C , 19-C ) :   1.3780
B( 18-C , 25-H ) :   0.9198 B( 19-C , 20-C ) :   1.4751 B( 19-C , 26-H ) :   0.9198
B( 20-C , 21-C ) :   1.3697 B( 20-C , 23-H ) :   0.9187 B( 21-C , 22-C ) :   1.4291
B( 21-C , 24-H ) :   0.9280 B( 28-C , 29-H ) :   0.8966 B( 28-C , 30-H ) :   0.9067
B( 31-O , 32-C ) :   1.4093 B( 31-O , 33-O ) :   0.1092 B( 32-C , 33-O ) :   1.8087
B( 32-C , 34-C ) :   0.9168 B( 34-C , 35-H ) :   0.9230 B( 34-C , 36-H ) :   0.9216
B( 34-C , 37-H ) :   0.9220

Dispersion correction           -0.026019683
FINAL SINGLE POINT ENERGY      -988.456300882602
Dispersion correction            ... done

DIPOLE MOMENT
-------------
                                X             Y             Z
Electronic contribution:      3.82179      13.28569       2.17440
Nuclear contribution   :     -5.66116     -10.97291      -1.25852
                        -----------------------------------------
Total Dipole Moment    :     -1.83937       2.31277       0.91588
                        -----------------------------------------
Magnitude (a.u.)       :      3.09371
Magnitude (Debye)      :      7.86359

Rotational constants in cm-1:     0.013816     0.008743     0.006558
Rotational constants in MHz :   414.193157   262.105711   196.612529

                             ****ORCA TERMINATED NORMALLY****
TOTAL RUN TIME: 0 days 0 hours 9 minutes 9 seconds 164 msec
