                         Program Version 5.0.3 -  RELEASE  -
|  1> ! EnGrad PBEh-3c
|  2> %output
|  3> xyzfile=True
|  4> end
|  5> %scf
|  6> maxiter 250
|  7> end
|  8> %output
|  9> Print[P_Hirshfeld] = 1
| 10> end
| 11> % maxcore
| 12> 4000
| 13> *xyz 0 1
| 14> Pd   0.15541610   0.21501230   0.01967830
| 15> O    1.64811169   1.54070343   0.61585052
| 16> C    1.50295557   2.72707606   0.52830965
| 17> O    0.41678412   3.23757628   0.09805179
| 18> C    2.72484315   3.59761479   0.63061494
| 19> H    2.44740812   4.52808731   1.08576730
| 20> H    3.25241534   3.83589986  -0.30802373
| 21> H    3.52933968   3.15135555   1.25594891
| 22> N   -1.33727937  -0.82849771  -0.92659174
| 23> C   -1.01840610  -2.13425417  -1.57368123
| 24> H   -0.26354859  -2.01517988  -2.36165444
| 25> H   -1.95631483  -2.55456548  -1.99024419
| 26> H   -0.64351165  -2.86507344  -0.85550084
| 27> C   -1.92117117   0.02272856  -1.98936381
| 28> H   -2.05755275   1.04410316  -1.63894213
| 29> H   -2.91119749  -0.35730427  -2.29836873
| 30> H   -1.25055471   0.06882740  -2.84654698
| 31> C   -1.68814690  -1.16595510   1.47921154
| 32> C   -2.08553768  -2.10930423   2.40200179
| 33> C   -1.66996042  -1.99122507   3.72718448
| 34> C   -1.08718274  -0.78217505   4.09811901
| 35> C   -0.69880399   0.22147588   3.16401386
| 36> C   -0.82771320  -0.08111194   1.80251416
| 37> H   -0.78902866  -0.67430437   5.13204417
| 38> H   -0.40198958   1.22439171   3.56342187
| 39> H   -2.62454954  -2.99254040   2.06878355
| 40> H   -1.91108828  -2.81791205   4.42347802
| 41> H   -0.31597117   3.14397872   0.75103283
| 42> C   -2.34430608  -1.08911677   0.11866118
| 43> H   -3.05236570  -0.24467189   0.10268666
| 44> H   -2.92238830  -2.00013217  -0.11814517
| 45> O    1.43191777   0.40954521  -1.84886514
| 46> C    2.21559836  -0.50467209  -2.32598893
| 47> O    2.18816467  -1.67504316  -1.98911452
| 48> C    3.33448868  -0.08433566  -3.31001481
| 49> H    3.69527593  -0.96532505  -3.84763532
| 50> H    4.21161919   0.33286334  -2.80127148
| 51> H    3.02031026   0.66089657  -4.04056740
| 52> *
| 53>
| 54>                          ****END OF INPUT****

CARTESIAN COORDINATES (ANGSTROEM)
---------------------------------
  Pd     0.155416    0.215012    0.019678
  O      1.648112    1.540703    0.615851
  C      1.502956    2.727076    0.528310
  O      0.416784    3.237576    0.098052
  C      2.724843    3.597615    0.630615
  H      2.447408    4.528087    1.085767
  H      3.252415    3.835900   -0.308024
  H      3.529340    3.151356    1.255949
  N     -1.337279   -0.828498   -0.926592
  C     -1.018406   -2.134254   -1.573681
  H     -0.263549   -2.015180   -2.361654
  H     -1.956315   -2.554565   -1.990244
  H     -0.643512   -2.865073   -0.855501
  C     -1.921171    0.022729   -1.989364
  H     -2.057553    1.044103   -1.638942
  H     -2.911197   -0.357304   -2.298369
  H     -1.250555    0.068827   -2.846547
  C     -1.688147   -1.165955    1.479212
  C     -2.085538   -2.109304    2.402002
  C     -1.669960   -1.991225    3.727184
  C     -1.087183   -0.782175    4.098119
  C     -0.698804    0.221476    3.164014
  C     -0.827713   -0.081112    1.802514
  H     -0.789029   -0.674304    5.132044
  H     -0.401990    1.224392    3.563422
  H     -2.624550   -2.992540    2.068784
  H     -1.911088   -2.817912    4.423478
  H     -0.315971    3.143979    0.751033
  C     -2.344306   -1.089117    0.118661
  H     -3.052366   -0.244672    0.102687
  H     -2.922388   -2.000132   -0.118145
  O      1.431918    0.409545   -1.848865
  C      2.215598   -0.504672   -2.325989
  O      2.188165   -1.675043   -1.989115
  C      3.334489   -0.084336   -3.310015
  H      3.695276   -0.965325   -3.847635
  H      4.211619    0.332863   -2.801271
  H      3.020310    0.660897   -4.040567

 Total Charge           Charge          ....    0
 Multiplicity           Mult            ....    1
 Number of Electrons    NEL             ....  154
 Basis Dimension        Dim             ....  339

ORBITAL ENERGIES
----------------

  NO   OCC          E(Eh)            E(eV)
   0   2.0000     -19.576309      -532.6984
   1   2.0000     -19.550585      -531.9985
   2   2.0000     -19.423571      -528.5422
   3   2.0000     -19.393949      -527.7362
   4   2.0000     -14.715994      -400.4425
   5   2.0000     -10.625540      -289.1356
   6   2.0000     -10.499797      -285.7140
   7   2.0000     -10.488887      -285.4171
   8   2.0000     -10.479103      -285.1509
   9   2.0000     -10.470953      -284.9291
  10   2.0000     -10.467370      -284.8316
  11   2.0000     -10.454691      -284.4866
  12   2.0000     -10.453745      -284.4609
  13   2.0000     -10.450792      -284.3805
  14   2.0000     -10.446127      -284.2536
  15   2.0000     -10.443380      -284.1788
  16   2.0000     -10.441468      -284.1268
  17   2.0000     -10.396249      -282.8963
  18   2.0000      -3.647241       -99.2465
  19   2.0000      -2.294080       -62.4251
  20   2.0000      -2.289415       -62.2982
  21   2.0000      -2.259551       -61.4855
  22   2.0000      -1.289082       -35.0777
  23   2.0000      -1.186198       -32.2781
  24   2.0000      -1.105097       -30.0712
  25   2.0000      -1.069740       -29.1091
  26   2.0000      -1.005956       -27.3735
  27   2.0000      -0.948590       -25.8124
  28   2.0000      -0.868076       -23.6216
  29   2.0000      -0.860655       -23.4196
  30   2.0000      -0.826210       -22.4823
  31   2.0000      -0.806010       -21.9326
  32   2.0000      -0.780217       -21.2308
  33   2.0000      -0.764846       -20.8125
  34   2.0000      -0.743213       -20.2238
  35   2.0000      -0.706565       -19.2266
  36   2.0000      -0.672056       -18.2876
  37   2.0000      -0.649477       -17.6732
  38   2.0000      -0.639138       -17.3918
  39   2.0000      -0.597444       -16.2573
  40   2.0000      -0.591693       -16.1008
  41   2.0000      -0.579929       -15.7807
  42   2.0000      -0.559899       -15.2356
  43   2.0000      -0.557846       -15.1798
  44   2.0000      -0.545873       -14.8540
  45   2.0000      -0.538047       -14.6410
  46   2.0000      -0.512213       -13.9380
  47   2.0000      -0.498851       -13.5744
  48   2.0000      -0.495572       -13.4852
  49   2.0000      -0.488271       -13.2865
  50   2.0000      -0.480629       -13.0786
  51   2.0000      -0.472094       -12.8463
  52   2.0000      -0.464683       -12.6447
  53   2.0000      -0.462235       -12.5781
  54   2.0000      -0.455736       -12.4012
  55   2.0000      -0.453033       -12.3277
  56   2.0000      -0.448069       -12.1926
  57   2.0000      -0.439447       -11.9580
  58   2.0000      -0.434515       -11.8238
  59   2.0000      -0.428838       -11.6693
  60   2.0000      -0.427604       -11.6357
  61   2.0000      -0.418284       -11.3821
  62   2.0000      -0.408274       -11.1097
  63   2.0000      -0.400826       -10.9070
  64   2.0000      -0.395419       -10.7599
  65   2.0000      -0.381145       -10.3715
  66   2.0000      -0.375527       -10.2186
  67   2.0000      -0.359116        -9.7720
  68   2.0000      -0.344351        -9.3703
  69   2.0000      -0.339545        -9.2395
  70   2.0000      -0.323653        -8.8070
  71   2.0000      -0.289332        -7.8731
  72   2.0000      -0.279874        -7.6158
  73   2.0000      -0.275842        -7.5060
  74   2.0000      -0.268703        -7.3118
  75   2.0000      -0.254885        -6.9358
  76   2.0000      -0.246364        -6.7039
  77   0.0000      -0.035790        -0.9739
  78   0.0000      -0.016885        -0.4595
  79   0.0000       0.008928         0.2429
  80   0.0000       0.019325         0.5259
  81   0.0000       0.034243         0.9318

MULLIKEN ATOMIC CHARGES
-----------------------
   0 Pd:    0.377813
   1 O :   -0.348309
   2 C :    0.597386
   3 O :   -0.547454
   4 C :   -0.753563
   5 H :    0.242096
   6 H :    0.290192
   7 H :    0.272975
   8 N :   -0.487234
   9 C :   -0.523415
  10 H :    0.301467
  11 H :    0.205386
  12 H :    0.276054
  13 C :   -0.529101
  14 H :    0.264841
  15 H :    0.227424
  16 H :    0.287317
  17 C :    0.104616
  18 C :   -0.269402
  19 C :   -0.221007
  20 C :   -0.229088
  21 C :   -0.318300
  22 C :   -0.122570
  23 H :    0.214744
  24 H :    0.195040
  25 H :    0.209424
  26 H :    0.215457
  27 H :    0.490079
  28 C :   -0.320519
  29 H :    0.258553
  30 H :    0.230015
  31 O :   -0.557986
  32 C :    0.525186
  33 O :   -0.479867
  34 C :   -0.741839
  35 H :    0.229830
  36 H :    0.221995
  37 H :    0.211765
Sum of atomic charges:   -0.0000000

LOEWDIN ATOMIC CHARGES
----------------------
   0 Pd:   -0.414363
   1 O :   -0.008335
   2 C :    0.173526
   3 O :   -0.223680
   4 C :   -0.377185
   5 H :    0.146096
   6 H :    0.178099
   7 H :    0.163771
   8 N :   -0.035286
   9 C :   -0.228002
  10 H :    0.168434
  11 H :    0.115074
  12 H :    0.154603
  13 C :   -0.230493
  14 H :    0.148473
  15 H :    0.124629
  16 H :    0.161401
  17 C :   -0.050196
  18 C :   -0.138198
  19 C :   -0.145367
  20 C :   -0.133583
  21 C :   -0.136841
  22 C :   -0.026358
  23 H :    0.134767
  24 H :    0.134787
  25 H :    0.133810
  26 H :    0.137263
  27 H :    0.377286
  28 C :   -0.099033
  29 H :    0.148125
  30 H :    0.130359
  31 O :   -0.284891
  32 C :    0.097915
  33 O :   -0.298492
  34 C :   -0.399149
  35 H :    0.136534
  36 H :    0.137768
  37 H :    0.126729

  Mayer bond orders larger than 0.100000
B(  0-Pd,  1-O ) :   0.3714 B(  0-Pd,  8-N ) :   0.4602 B(  0-Pd, 22-C ) :   0.8551
B(  0-Pd, 31-O ) :   0.4608 B(  1-O ,  2-C ) :   1.7745 B(  2-C ,  3-O ) :   1.1795
B(  2-C ,  4-C ) :   0.9572 B(  3-O , 27-H ) :   0.7008 B(  4-C ,  5-H ) :   0.9046
B(  4-C ,  6-H ) :   0.8876 B(  4-C ,  7-H ) :   0.9066 B(  8-N ,  9-C ) :   0.9076
B(  8-N , 13-C ) :   0.9148 B(  8-N , 28-C ) :   0.8685 B(  9-C , 10-H ) :   0.8812
B(  9-C , 11-H ) :   0.9029 B(  9-C , 12-H ) :   0.9006 B( 13-C , 14-H ) :   0.9008
B( 13-C , 15-H ) :   0.9016 B( 13-C , 16-H ) :   0.8915 B( 17-C , 18-C ) :   1.4570
B( 17-C , 22-C ) :   1.2542 B( 17-C , 28-C ) :   0.9668 B( 18-C , 19-C ) :   1.3849
B( 18-C , 25-H ) :   0.9192 B( 19-C , 20-C ) :   1.4667 B( 19-C , 26-H ) :   0.9194
B( 20-C , 21-C ) :   1.3796 B( 20-C , 23-H ) :   0.9189 B( 21-C , 22-C ) :   1.4225
B( 21-C , 24-H ) :   0.9283 B( 28-C , 29-H ) :   0.8957 B( 28-C , 30-H ) :   0.9070
B( 31-O , 32-C ) :   1.3791 B( 31-O , 33-O ) :   0.1069 B( 32-C , 33-O ) :   1.8503
B( 32-C , 34-C ) :   0.9130 B( 34-C , 35-H ) :   0.9233 B( 34-C , 36-H ) :   0.9230
B( 34-C , 37-H ) :   0.9215

Dispersion correction           -0.026027994
FINAL SINGLE POINT ENERGY      -988.469956482836
Dispersion correction            ... done

DIPOLE MOMENT
-------------
                                X             Y             Z
Electronic contribution:      3.37857      12.13991       1.32589
Nuclear contribution   :     -5.05909     -10.05681      -0.46199
                        -----------------------------------------
Total Dipole Moment    :     -1.68052       2.08310       0.86390
                        -----------------------------------------
Magnitude (a.u.)       :      2.81243
Magnitude (Debye)      :      7.14863

Rotational constants in cm-1:     0.013755     0.008771     0.006582
Rotational constants in MHz :   412.370897   262.951724   197.330563

                             ****ORCA TERMINATED NORMALLY****
TOTAL RUN TIME: 0 days 0 hours 8 minutes 52 seconds 224 msec
