                         Program Version 5.0.3 -  RELEASE  -
|  1> ! EnGrad PBEh-3c
|  2> %output
|  3> xyzfile=True
|  4> end
|  5> %scf
|  6> maxiter 250
|  7> end
|  8> %output
|  9> Print[P_Hirshfeld] = 1
| 10> end
| 11> % maxcore
| 12> 4000
| 13> *xyz 0 1
| 14> Pd   0.14378372   0.19290176  -0.01248990
| 15> O    1.56003569   1.53747589   0.66010178
| 16> C    1.53114248   2.77324045   0.53656289
| 17> O    0.43639240   3.35577940   0.08036809
| 18> C    2.69068550   3.62750720   0.63819236
| 19> H    2.43308970   4.58056645   1.08755773
| 20> H    3.19474579   3.83132881  -0.31923617
| 21> H    3.45015614   3.15600645   1.22157637
| 22> N   -1.34990176  -0.81664484  -0.93285072
| 23> C   -1.02656423  -2.09847128  -1.59551466
| 24> H   -0.29426894  -1.98688850  -2.37760037
| 25> H   -1.95066707  -2.50957654  -2.02964561
| 26> H   -0.65209184  -2.85635207  -0.90966001
| 27> C   -1.93319931   0.06637700  -1.96811238
| 28> H   -2.07379858   1.07549786  -1.60470309
| 29> H   -2.91221653  -0.30629966  -2.28890593
| 30> H   -1.27465429   0.12586420  -2.82935199
| 31> C   -1.65278018  -1.20969058   1.45986524
| 32> C   -2.04155842  -2.15200387   2.39218143
| 33> C   -1.65004155  -2.00016363   3.71715242
| 34> C   -1.06535951  -0.77553988   4.07504631
| 35> C   -0.68580675   0.23046239   3.14707494
| 36> C   -0.86169654  -0.07805287   1.76904358
| 37> H   -0.79924994  -0.64337078   5.10971266
| 38> H   -0.43451633   1.24938722   3.52007777
| 39> H   -2.57367159  -3.02937271   2.05473253
| 40> H   -1.82536412  -2.84945342   4.38948806
| 41> H   -0.21421768   2.98488244   0.78538557
| 42> C   -2.34092528  -1.09795706   0.13281767
| 43> H   -3.06516332  -0.26495809   0.11874827
| 44> H   -2.91834192  -1.99780907  -0.11263570
| 45> O    1.41773746   0.37305531  -1.82461006
| 46> C    2.21826635  -0.53537417  -2.28085891
| 47> O    2.21716604  -1.69700884  -1.90485382
| 48> C    3.33802316  -0.11995348  -3.28775492
| 49> H    3.69835402  -1.00364852  -3.81490148
| 50> H    4.22776269   0.29482204  -2.78669682
| 51> H    3.02863781   0.61409700  -4.01875665
| 52> *
| 53>
| 54>                          ****END OF INPUT****

CARTESIAN COORDINATES (ANGSTROEM)
---------------------------------
  Pd     0.143784    0.192902   -0.012490
  O      1.560036    1.537476    0.660102
  C      1.531142    2.773240    0.536563
  O      0.436392    3.355779    0.080368
  C      2.690685    3.627507    0.638192
  H      2.433090    4.580566    1.087558
  H      3.194746    3.831329   -0.319236
  H      3.450156    3.156006    1.221576
  N     -1.349902   -0.816645   -0.932851
  C     -1.026564   -2.098471   -1.595515
  H     -0.294269   -1.986889   -2.377600
  H     -1.950667   -2.509577   -2.029646
  H     -0.652092   -2.856352   -0.909660
  C     -1.933199    0.066377   -1.968112
  H     -2.073799    1.075498   -1.604703
  H     -2.912217   -0.306300   -2.288906
  H     -1.274654    0.125864   -2.829352
  C     -1.652780   -1.209691    1.459865
  C     -2.041558   -2.152004    2.392181
  C     -1.650042   -2.000164    3.717152
  C     -1.065360   -0.775540    4.075046
  C     -0.685807    0.230462    3.147075
  C     -0.861697   -0.078053    1.769044
  H     -0.799250   -0.643371    5.109713
  H     -0.434516    1.249387    3.520078
  H     -2.573672   -3.029373    2.054733
  H     -1.825364   -2.849453    4.389488
  H     -0.214218    2.984882    0.785386
  C     -2.340925   -1.097957    0.132818
  H     -3.065163   -0.264958    0.118748
  H     -2.918342   -1.997809   -0.112636
  O      1.417737    0.373055   -1.824610
  C      2.218266   -0.535374   -2.280859
  O      2.217166   -1.697009   -1.904854
  C      3.338023   -0.119953   -3.287755
  H      3.698354   -1.003649   -3.814901
  H      4.227763    0.294822   -2.786697
  H      3.028638    0.614097   -4.018757

 Total Charge           Charge          ....    0
 Multiplicity           Mult            ....    1
 Number of Electrons    NEL             ....  154
 Basis Dimension        Dim             ....  339

ORBITAL ENERGIES
----------------

  NO   OCC          E(Eh)            E(eV)
   0   2.0000     -19.578369      -532.7545
   1   2.0000     -19.552349      -532.0465
   2   2.0000     -19.427639      -528.6529
   3   2.0000     -19.395826      -527.7872
   4   2.0000     -14.717021      -400.4705
   5   2.0000     -10.630990      -289.2839
   6   2.0000     -10.503399      -285.8120
   7   2.0000     -10.487679      -285.3843
   8   2.0000     -10.477860      -285.1171
   9   2.0000     -10.472648      -284.9752
  10   2.0000     -10.464296      -284.7480
  11   2.0000     -10.455289      -284.5029
  12   2.0000     -10.453008      -284.4408
  13   2.0000     -10.447953      -284.3033
  14   2.0000     -10.447329      -284.2863
  15   2.0000     -10.443893      -284.1928
  16   2.0000     -10.441343      -284.1234
  17   2.0000     -10.398631      -282.9611
  18   2.0000      -3.646902       -99.2372
  19   2.0000      -2.294366       -62.4329
  20   2.0000      -2.288770       -62.2806
  21   2.0000      -2.259109       -61.4735
  22   2.0000      -1.268049       -34.5054
  23   2.0000      -1.163713       -31.6662
  24   2.0000      -1.107207       -30.1286
  25   2.0000      -1.071724       -29.1631
  26   2.0000      -1.008671       -27.4473
  27   2.0000      -0.947272       -25.7766
  28   2.0000      -0.890308       -24.2265
  29   2.0000      -0.862683       -23.4748
  30   2.0000      -0.825348       -22.4589
  31   2.0000      -0.810050       -22.0426
  32   2.0000      -0.779822       -21.2200
  33   2.0000      -0.765465       -20.8294
  34   2.0000      -0.709835       -19.3156
  35   2.0000      -0.704280       -19.1644
  36   2.0000      -0.674143       -18.3444
  37   2.0000      -0.650008       -17.6876
  38   2.0000      -0.637512       -17.3476
  39   2.0000      -0.593878       -16.1603
  40   2.0000      -0.587902       -15.9976
  41   2.0000      -0.580865       -15.8061
  42   2.0000      -0.561806       -15.2875
  43   2.0000      -0.560933       -15.2638
  44   2.0000      -0.550125       -14.9697
  45   2.0000      -0.539979       -14.6936
  46   2.0000      -0.512361       -13.9421
  47   2.0000      -0.507679       -13.8147
  48   2.0000      -0.500634       -13.6230
  49   2.0000      -0.496632       -13.5141
  50   2.0000      -0.482684       -13.1345
  51   2.0000      -0.474556       -12.9133
  52   2.0000      -0.467512       -12.7216
  53   2.0000      -0.464641       -12.6435
  54   2.0000      -0.457427       -12.4472
  55   2.0000      -0.455431       -12.3929
  56   2.0000      -0.450222       -12.2512
  57   2.0000      -0.441841       -12.0231
  58   2.0000      -0.435392       -11.8476
  59   2.0000      -0.430133       -11.7045
  60   2.0000      -0.428765       -11.6673
  61   2.0000      -0.416006       -11.3201
  62   2.0000      -0.410441       -11.1687
  63   2.0000      -0.401359       -10.9215
  64   2.0000      -0.394582       -10.7371
  65   2.0000      -0.383608       -10.4385
  66   2.0000      -0.379731       -10.3330
  67   2.0000      -0.357287        -9.7223
  68   2.0000      -0.344466        -9.3734
  69   2.0000      -0.336795        -9.1647
  70   2.0000      -0.320359        -8.7174
  71   2.0000      -0.288779        -7.8581
  72   2.0000      -0.280472        -7.6320
  73   2.0000      -0.278258        -7.5718
  74   2.0000      -0.270557        -7.3622
  75   2.0000      -0.254227        -6.9179
  76   2.0000      -0.247342        -6.7305
  77   0.0000      -0.031611        -0.8602
  78   0.0000      -0.026773        -0.7285
  79   0.0000       0.010084         0.2744
  80   0.0000       0.017900         0.4871
  81   0.0000       0.032901         0.8953

MULLIKEN ATOMIC CHARGES
-----------------------
   0 Pd:    0.393774
   1 O :   -0.396511
   2 C :    0.610184
   3 O :   -0.543317
   4 C :   -0.760990
   5 H :    0.257001
   6 H :    0.298574
   7 H :    0.284884
   8 N :   -0.495906
   9 C :   -0.528061
  10 H :    0.301813
  11 H :    0.207507
  12 H :    0.279384
  13 C :   -0.535503
  14 H :    0.271190
  15 H :    0.230073
  16 H :    0.288504
  17 C :    0.106982
  18 C :   -0.268288
  19 C :   -0.222818
  20 C :   -0.233172
  21 C :   -0.303664
  22 C :   -0.140997
  23 H :    0.214345
  24 H :    0.195995
  25 H :    0.211195
  26 H :    0.218357
  27 H :    0.475245
  28 C :   -0.320190
  29 H :    0.260109
  30 H :    0.230945
  31 O :   -0.557026
  32 C :    0.525662
  33 O :   -0.478305
  34 C :   -0.743624
  35 H :    0.231991
  36 H :    0.220070
  37 H :    0.214587
Sum of atomic charges:   -0.0000000

LOEWDIN ATOMIC CHARGES
----------------------
   0 Pd:   -0.431525
   1 O :   -0.050237
   2 C :    0.206651
   3 O :   -0.253936
   4 C :   -0.373579
   5 H :    0.159355
   6 H :    0.187598
   7 H :    0.167185
   8 N :   -0.030027
   9 C :   -0.229231
  10 H :    0.165058
  11 H :    0.114935
  12 H :    0.156272
  13 C :   -0.230087
  14 H :    0.151016
  15 H :    0.124802
  16 H :    0.161621
  17 C :   -0.055762
  18 C :   -0.135207
  19 C :   -0.145691
  20 C :   -0.130294
  21 C :   -0.136991
  22 C :   -0.027904
  23 H :    0.134213
  24 H :    0.135735
  25 H :    0.134048
  26 H :    0.138150
  27 H :    0.378769
  28 C :   -0.094719
  29 H :    0.147923
  30 H :    0.129262
  31 O :   -0.274159
  32 C :    0.104527
  33 O :   -0.297873
  34 C :   -0.401007
  35 H :    0.137176
  36 H :    0.137405
  37 H :    0.126527

  Mayer bond orders larger than 0.100000
B(  0-Pd,  1-O ) :   0.3624 B(  0-Pd,  8-N ) :   0.4698 B(  0-Pd, 22-C ) :   0.8398
B(  0-Pd, 31-O ) :   0.4731 B(  1-O ,  2-C ) :   1.7388 B(  2-C ,  3-O ) :   1.1843
B(  2-C ,  4-C ) :   0.9762 B(  3-O , 27-H ) :   0.7137 B(  4-C ,  5-H ) :   0.9011
B(  4-C ,  6-H ) :   0.8789 B(  4-C ,  7-H ) :   0.8978 B(  8-N ,  9-C ) :   0.9116
B(  8-N , 13-C ) :   0.9139 B(  8-N , 28-C ) :   0.8638 B(  9-C , 10-H ) :   0.8832
B(  9-C , 11-H ) :   0.9034 B(  9-C , 12-H ) :   0.8997 B( 13-C , 14-H ) :   0.8985
B( 13-C , 15-H ) :   0.9013 B( 13-C , 16-H ) :   0.8909 B( 17-C , 18-C ) :   1.4426
B( 17-C , 22-C ) :   1.2693 B( 17-C , 28-C ) :   0.9689 B( 18-C , 19-C ) :   1.4048
B( 18-C , 25-H ) :   0.9175 B( 19-C , 20-C ) :   1.4449 B( 19-C , 26-H ) :   0.9188
B( 20-C , 21-C ) :   1.4032 B( 20-C , 23-H ) :   0.9193 B( 21-C , 22-C ) :   1.4023
B( 21-C , 24-H ) :   0.9281 B( 28-C , 29-H ) :   0.8948 B( 28-C , 30-H ) :   0.9072
B( 31-O , 32-C ) :   1.3693 B( 31-O , 33-O ) :   0.1067 B( 32-C , 33-O ) :   1.8505
B( 32-C , 34-C ) :   0.9121 B( 34-C , 35-H ) :   0.9225 B( 34-C , 36-H ) :   0.9243
B( 34-C , 37-H ) :   0.9197

Dispersion correction           -0.025962190
FINAL SINGLE POINT ENERGY      -988.470672706187
Dispersion correction            ... done

DIPOLE MOMENT
-------------
                                X             Y             Z
Electronic contribution:      2.99257      10.79482      -0.62904
Nuclear contribution   :     -4.47122      -8.79586       1.38190
                        -----------------------------------------
Total Dipole Moment    :     -1.47865       1.99896       0.75285
                        -----------------------------------------
Magnitude (a.u.)       :      2.59789
Magnitude (Debye)      :      6.60331

Rotational constants in cm-1:     0.013579     0.008824     0.006627
Rotational constants in MHz :   407.085581   264.540093   198.662441

                             ****ORCA TERMINATED NORMALLY****
TOTAL RUN TIME: 0 days 0 hours 9 minutes 16 seconds 838 msec
