                         Program Version 5.0.3 -  RELEASE  -
|  1> ! EnGrad PBEh-3c
|  2> %output
|  3> xyzfile=True
|  4> end
|  5> %scf
|  6> maxiter 250
|  7> end
|  8> %output
|  9> Print[P_Hirshfeld] = 1
| 10> end
| 11> % maxcore
| 12> 4000
| 13> *xyz 0 1
| 14> Pd   0.15536237   0.19475795  -0.03868529
| 15> O    1.52016817   1.56347674   0.70554773
| 16> C    1.55078720   2.75064473   0.50718984
| 17> O    0.41140630   3.41965730   0.11895306
| 18> C    2.69500325   3.65934691   0.64533870
| 19> H    2.42462501   4.61399316   1.08838040
| 20> H    3.15079544   3.82658593  -0.32605177
| 21> H    3.41189714   3.15320593   1.21073876
| 22> N   -1.36511923  -0.81834058  -0.94511796
| 23> C   -1.03323489  -2.08464887  -1.60955070
| 24> H   -0.30983115  -1.96659394  -2.38728340
| 25> H   -1.94506370  -2.48047359  -2.05340230
| 26> H   -0.65491463  -2.84574042  -0.93678137
| 27> C   -1.94156797   0.09161697  -1.95699762
| 28> H   -2.08391905   1.09551600  -1.58011166
| 29> H   -2.91097328  -0.27869577  -2.28430967
| 30> H   -1.28729274   0.15751562  -2.81878253
| 31> C   -1.64648004  -1.22236829   1.45026017
| 32> C   -2.01011299  -2.17651111   2.38317819
| 33> C   -1.63511164  -2.00084539   3.70761983
| 34> C   -1.04898129  -0.77488086   4.06070627
| 35> C   -0.68761997   0.22597170   3.12854417
| 36> C   -0.88150613  -0.07806897   1.74794292
| 37> H   -0.80771228  -0.62056448   5.10152146
| 38> H   -0.44755627   1.24284976   3.48761764
| 39> H   -2.54609848  -3.05125820   2.04870704
| 40> H   -1.77160622  -2.85338101   4.37053275
| 41> H   -0.15279321   2.90613740   0.76649264
| 42> C   -2.34056651  -1.10625308   0.13963038
| 43> H   -3.06834912  -0.28158961   0.13417996
| 44> H   -2.91548865  -1.99615350  -0.10950584
| 45> O    1.40667200   0.35684740  -1.81248406
| 46> C    2.22506180  -0.56901217  -2.23830665
| 47> O    2.23220424  -1.69986192  -1.86324233
| 48> C    3.33585034  -0.14029283  -3.27050451
| 49> H    3.69682400  -1.02584744  -3.79438000
| 50> H    4.22932566   0.27161395  -2.77441057
| 51> H    3.03103133   0.58962445  -4.00710923
| 52> *
| 53>
| 54>                          ****END OF INPUT****

CARTESIAN COORDINATES (ANGSTROEM)
---------------------------------
  Pd     0.155362    0.194758   -0.038685
  O      1.520168    1.563477    0.705548
  C      1.550787    2.750645    0.507190
  O      0.411406    3.419657    0.118953
  C      2.695003    3.659347    0.645339
  H      2.424625    4.613993    1.088380
  H      3.150795    3.826586   -0.326052
  H      3.411897    3.153206    1.210739
  N     -1.365119   -0.818341   -0.945118
  C     -1.033235   -2.084649   -1.609551
  H     -0.309831   -1.966594   -2.387283
  H     -1.945064   -2.480474   -2.053402
  H     -0.654915   -2.845740   -0.936781
  C     -1.941568    0.091617   -1.956998
  H     -2.083919    1.095516   -1.580112
  H     -2.910973   -0.278696   -2.284310
  H     -1.287293    0.157516   -2.818783
  C     -1.646480   -1.222368    1.450260
  C     -2.010113   -2.176511    2.383178
  C     -1.635112   -2.000845    3.707620
  C     -1.048981   -0.774881    4.060706
  C     -0.687620    0.225972    3.128544
  C     -0.881506   -0.078069    1.747943
  H     -0.807712   -0.620564    5.101521
  H     -0.447556    1.242850    3.487618
  H     -2.546098   -3.051258    2.048707
  H     -1.771606   -2.853381    4.370533
  H     -0.152793    2.906137    0.766493
  C     -2.340567   -1.106253    0.139630
  H     -3.068349   -0.281590    0.134180
  H     -2.915489   -1.996153   -0.109506
  O      1.406672    0.356847   -1.812484
  C      2.225062   -0.569012   -2.238307
  O      2.232204   -1.699862   -1.863242
  C      3.335850   -0.140293   -3.270505
  H      3.696824   -1.025847   -3.794380
  H      4.229326    0.271614   -2.774411
  H      3.031031    0.589624   -4.007109

 Total Charge           Charge          ....    0
 Multiplicity           Mult            ....    1
 Number of Electrons    NEL             ....  154
 Basis Dimension        Dim             ....  339

ORBITAL ENERGIES
----------------

  NO   OCC          E(Eh)            E(eV)
   0   2.0000     -19.566383      -532.4283
   1   2.0000     -19.561490      -532.2952
   2   2.0000     -19.431750      -528.7648
   3   2.0000     -19.406822      -528.0865
   4   2.0000     -14.717758      -400.4905
   5   2.0000     -10.632017      -289.3119
   6   2.0000     -10.508596      -285.9534
   7   2.0000     -10.486257      -285.3455
   8   2.0000     -10.477803      -285.1155
   9   2.0000     -10.470408      -284.9143
  10   2.0000     -10.463612      -284.7294
  11   2.0000     -10.453129      -284.4441
  12   2.0000     -10.451269      -284.3935
  13   2.0000     -10.447127      -284.2808
  14   2.0000     -10.446554      -284.2652
  15   2.0000     -10.443087      -284.1708
  16   2.0000     -10.441631      -284.1312
  17   2.0000     -10.401057      -283.0272
  18   2.0000      -3.647649       -99.2576
  19   2.0000      -2.294995       -62.4500
  20   2.0000      -2.289602       -62.3032
  21   2.0000      -2.260039       -61.4988
  22   2.0000      -1.267885       -34.5009
  23   2.0000      -1.170037       -31.8383
  24   2.0000      -1.123208       -30.5641
  25   2.0000      -1.073346       -29.2072
  26   2.0000      -1.019217       -27.7343
  27   2.0000      -0.948347       -25.8058
  28   2.0000      -0.888474       -24.1766
  29   2.0000      -0.865212       -23.5436
  30   2.0000      -0.825686       -22.4681
  31   2.0000      -0.814341       -22.1594
  32   2.0000      -0.780811       -21.2469
  33   2.0000      -0.766452       -20.8562
  34   2.0000      -0.710968       -19.3464
  35   2.0000      -0.689697       -18.7676
  36   2.0000      -0.675454       -18.3800
  37   2.0000      -0.650375       -17.6976
  38   2.0000      -0.638837       -17.3836
  39   2.0000      -0.592831       -16.1317
  40   2.0000      -0.583992       -15.8912
  41   2.0000      -0.580607       -15.7991
  42   2.0000      -0.563940       -15.3456
  43   2.0000      -0.563254       -15.3269
  44   2.0000      -0.554283       -15.0828
  45   2.0000      -0.541560       -14.7366
  46   2.0000      -0.518063       -14.0972
  47   2.0000      -0.512509       -13.9461
  48   2.0000      -0.501601       -13.6493
  49   2.0000      -0.500658       -13.6236
  50   2.0000      -0.488212       -13.2849
  51   2.0000      -0.477591       -12.9959
  52   2.0000      -0.473844       -12.8940
  53   2.0000      -0.467012       -12.7080
  54   2.0000      -0.463125       -12.6023
  55   2.0000      -0.459584       -12.5059
  56   2.0000      -0.455529       -12.3956
  57   2.0000      -0.445650       -12.1267
  58   2.0000      -0.438557       -11.9337
  59   2.0000      -0.431017       -11.7286
  60   2.0000      -0.424069       -11.5395
  61   2.0000      -0.418904       -11.3990
  62   2.0000      -0.414455       -11.2779
  63   2.0000      -0.403279       -10.9738
  64   2.0000      -0.394408       -10.7324
  65   2.0000      -0.390459       -10.6249
  66   2.0000      -0.380302       -10.3485
  67   2.0000      -0.358795        -9.7633
  68   2.0000      -0.348334        -9.4786
  69   2.0000      -0.337533        -9.1847
  70   2.0000      -0.322313        -8.7706
  71   2.0000      -0.290430        -7.9030
  72   2.0000      -0.281973        -7.6729
  73   2.0000      -0.280682        -7.6378
  74   2.0000      -0.278514        -7.5788
  75   2.0000      -0.260574        -7.0906
  76   2.0000      -0.251330        -6.8390
  77   0.0000      -0.034765        -0.9460
  78   0.0000      -0.012597        -0.3428
  79   0.0000       0.011559         0.3145
  80   0.0000       0.018524         0.5041
  81   0.0000       0.042098         1.1456

MULLIKEN ATOMIC CHARGES
-----------------------
   0 Pd:    0.387505
   1 O :   -0.375867
   2 C :    0.603208
   3 O :   -0.574382
   4 C :   -0.750185
   5 H :    0.266779
   6 H :    0.291887
   7 H :    0.280446
   8 N :   -0.492108
   9 C :   -0.529660
  10 H :    0.299088
  11 H :    0.210898
  12 H :    0.280809
  13 C :   -0.538163
  14 H :    0.274743
  15 H :    0.230941
  16 H :    0.288515
  17 C :    0.107400
  18 C :   -0.267274
  19 C :   -0.224508
  20 C :   -0.231469
  21 C :   -0.300625
  22 C :   -0.148359
  23 H :    0.213954
  24 H :    0.199803
  25 H :    0.211243
  26 H :    0.218604
  27 H :    0.465656
  28 C :   -0.322253
  29 H :    0.262598
  30 H :    0.232146
  31 O :   -0.570723
  32 C :    0.522245
  33 O :   -0.442086
  34 C :   -0.748354
  35 H :    0.230055
  36 H :    0.219417
  37 H :    0.218076
Sum of atomic charges:   -0.0000000

LOEWDIN ATOMIC CHARGES
----------------------
   0 Pd:   -0.433849
   1 O :   -0.024669
   2 C :    0.222430
   3 O :   -0.299362
   4 C :   -0.372077
   5 H :    0.164441
   6 H :    0.183247
   7 H :    0.163373
   8 N :   -0.028705
   9 C :   -0.230550
  10 H :    0.162584
  11 H :    0.115642
  12 H :    0.156947
  13 C :   -0.229935
  14 H :    0.153262
  15 H :    0.124114
  16 H :    0.161570
  17 C :   -0.058828
  18 C :   -0.134666
  19 C :   -0.145429
  20 C :   -0.129911
  21 C :   -0.136611
  22 C :   -0.031992
  23 H :    0.134233
  24 H :    0.136296
  25 H :    0.134261
  26 H :    0.137906
  27 H :    0.364396
  28 C :   -0.094388
  29 H :    0.148527
  30 H :    0.128823
  31 O :   -0.279529
  32 C :    0.100562
  33 O :   -0.257635
  34 C :   -0.404774
  35 H :    0.135874
  36 H :    0.136858
  37 H :    0.127564

  Mayer bond orders larger than 0.100000
B(  0-Pd,  1-O ) :   0.3343 B(  0-Pd,  8-N ) :   0.4767 B(  0-Pd, 22-C ) :   0.8224
B(  0-Pd, 31-O ) :   0.4992 B(  1-O ,  2-C ) :   1.7893 B(  2-C ,  3-O ) :   1.1380
B(  2-C ,  4-C ) :   0.9686 B(  3-O , 27-H ) :   0.7236 B(  4-C ,  5-H ) :   0.9034
B(  4-C ,  6-H ) :   0.8830 B(  4-C ,  7-H ) :   0.8981 B(  8-N ,  9-C ) :   0.9164
B(  8-N , 13-C ) :   0.9141 B(  8-N , 28-C ) :   0.8619 B(  9-C , 10-H ) :   0.8863
B(  9-C , 11-H ) :   0.9034 B(  9-C , 12-H ) :   0.8994 B( 13-C , 14-H ) :   0.8976
B( 13-C , 15-H ) :   0.9009 B( 13-C , 16-H ) :   0.8906 B( 17-C , 18-C ) :   1.4367
B( 17-C , 22-C ) :   1.2810 B( 17-C , 28-C ) :   0.9708 B( 18-C , 19-C ) :   1.4137
B( 18-C , 25-H ) :   0.9174 B( 19-C , 20-C ) :   1.4371 B( 19-C , 26-H ) :   0.9185
B( 20-C , 21-C ) :   1.4147 B( 20-C , 23-H ) :   0.9195 B( 21-C , 22-C ) :   1.3964
B( 21-C , 24-H ) :   0.9265 B( 28-C , 29-H ) :   0.8944 B( 28-C , 30-H ) :   0.9071
B( 31-O , 32-C ) :   1.3281 B( 31-O , 33-O ) :   0.1036 B( 32-C , 33-O ) :   1.9007
B( 32-C , 34-C ) :   0.9073 B( 34-C , 35-H ) :   0.9227 B( 34-C , 36-H ) :   0.9247
B( 34-C , 37-H ) :   0.9195

Dispersion correction           -0.025999378
FINAL SINGLE POINT ENERGY      -988.474261329752
Dispersion correction            ... done

DIPOLE MOMENT
-------------
                                X             Y             Z
Electronic contribution:      3.81848      10.50028      -2.28882
Nuclear contribution   :     -5.13762      -8.84061       2.89267
                        -----------------------------------------
Total Dipole Moment    :     -1.31914       1.65967       0.60385
                        -----------------------------------------
Magnitude (a.u.)       :      2.20437
Magnitude (Debye)      :      5.60307

Rotational constants in cm-1:     0.013454     0.008861     0.006652
Rotational constants in MHz :   403.339604   265.640493   199.423716

                             ****ORCA TERMINATED NORMALLY****
TOTAL RUN TIME: 0 days 0 hours 8 minutes 17 seconds 751 msec
