                         Program Version 5.0.3 -  RELEASE  -
|  1> ! EnGrad PBEh-3c
|  2> %output
|  3> xyzfile=True
|  4> end
|  5> %scf
|  6> maxiter 250
|  7> end
|  8> %output
|  9> Print[P_Hirshfeld] = 1
| 10> end
| 11> % maxcore
| 12> 4000
| 13> *xyz 0 1
| 14> Pd   0.16455493   0.19591978  -0.08175411
| 15> O    1.44478887   1.60374632   0.78595730
| 16> C    1.55133456   2.76560693   0.45886475
| 17> O    0.39233110   3.51221575   0.20447236
| 18> C    2.67892186   3.71456947   0.64489999
| 19> H    2.40525105   4.67565962   1.08826396
| 20> H    3.07072697   3.82312634  -0.34396941
| 21> H    3.35303988   3.14490570   1.19957041
| 22> N   -1.38934471  -0.81160856  -0.96162260
| 23> C   -1.05086487  -2.05423795  -1.64010241
| 24> H   -0.33671157  -1.92010076  -2.41699679
| 25> H   -1.94336602  -2.42330406  -2.10594803
| 26> H   -0.66172472  -2.82666719  -0.99445674
| 27> C   -1.95869018   0.14270561  -1.93339355
| 28> H   -2.10515425   1.13930755  -1.52612984
| 29> H   -2.91642083  -0.21935753  -2.27512878
| 30> H   -1.31274590   0.22772625  -2.79706361
| 31> C   -1.63217223  -1.24860797   1.43409148
| 32> C   -1.94533410  -2.22165036   2.36350927
| 33> C   -1.59335697  -2.00411749   3.68435303
| 34> C   -1.02068703  -0.77200112   4.03291713
| 35> C   -0.69660845   0.21829594   3.08395529
| 36> C   -0.91033361  -0.07578844   1.71298228
| 37> H   -0.82337450  -0.57539575   5.08256172
| 38> H   -0.47872869   1.24213174   3.42550642
| 39> H   -2.48256464  -3.10246099   2.03430831
| 40> H   -1.65965750  -2.87081899   4.33593373
| 41> H   -0.03500335   2.74820505   0.72889911
| 42> C   -2.33928052  -1.12265803   0.14309599
| 43> H   -3.07615029  -0.31400347   0.16600928
| 44> H   -2.91067966  -2.00040682  -0.10502696
| 45> O    1.38960708   0.31651915  -1.78734682
| 46> C    2.23818508  -0.60193027  -2.17067972
| 47> O    2.26258314  -1.73852895  -1.76651584
| 48> C    3.33493797  -0.18773073  -3.22791699
| 49> H    3.69625935  -1.07580850  -3.75015575
| 50> H    4.23515530   0.22161529  -2.74800549
| 51> H    3.03729338   0.53718444  -3.98210858
| 52> *
| 53>
| 54>                          ****END OF INPUT****

CARTESIAN COORDINATES (ANGSTROEM)
---------------------------------
  Pd     0.164555    0.195920   -0.081754
  O      1.444789    1.603746    0.785957
  C      1.551335    2.765607    0.458865
  O      0.392331    3.512216    0.204472
  C      2.678922    3.714569    0.644900
  H      2.405251    4.675660    1.088264
  H      3.070727    3.823126   -0.343969
  H      3.353040    3.144906    1.199570
  N     -1.389345   -0.811609   -0.961623
  C     -1.050865   -2.054238   -1.640102
  H     -0.336712   -1.920101   -2.416997
  H     -1.943366   -2.423304   -2.105948
  H     -0.661725   -2.826667   -0.994457
  C     -1.958690    0.142706   -1.933394
  H     -2.105154    1.139308   -1.526130
  H     -2.916421   -0.219358   -2.275129
  H     -1.312746    0.227726   -2.797064
  C     -1.632172   -1.248608    1.434091
  C     -1.945334   -2.221650    2.363509
  C     -1.593357   -2.004117    3.684353
  C     -1.020687   -0.772001    4.032917
  C     -0.696608    0.218296    3.083955
  C     -0.910334   -0.075788    1.712982
  H     -0.823374   -0.575396    5.082562
  H     -0.478729    1.242132    3.425506
  H     -2.482565   -3.102461    2.034308
  H     -1.659658   -2.870819    4.335934
  H     -0.035003    2.748205    0.728899
  C     -2.339281   -1.122658    0.143096
  H     -3.076150   -0.314003    0.166009
  H     -2.910680   -2.000407   -0.105027
  O      1.389607    0.316519   -1.787347
  C      2.238185   -0.601930   -2.170680
  O      2.262583   -1.738529   -1.766516
  C      3.334938   -0.187731   -3.227917
  H      3.696259   -1.075808   -3.750156
  H      4.235155    0.221615   -2.748005
  H      3.037293    0.537184   -3.982109

 Total Charge           Charge          ....    0
 Multiplicity           Mult            ....    1
 Number of Electrons    NEL             ....  154
 Basis Dimension        Dim             ....  339

ORBITAL ENERGIES
----------------

  NO   OCC          E(Eh)            E(eV)
   0   2.0000     -19.566555      -532.4330
   1   2.0000     -19.566510      -532.4318
   2   2.0000     -19.443068      -529.0728
   3   2.0000     -19.412842      -528.2503
   4   2.0000     -14.718916      -400.5221
   5   2.0000     -10.639010      -289.5022
   6   2.0000     -10.517958      -286.2082
   7   2.0000     -10.483802      -285.2788
   8   2.0000     -10.479428      -285.1597
   9   2.0000     -10.472996      -284.9847
  10   2.0000     -10.462202      -284.6910
  11   2.0000     -10.448862      -284.3280
  12   2.0000     -10.447522      -284.2915
  13   2.0000     -10.446107      -284.2530
  14   2.0000     -10.444484      -284.2089
  15   2.0000     -10.441914      -284.1389
  16   2.0000     -10.441205      -284.1196
  17   2.0000     -10.407110      -283.1919
  18   2.0000      -3.648736       -99.2871
  19   2.0000      -2.295609       -62.4667
  20   2.0000      -2.291151       -62.3454
  21   2.0000      -2.261557       -61.5401
  22   2.0000      -1.271255       -34.5926
  23   2.0000      -1.163282       -31.6545
  24   2.0000      -1.124074       -30.5876
  25   2.0000      -1.075730       -29.2721
  26   2.0000      -1.026795       -27.9405
  27   2.0000      -0.949834       -25.8463
  28   2.0000      -0.890352       -24.2277
  29   2.0000      -0.867394       -23.6030
  30   2.0000      -0.826322       -22.4854
  31   2.0000      -0.819239       -22.2926
  32   2.0000      -0.781508       -21.2659
  33   2.0000      -0.770976       -20.9793
  34   2.0000      -0.712809       -19.3965
  35   2.0000      -0.676383       -18.4053
  36   2.0000      -0.674898       -18.3649
  37   2.0000      -0.650634       -17.7047
  38   2.0000      -0.630502       -17.1568
  39   2.0000      -0.597893       -16.2695
  40   2.0000      -0.584655       -15.9093
  41   2.0000      -0.578477       -15.7412
  42   2.0000      -0.568311       -15.4645
  43   2.0000      -0.566461       -15.4142
  44   2.0000      -0.562553       -15.3078
  45   2.0000      -0.543359       -14.7856
  46   2.0000      -0.529078       -14.3969
  47   2.0000      -0.513012       -13.9598
  48   2.0000      -0.500901       -13.6302
  49   2.0000      -0.498556       -13.5664
  50   2.0000      -0.492145       -13.3919
  51   2.0000      -0.479495       -13.0477
  52   2.0000      -0.474614       -12.9149
  53   2.0000      -0.468877       -12.7588
  54   2.0000      -0.466853       -12.7037
  55   2.0000      -0.462667       -12.5898
  56   2.0000      -0.456882       -12.4324
  57   2.0000      -0.450042       -12.2463
  58   2.0000      -0.441472       -12.0131
  59   2.0000      -0.430278       -11.7084
  60   2.0000      -0.424443       -11.5497
  61   2.0000      -0.418884       -11.3984
  62   2.0000      -0.416668       -11.3381
  63   2.0000      -0.404298       -11.0015
  64   2.0000      -0.395755       -10.7690
  65   2.0000      -0.392038       -10.6679
  66   2.0000      -0.380304       -10.3486
  67   2.0000      -0.361057        -9.8249
  68   2.0000      -0.350557        -9.5392
  69   2.0000      -0.336951        -9.1689
  70   2.0000      -0.323485        -8.8025
  71   2.0000      -0.293204        -7.9785
  72   2.0000      -0.285672        -7.7735
  73   2.0000      -0.284034        -7.7290
  74   2.0000      -0.280782        -7.6405
  75   2.0000      -0.265612        -7.2277
  76   2.0000      -0.252060        -6.8589
  77   0.0000      -0.041610        -1.1323
  78   0.0000      -0.016571        -0.4509
  79   0.0000       0.013063         0.3555
  80   0.0000       0.021523         0.5857
  81   0.0000       0.047473         1.2918

MULLIKEN ATOMIC CHARGES
-----------------------
   0 Pd:    0.386467
   1 O :   -0.405329
   2 C :    0.606767
   3 O :   -0.573730
   4 C :   -0.734774
   5 H :    0.278486
   6 H :    0.283537
   7 H :    0.276499
   8 N :   -0.490062
   9 C :   -0.533058
  10 H :    0.295845
  11 H :    0.215379
  12 H :    0.284757
  13 C :   -0.542082
  14 H :    0.277341
  15 H :    0.233474
  16 H :    0.288408
  17 C :    0.103558
  18 C :   -0.263758
  19 C :   -0.230741
  20 C :   -0.226958
  21 C :   -0.299319
  22 C :   -0.145889
  23 H :    0.214018
  24 H :    0.203020
  25 H :    0.210925
  26 H :    0.216797
  27 H :    0.460427
  28 C :   -0.324067
  29 H :    0.265437
  30 H :    0.234727
  31 O :   -0.575346
  32 C :    0.532378
  33 O :   -0.448941
  34 C :   -0.749532
  35 H :    0.234363
  36 H :    0.222233
  37 H :    0.218748
Sum of atomic charges:   -0.0000000

LOEWDIN ATOMIC CHARGES
----------------------
   0 Pd:   -0.441071
   1 O :   -0.052173
   2 C :    0.237861
   3 O :   -0.317170
   4 C :   -0.368509
   5 H :    0.171255
   6 H :    0.178970
   7 H :    0.163714
   8 N :   -0.026438
   9 C :   -0.232789
  10 H :    0.160340
  11 H :    0.116369
  12 H :    0.159183
  13 C :   -0.229286
  14 H :    0.155849
  15 H :    0.123791
  16 H :    0.161108
  17 C :   -0.059359
  18 C :   -0.135989
  19 C :   -0.143785
  20 C :   -0.130812
  21 C :   -0.134389
  22 C :   -0.038613
  23 H :    0.134877
  24 H :    0.136435
  25 H :    0.135068
  26 H :    0.137377
  27 H :    0.369790
  28 C :   -0.095189
  29 H :    0.149039
  30 H :    0.128555
  31 O :   -0.264724
  32 C :    0.117568
  33 O :   -0.266691
  34 C :   -0.404088
  35 H :    0.137910
  36 H :    0.137881
  37 H :    0.128134

  Mayer bond orders larger than 0.100000
B(  0-Pd,  1-O ) :   0.3132 B(  0-Pd,  8-N ) :   0.4830 B(  0-Pd, 22-C ) :   0.8027
B(  0-Pd, 31-O ) :   0.5143 B(  1-O ,  2-C ) :   1.7529 B(  2-C ,  3-O ) :   1.1457
B(  2-C ,  4-C ) :   0.9644 B(  3-O , 27-H ) :   0.7113 B(  4-C ,  5-H ) :   0.9030
B(  4-C ,  6-H ) :   0.8839 B(  4-C ,  7-H ) :   0.8995 B(  8-N ,  9-C ) :   0.9205
B(  8-N , 13-C ) :   0.9142 B(  8-N , 28-C ) :   0.8597 B(  9-C , 10-H ) :   0.8892
B(  9-C , 11-H ) :   0.9028 B(  9-C , 12-H ) :   0.8982 B( 13-C , 14-H ) :   0.8968
B( 13-C , 15-H ) :   0.9000 B( 13-C , 16-H ) :   0.8900 B( 17-C , 18-C ) :   1.4383
B( 17-C , 22-C ) :   1.2852 B( 17-C , 28-C ) :   0.9731 B( 18-C , 19-C ) :   1.4140
B( 18-C , 25-H ) :   0.9179 B( 19-C , 20-C ) :   1.4343 B( 19-C , 26-H ) :   0.9186
B( 20-C , 21-C ) :   1.4186 B( 20-C , 23-H ) :   0.9196 B( 21-C , 22-C ) :   1.4023
B( 21-C , 24-H ) :   0.9242 B( 28-C , 29-H ) :   0.8945 B( 28-C , 30-H ) :   0.9067
B( 31-O , 32-C ) :   1.3086 B( 31-O , 33-O ) :   0.1039 B( 32-C , 33-O ) :   1.8931
B( 32-C , 34-C ) :   0.9104 B( 34-C , 35-H ) :   0.9214 B( 34-C , 36-H ) :   0.9227
B( 34-C , 37-H ) :   0.9188

Dispersion correction           -0.026069780
FINAL SINGLE POINT ENERGY      -988.448556259851
Dispersion correction            ... done

DIPOLE MOMENT
-------------
                                X             Y             Z
Electronic contribution:      4.52345      10.34870      -5.13100
Nuclear contribution   :     -5.70429      -8.83446       5.42480
                        -----------------------------------------
Total Dipole Moment    :     -1.18084       1.51424       0.29380
                        -----------------------------------------
Magnitude (a.u.)       :      1.94259
Magnitude (Debye)      :      4.93766

Rotational constants in cm-1:     0.013214     0.008946     0.006709
Rotational constants in MHz :   396.140296   268.181708   201.138323

                             ****ORCA TERMINATED NORMALLY****
TOTAL RUN TIME: 0 days 0 hours 8 minutes 12 seconds 408 msec
