                         Program Version 5.0.3 -  RELEASE  -
|  1> ! EnGrad PBEh-3c
|  2> %output
|  3> xyzfile=True
|  4> end
|  5> %scf
|  6> maxiter 250
|  7> end
|  8> %output
|  9> Print[P_Hirshfeld] = 1
| 10> end
| 11> % maxcore
| 12> 4000
| 13> *xyz 0 1
| 14> Pd   0.18439741   0.21745810  -0.07963274
| 15> O    1.47224689   1.60398851   0.80753369
| 16> C    1.55810819   2.78499317   0.43560839
| 17> O    0.35790852   3.46021282   0.27416771
| 18> C    2.69489923   3.70935778   0.63825545
| 19> H    2.40695042   4.67889650   1.08782798
| 20> H    3.06747162   3.82807541  -0.35552510
| 21> H    3.38243436   3.13388220   1.22288962
| 22> N   -1.39411746  -0.81795798  -0.96614422
| 23> C   -1.04813060  -2.06725384  -1.64045678
| 24> H   -0.32207391  -1.91584842  -2.41561993
| 25> H   -1.94617249  -2.42964379  -2.10910054
| 26> H   -0.65673800  -2.81925624  -0.97391370
| 27> C   -1.95895069   0.13628953  -1.93848134
| 28> H   -2.10374037   1.13662000  -1.52248120
| 29> H   -2.91805455  -0.22961064  -2.28182974
| 30> H   -1.30514812   0.21853467  -2.79901384
| 31> C   -1.65959746  -1.22382510   1.43643780
| 32> C   -1.94529288  -2.21435361   2.35680879
| 33> C   -1.58554172  -2.00145685   3.67756489
| 34> C   -1.01696063  -0.77746700   4.03418566
| 35> C   -0.71219140   0.19876800   3.06444075
| 36> C   -0.89460806  -0.08749578   1.70438175
| 37> H   -0.82645959  -0.56935301   5.08468413
| 38> H   -0.45153377   1.19803253   3.40919618
| 39> H   -2.49919673  -3.09999371   2.04303087
| 40> H   -1.66715768  -2.83949754   4.34448823
| 41> H   -0.05460164   2.79533519   0.66497086
| 42> C   -2.34267067  -1.12615915   0.13085776
| 43> H   -3.06775022  -0.31627253   0.17855240
| 44> H   -2.91927736  -2.00583896  -0.10897073
| 45> O    1.38990760   0.32210652  -1.79683708
| 46> C    2.24431435  -0.59479126  -2.15329394
| 47> O    2.26680490  -1.74053203  -1.75596403
| 48> C    3.32115976  -0.18387943  -3.22142105
| 49> H    3.68303920  -1.06998915  -3.75253177
| 50> H    4.21756590   0.22531868  -2.74601786
| 51> H    3.02145493   0.54663346  -3.98268641
| 52> *
| 53>
| 54>                          ****END OF INPUT****

CARTESIAN COORDINATES (ANGSTROEM)
---------------------------------
  Pd     0.184397    0.217458   -0.079633
  O      1.472247    1.603989    0.807534
  C      1.558108    2.784993    0.435608
  O      0.357909    3.460213    0.274168
  C      2.694899    3.709358    0.638255
  H      2.406950    4.678896    1.087828
  H      3.067472    3.828075   -0.355525
  H      3.382434    3.133882    1.222890
  N     -1.394117   -0.817958   -0.966144
  C     -1.048131   -2.067254   -1.640457
  H     -0.322074   -1.915848   -2.415620
  H     -1.946172   -2.429644   -2.109101
  H     -0.656738   -2.819256   -0.973914
  C     -1.958951    0.136290   -1.938481
  H     -2.103740    1.136620   -1.522481
  H     -2.918055   -0.229611   -2.281830
  H     -1.305148    0.218535   -2.799014
  C     -1.659597   -1.223825    1.436438
  C     -1.945293   -2.214354    2.356809
  C     -1.585542   -2.001457    3.677565
  C     -1.016961   -0.777467    4.034186
  C     -0.712191    0.198768    3.064441
  C     -0.894608   -0.087496    1.704382
  H     -0.826460   -0.569353    5.084684
  H     -0.451534    1.198033    3.409196
  H     -2.499197   -3.099994    2.043031
  H     -1.667158   -2.839498    4.344488
  H     -0.054602    2.795335    0.664971
  C     -2.342671   -1.126159    0.130858
  H     -3.067750   -0.316273    0.178552
  H     -2.919277   -2.005839   -0.108971
  O      1.389908    0.322107   -1.796837
  C      2.244314   -0.594791   -2.153294
  O      2.266805   -1.740532   -1.755964
  C      3.321160   -0.183879   -3.221421
  H      3.683039   -1.069989   -3.752532
  H      4.217566    0.225319   -2.746018
  H      3.021455    0.546633   -3.982686

 Total Charge           Charge          ....    0
 Multiplicity           Mult            ....    1
 Number of Electrons    NEL             ....  154
 Basis Dimension        Dim             ....  339

ORBITAL ENERGIES
----------------

  NO   OCC          E(Eh)            E(eV)
   0   2.0000     -19.564762      -532.3842
   1   2.0000     -19.561560      -532.2971
   2   2.0000     -19.444164      -529.1026
   3   2.0000     -19.412151      -528.2315
   4   2.0000     -14.715916      -400.4404
   5   2.0000     -10.643791      -289.6323
   6   2.0000     -10.517819      -286.2044
   7   2.0000     -10.481972      -285.2290
   8   2.0000     -10.480810      -285.1973
   9   2.0000     -10.479662      -285.1661
  10   2.0000     -10.462630      -284.7026
  11   2.0000     -10.442986      -284.1681
  12   2.0000     -10.442541      -284.1560
  13   2.0000     -10.442158      -284.1456
  14   2.0000     -10.441578      -284.1298
  15   2.0000     -10.439469      -284.0724
  16   2.0000     -10.437064      -284.0069
  17   2.0000     -10.406492      -283.1750
  18   2.0000      -3.647218       -99.2459
  19   2.0000      -2.293339       -62.4049
  20   2.0000      -2.289852       -62.3100
  21   2.0000      -2.260254       -61.5046
  22   2.0000      -1.281786       -34.8792
  23   2.0000      -1.173849       -31.9421
  24   2.0000      -1.122348       -30.5406
  25   2.0000      -1.073333       -29.2069
  26   2.0000      -1.027826       -27.9686
  27   2.0000      -0.949802       -25.8454
  28   2.0000      -0.898007       -24.4360
  29   2.0000      -0.866092       -23.5675
  30   2.0000      -0.824691       -22.4410
  31   2.0000      -0.816937       -22.2300
  32   2.0000      -0.781064       -21.2538
  33   2.0000      -0.770799       -20.9745
  34   2.0000      -0.709881       -19.3168
  35   2.0000      -0.700478       -19.0610
  36   2.0000      -0.672828       -18.3086
  37   2.0000      -0.648308       -17.6414
  38   2.0000      -0.640761       -17.4360
  39   2.0000      -0.593597       -16.1526
  40   2.0000      -0.583660       -15.8822
  41   2.0000      -0.578484       -15.7413
  42   2.0000      -0.567921       -15.4539
  43   2.0000      -0.564826       -15.3697
  44   2.0000      -0.561448       -15.2778
  45   2.0000      -0.541525       -14.7356
  46   2.0000      -0.528925       -14.3928
  47   2.0000      -0.511784       -13.9264
  48   2.0000      -0.506560       -13.7842
  49   2.0000      -0.497648       -13.5417
  50   2.0000      -0.491883       -13.3848
  51   2.0000      -0.478729       -13.0269
  52   2.0000      -0.477475       -12.9927
  53   2.0000      -0.468507       -12.7487
  54   2.0000      -0.465239       -12.6598
  55   2.0000      -0.463769       -12.6198
  56   2.0000      -0.454499       -12.3675
  57   2.0000      -0.449035       -12.2189
  58   2.0000      -0.441286       -12.0080
  59   2.0000      -0.433013       -11.7829
  60   2.0000      -0.428151       -11.6506
  61   2.0000      -0.420382       -11.4392
  62   2.0000      -0.415636       -11.3100
  63   2.0000      -0.403933       -10.9916
  64   2.0000      -0.394904       -10.7459
  65   2.0000      -0.390853       -10.6357
  66   2.0000      -0.375273       -10.2117
  67   2.0000      -0.360099        -9.7988
  68   2.0000      -0.348208        -9.4752
  69   2.0000      -0.338025        -9.1981
  70   2.0000      -0.322319        -8.7707
  71   2.0000      -0.292634        -7.9630
  72   2.0000      -0.285235        -7.7616
  73   2.0000      -0.283625        -7.7178
  74   2.0000      -0.277269        -7.5449
  75   2.0000      -0.265212        -7.2168
  76   2.0000      -0.251351        -6.8396
  77   0.0000      -0.046230        -1.2580
  78   0.0000      -0.023067        -0.6277
  79   0.0000       0.016446         0.4475
  80   0.0000       0.026153         0.7117
  81   0.0000       0.052496         1.4285

MULLIKEN ATOMIC CHARGES
-----------------------
   0 Pd:    0.373494
   1 O :   -0.425372
   2 C :    0.620161
   3 O :   -0.570336
   4 C :   -0.734422
   5 H :    0.277603
   6 H :    0.282235
   7 H :    0.283221
   8 N :   -0.482906
   9 C :   -0.527329
  10 H :    0.292969
  11 H :    0.212924
  12 H :    0.283837
  13 C :   -0.536925
  14 H :    0.271659
  15 H :    0.231694
  16 H :    0.286185
  17 C :    0.104050
  18 C :   -0.261433
  19 C :   -0.235416
  20 C :   -0.218423
  21 C :   -0.309383
  22 C :   -0.135051
  23 H :    0.212675
  24 H :    0.202798
  25 H :    0.207115
  26 H :    0.216059
  27 H :    0.474864
  28 C :   -0.327587
  29 H :    0.265608
  30 H :    0.234176
  31 O :   -0.573307
  32 C :    0.537134
  33 O :   -0.455550
  34 C :   -0.749722
  35 H :    0.234060
  36 H :    0.222481
  37 H :    0.216158
Sum of atomic charges:    0.0000000

LOEWDIN ATOMIC CHARGES
----------------------
   0 Pd:   -0.434440
   1 O :   -0.073184
   2 C :    0.265348
   3 O :   -0.283471
   4 C :   -0.364540
   5 H :    0.172694
   6 H :    0.178431
   7 H :    0.172009
   8 N :   -0.031306
   9 C :   -0.230387
  10 H :    0.160613
  11 H :    0.115903
  12 H :    0.159131
  13 C :   -0.229289
  14 H :    0.154235
  15 H :    0.122940
  16 H :    0.160154
  17 C :   -0.055490
  18 C :   -0.139269
  19 C :   -0.142158
  20 C :   -0.135710
  21 C :   -0.130940
  22 C :   -0.041489
  23 H :    0.134856
  24 H :    0.134671
  25 H :    0.134729
  26 H :    0.135084
  27 H :    0.328557
  28 C :   -0.100342
  29 H :    0.149713
  30 H :    0.128887
  31 O :   -0.260570
  32 C :    0.118659
  33 O :   -0.273410
  34 C :   -0.403524
  35 H :    0.137712
  36 H :    0.137483
  37 H :    0.127707

  Mayer bond orders larger than 0.100000
B(  0-Pd,  1-O ) :   0.3349 B(  0-Pd,  8-N ) :   0.4715 B(  0-Pd, 22-C ) :   0.8129
B(  0-Pd, 31-O ) :   0.5106 B(  1-O ,  2-C ) :   1.7143 B(  2-C ,  3-O ) :   1.1686
B(  2-C ,  4-C ) :   0.9651 B(  3-O , 27-H ) :   0.7121 B(  4-C ,  5-H ) :   0.9005
B(  4-C ,  6-H ) :   0.8830 B(  4-C ,  7-H ) :   0.8982 B(  8-N ,  9-C ) :   0.9195
B(  8-N , 13-C ) :   0.9162 B(  8-N , 28-C ) :   0.8653 B(  9-C , 10-H ) :   0.8905
B(  9-C , 11-H ) :   0.9035 B(  9-C , 12-H ) :   0.8985 B( 13-C , 14-H ) :   0.8990
B( 13-C , 15-H ) :   0.9004 B( 13-C , 16-H ) :   0.8907 B( 17-C , 18-C ) :   1.4388
B( 17-C , 22-C ) :   1.2832 B( 17-C , 28-C ) :   0.9730 B( 18-C , 19-C ) :   1.4105
B( 18-C , 25-H ) :   0.9203 B( 19-C , 20-C ) :   1.4447 B( 19-C , 26-H ) :   0.9182
B( 20-C , 21-C ) :   1.4130 B( 20-C , 23-H ) :   0.9199 B( 21-C , 22-C ) :   1.4133
B( 21-C , 24-H ) :   0.9237 B( 28-C , 29-H ) :   0.8953 B( 28-C , 30-H ) :   0.9069
B( 31-O , 32-C ) :   1.3142 B( 31-O , 33-O ) :   0.1049 B( 32-C , 33-O ) :   1.8864
B( 32-C , 34-C ) :   0.9112 B( 34-C , 35-H ) :   0.9217 B( 34-C , 36-H ) :   0.9217
B( 34-C , 37-H ) :   0.9201

Dispersion correction           -0.026080139
FINAL SINGLE POINT ENERGY      -988.457728882022
Dispersion correction            ... done

DIPOLE MOMENT
-------------
                                X             Y             Z
Electronic contribution:      5.63889      11.77411      -5.15760
Nuclear contribution   :     -6.76979     -10.03521       5.37630
                        -----------------------------------------
Total Dipole Moment    :     -1.13089       1.73890       0.21869
                        -----------------------------------------
Magnitude (a.u.)       :      2.08579
Magnitude (Debye)      :      5.30166

Rotational constants in cm-1:     0.013228     0.008966     0.006721
Rotational constants in MHz :   396.579358   268.785177   201.487979

                             ****ORCA TERMINATED NORMALLY****
TOTAL RUN TIME: 0 days 0 hours 7 minutes 56 seconds 379 msec
