                         Program Version 5.0.3 -  RELEASE  -
|  1> ! EnGrad PBEh-3c
|  2> %output
|  3> xyzfile=True
|  4> end
|  5> %scf
|  6> maxiter 250
|  7> end
|  8> %output
|  9> Print[P_Hirshfeld] = 1
| 10> end
| 11> % maxcore
| 12> 4000
| 13> *xyz 0 1
| 14> Pd   0.36096460   0.17622491  -0.11423658
| 15> O    1.93434539   1.29658725   0.64844923
| 16> C    1.78030225   2.59556489   0.42012972
| 17> O    0.70377574   3.02194530  -0.10456046
| 18> C    2.95953953   3.50116280   0.69531189
| 19> H    2.60078363   4.43491750   1.13744434
| 20> H    3.41367056   3.76431946  -0.26060202
| 21> H    3.70112817   3.05625515   1.32139685
| 22> N   -1.27564271  -0.96221915  -0.93080958
| 23> C   -0.88870463  -2.33214965  -1.28657581
| 24> H   -0.11008680  -2.33755244  -2.00897187
| 25> H   -1.73748881  -2.85351795  -1.73234022
| 26> H   -0.54794768  -2.86000473  -0.39850678
| 27> C   -1.79740727  -0.29386781  -2.13104022
| 28> H   -1.93936484   0.75868335  -1.95412600
| 29> H   -2.74133555  -0.75174647  -2.42463926
| 30> H   -1.10994630  -0.43118746  -2.95858700
| 31> C   -1.84869330  -1.09628882   1.50054613
| 32> C   -2.43086143  -1.92152489   2.47768621
| 33> C   -2.04984515  -1.80151932   3.81687138
| 34> C   -1.08575355  -0.89536927   4.17141353
| 35> C   -0.53108190  -0.04675505   3.21697965
| 36> C   -0.87542562  -0.15620347   1.83572647
| 37> H   -0.79740087  -0.77814118   5.21594754
| 38> H    0.10831786   0.69312515   3.59188696
| 39> H   -3.23493494  -2.57658856   2.24249855
| 40> H   -2.53924348  -2.38780552   4.57002950
| 41> H   -0.78800215   3.90340872   0.75073692
| 42> C   -2.36527953  -1.02314303   0.12209488
| 43> H   -2.96805028  -0.12064066   0.02927900
| 44> H   -3.04353625  -1.84893676  -0.09127057
| 45> O    1.39204835   0.64545122  -1.92753852
| 46> C    2.15145124  -0.27633846  -2.45519594
| 47> O    2.15581321  -1.43585338  -2.15326081
| 48> C    3.14657060   0.24631045  -3.53262158
| 49> H    3.51546964  -0.57467349  -4.13629229
| 50> H    4.00770289   0.65147588  -2.98637557
| 51> H    2.77483769   1.01998023  -4.17747341
| 52> *
| 53>
| 54>                          ****END OF INPUT****

CARTESIAN COORDINATES (ANGSTROEM)
---------------------------------
  Pd     0.360965    0.176225   -0.114237
  O      1.934345    1.296587    0.648449
  C      1.780302    2.595565    0.420130
  O      0.703776    3.021945   -0.104560
  C      2.959540    3.501163    0.695312
  H      2.600784    4.434917    1.137444
  H      3.413671    3.764319   -0.260602
  H      3.701128    3.056255    1.321397
  N     -1.275643   -0.962219   -0.930810
  C     -0.888705   -2.332150   -1.286576
  H     -0.110087   -2.337552   -2.008972
  H     -1.737489   -2.853518   -1.732340
  H     -0.547948   -2.860005   -0.398507
  C     -1.797407   -0.293868   -2.131040
  H     -1.939365    0.758683   -1.954126
  H     -2.741336   -0.751746   -2.424639
  H     -1.109946   -0.431187   -2.958587
  C     -1.848693   -1.096289    1.500546
  C     -2.430861   -1.921525    2.477686
  C     -2.049845   -1.801519    3.816871
  C     -1.085754   -0.895369    4.171414
  C     -0.531082   -0.046755    3.216980
  C     -0.875426   -0.156203    1.835726
  H     -0.797401   -0.778141    5.215948
  H      0.108318    0.693125    3.591887
  H     -3.234935   -2.576589    2.242499
  H     -2.539243   -2.387806    4.570030
  H     -0.788002    3.903409    0.750737
  C     -2.365280   -1.023143    0.122095
  H     -2.968050   -0.120641    0.029279
  H     -3.043536   -1.848937   -0.091271
  O      1.392048    0.645451   -1.927539
  C      2.151451   -0.276338   -2.455196
  O      2.155813   -1.435853   -2.153261
  C      3.146571    0.246310   -3.532622
  H      3.515470   -0.574673   -4.136292
  H      4.007703    0.651476   -2.986376
  H      2.774838    1.019980   -4.177473

 Total Charge           Charge          ....    0
 Multiplicity           Mult            ....    1
 Number of Electrons    NEL             ....  154
 Basis Dimension        Dim             ....  339

ORBITAL ENERGIES
----------------

  NO   OCC          E(Eh)            E(eV)
   0   2.0000     -19.536015      -531.6020
   1   2.0000     -19.529007      -531.4113
   2   2.0000     -19.444580      -529.1139
   3   2.0000     -19.416948      -528.3620
   4   2.0000     -14.714333      -400.3974
   5   2.0000     -10.598420      -288.3977
   6   2.0000     -10.514631      -286.1177
   7   2.0000     -10.487274      -285.3732
   8   2.0000     -10.472892      -284.9819
   9   2.0000     -10.460764      -284.6519
  10   2.0000     -10.458577      -284.5923
  11   2.0000     -10.455373      -284.5052
  12   2.0000     -10.455264      -284.5022
  13   2.0000     -10.448586      -284.3205
  14   2.0000     -10.443889      -284.1927
  15   2.0000     -10.443574      -284.1841
  16   2.0000     -10.442935      -284.1667
  17   2.0000     -10.402428      -283.0644
  18   2.0000      -3.650437       -99.3334
  19   2.0000      -2.297257       -62.5115
  20   2.0000      -2.288659       -62.2776
  21   2.0000      -2.263326       -61.5882
  22   2.0000      -1.191128       -32.4122
  23   2.0000      -1.130396       -30.7596
  24   2.0000      -1.090631       -29.6776
  25   2.0000      -1.064008       -28.9531
  26   2.0000      -1.030082       -28.0300
  27   2.0000      -0.952890       -25.9295
  28   2.0000      -0.872742       -23.7485
  29   2.0000      -0.843025       -22.9399
  30   2.0000      -0.824456       -22.4346
  31   2.0000      -0.811175       -22.0732
  32   2.0000      -0.783958       -21.3326
  33   2.0000      -0.775750       -21.1092
  34   2.0000      -0.707869       -19.2621
  35   2.0000      -0.681598       -18.5472
  36   2.0000      -0.645806       -17.5733
  37   2.0000      -0.632700       -17.2166
  38   2.0000      -0.585282       -15.9263
  39   2.0000      -0.564350       -15.3567
  40   2.0000      -0.561806       -15.2875
  41   2.0000      -0.560064       -15.2401
  42   2.0000      -0.555791       -15.1239
  43   2.0000      -0.544219       -14.8089
  44   2.0000      -0.539593       -14.6831
  45   2.0000      -0.527560       -14.3556
  46   2.0000      -0.515483       -14.0270
  47   2.0000      -0.503555       -13.7024
  48   2.0000      -0.489372       -13.3165
  49   2.0000      -0.477348       -12.9893
  50   2.0000      -0.476133       -12.9562
  51   2.0000      -0.472126       -12.8472
  52   2.0000      -0.470793       -12.8109
  53   2.0000      -0.466699       -12.6995
  54   2.0000      -0.452973       -12.3260
  55   2.0000      -0.449610       -12.2345
  56   2.0000      -0.446195       -12.1416
  57   2.0000      -0.437465       -11.9040
  58   2.0000      -0.428661       -11.6645
  59   2.0000      -0.420182       -11.4337
  60   2.0000      -0.411407       -11.1950
  61   2.0000      -0.406677       -11.0663
  62   2.0000      -0.401078       -10.9139
  63   2.0000      -0.393839       -10.7169
  64   2.0000      -0.378631       -10.3031
  65   2.0000      -0.365325        -9.9410
  66   2.0000      -0.353386        -9.6161
  67   2.0000      -0.350331        -9.5330
  68   2.0000      -0.338637        -9.2148
  69   2.0000      -0.331380        -9.0173
  70   2.0000      -0.327788        -8.9196
  71   2.0000      -0.289302        -7.8723
  72   2.0000      -0.286140        -7.7863
  73   2.0000      -0.284456        -7.7404
  74   2.0000      -0.281146        -7.6504
  75   2.0000      -0.268090        -7.2951
  76   2.0000      -0.259851        -7.0709
  77   0.0000      -0.184522        -5.0211
  78   0.0000      -0.046607        -1.2682
  79   0.0000       0.016244         0.4420
  80   0.0000       0.018239         0.4963
  81   0.0000       0.027796         0.7564

MULLIKEN ATOMIC CHARGES
-----------------------
   0 Pd:    0.395122
   1 O :   -0.452040
   2 C :    0.627520
   3 O :   -0.411962
   4 C :   -0.740493
   5 H :    0.237646
   6 H :    0.271897
   7 H :    0.269680
   8 N :   -0.476171
   9 C :   -0.538452
  10 H :    0.311249
  11 H :    0.210277
  12 H :    0.271454
  13 C :   -0.519209
  14 H :    0.271582
  15 H :    0.221850
  16 H :    0.277848
  17 C :    0.069486
  18 C :   -0.256158
  19 C :   -0.228289
  20 C :   -0.201721
  21 C :   -0.301672
  22 C :   -0.095324
  23 H :    0.217451
  24 H :    0.223993
  25 H :    0.208673
  26 H :    0.220173
  27 H :    0.264694
  28 C :   -0.329478
  29 H :    0.266660
  30 H :    0.231501
  31 O :   -0.545828
  32 C :    0.533657
  33 O :   -0.447107
  34 C :   -0.744666
  35 H :    0.230922
  36 H :    0.226390
  37 H :    0.228843
Sum of atomic charges:   -0.0000000

LOEWDIN ATOMIC CHARGES
----------------------
   0 Pd:   -0.367514
   1 O :   -0.113585
   2 C :    0.209734
   3 O :   -0.188374
   4 C :   -0.376157
   5 H :    0.148764
   6 H :    0.169070
   7 H :    0.155562
   8 N :   -0.042798
   9 C :   -0.238005
  10 H :    0.165292
  11 H :    0.115886
  12 H :    0.154794
  13 C :   -0.230972
  14 H :    0.151874
  15 H :    0.120484
  16 H :    0.156804
  17 C :   -0.067270
  18 C :   -0.135413
  19 C :   -0.135126
  20 C :   -0.136157
  21 C :   -0.121440
  22 C :   -0.020022
  23 H :    0.135619
  24 H :    0.139677
  25 H :    0.133819
  26 H :    0.135586
  27 H :    0.273062
  28 C :   -0.103054
  29 H :    0.151869
  30 H :    0.129473
  31 O :   -0.243516
  32 C :    0.111063
  33 O :   -0.256318
  34 C :   -0.396239
  35 H :    0.135895
  36 H :    0.143875
  37 H :    0.133760

  Mayer bond orders larger than 0.100000
B(  0-Pd,  1-O ) :   0.5025 B(  0-Pd,  3-O ) :   0.1044 B(  0-Pd,  8-N ) :   0.4426
B(  0-Pd, 22-C ) :   0.6932 B(  0-Pd, 27-H ) :   0.1823 B(  0-Pd, 31-O ) :   0.5390
B(  1-O ,  2-C ) :   1.4321 B(  1-O , 27-H ) :   0.1301 B(  2-C ,  3-O ) :   1.4909
B(  2-C ,  4-C ) :   0.9575 B(  3-O , 27-H ) :   0.4325 B(  4-C ,  5-H ) :   0.9110
B(  4-C ,  6-H ) :   0.8960 B(  4-C ,  7-H ) :   0.9026 B(  8-N ,  9-C ) :   0.9199
B(  8-N , 13-C ) :   0.9211 B(  8-N , 28-C ) :   0.8807 B(  9-C , 10-H ) :   0.8698
B(  9-C , 11-H ) :   0.9051 B(  9-C , 12-H ) :   0.9023 B( 13-C , 14-H ) :   0.9027
B( 13-C , 15-H ) :   0.9020 B( 13-C , 16-H ) :   0.8983 B( 17-C , 18-C ) :   1.3988
B( 17-C , 22-C ) :   1.3306 B( 17-C , 28-C ) :   0.9738 B( 18-C , 19-C ) :   1.4372
B( 18-C , 25-H ) :   0.9201 B( 19-C , 20-C ) :   1.4292 B( 19-C , 26-H ) :   0.9163
B( 20-C , 21-C ) :   1.4269 B( 20-C , 23-H ) :   0.9164 B( 21-C , 22-C ) :   1.3928
B( 21-C , 24-H ) :   0.9163 B( 22-C , 27-H ) :   0.1074 B( 28-C , 29-H ) :   0.8952
B( 28-C , 30-H ) :   0.9065 B( 31-O , 32-C ) :   1.3080 B( 31-O , 33-O ) :   0.1028
B( 32-C , 33-O ) :   1.8819 B( 32-C , 34-C ) :   0.9169 B( 34-C , 35-H ) :   0.9211
B( 34-C , 36-H ) :   0.9211 B( 34-C , 37-H ) :   0.9176

Dispersion correction           -0.026061902
FINAL SINGLE POINT ENERGY      -988.298983017670
Dispersion correction            ... done

DIPOLE MOMENT
-------------
                                X             Y             Z
Electronic contribution:     13.70030       9.67752      -5.50618
Nuclear contribution   :    -15.52478      -8.18580       6.25459
                        -----------------------------------------
Total Dipole Moment    :     -1.82448       1.49171       0.74841
                        -----------------------------------------
Magnitude (a.u.)       :      2.47266
Magnitude (Debye)      :      6.28501

Rotational constants in cm-1:     0.014719     0.008337     0.006253
Rotational constants in MHz :   441.265527   249.949945   187.455552

                             ****ORCA TERMINATED NORMALLY****
TOTAL RUN TIME: 0 days 0 hours 15 minutes 20 seconds 704 msec
