                         Program Version 5.0.3 -  RELEASE  -
|  1> ! EnGrad PBEh-3c
|  2> %output
|  3> xyzfile=True
|  4> end
|  5> %scf
|  6> maxiter 250
|  7> end
|  8> %output
|  9> Print[P_Hirshfeld] = 1
| 10> end
| 11> % maxcore
| 12> 4000
| 13> *xyz 0 1
| 14> Pd   0.18022955   0.21899769  -0.07248371
| 15> O    1.49188853   1.62434294   0.79658383
| 16> C    1.53506149   2.79421094   0.46186134
| 17> O    0.39670928   3.47177005   0.26833919
| 18> C    2.69418438   3.70046594   0.63291080
| 19> H    2.41105516   4.67178464   1.08461574
| 20> H    3.07789002   3.83489329  -0.36335303
| 21> H    3.39705929   3.13360856   1.22974699
| 22> N   -1.38666023  -0.81334377  -0.96050897
| 23> C   -1.04563028  -2.06973041  -1.63876845
| 24> H   -0.31185951  -1.91771219  -2.41296824
| 25> H   -1.94981096  -2.44026531  -2.10992814
| 26> H   -0.65463032  -2.81975550  -0.96020858
| 27> C   -1.95751289   0.12944161  -1.94147103
| 28> H   -2.10136941   1.13049748  -1.52558630
| 29> H   -2.92170911  -0.23662456  -2.28766443
| 30> H   -1.29996425   0.21049351  -2.80137873
| 31> C   -1.66826856  -1.22317464   1.43489627
| 32> C   -1.95633428  -2.20805495   2.35553849
| 33> C   -1.58091703  -1.99883987   3.67494817
| 34> C   -1.02130120  -0.77986309   4.03370383
| 35> C   -0.71163528   0.18967890   3.05965919
| 36> C   -0.88342023  -0.09255511   1.70342645
| 37> H   -0.82532976  -0.56955342   5.08242097
| 38> H   -0.43412051   1.18451384   3.40454231
| 39> H   -2.51115564  -3.09533214   2.04840534
| 40> H   -1.67996158  -2.83178667   4.35408744
| 41> H   -0.09317632   2.77584413   0.66465304
| 42> C   -2.34479165  -1.12608047   0.12185306
| 43> H   -3.06572254  -0.31123936   0.18130713
| 44> H   -2.92737267  -2.01082154  -0.11191500
| 45> O    1.39262519   0.32455345  -1.80145187
| 46> C    2.24450082  -0.58749432  -2.15770925
| 47> O    2.27210557  -1.73860517  -1.74353290
| 48> C    3.31455512  -0.17933749  -3.22159346
| 49> H    3.67432860  -1.06356831  -3.75633624
| 50> H    4.21209206   0.23136332  -2.74920796
| 51> H    3.00964388   0.55204355  -3.98104777
| 52> *
| 53>
| 54>                          ****END OF INPUT****

CARTESIAN COORDINATES (ANGSTROEM)
---------------------------------
  Pd     0.180230    0.218998   -0.072484
  O      1.491889    1.624343    0.796584
  C      1.535061    2.794211    0.461861
  O      0.396709    3.471770    0.268339
  C      2.694184    3.700466    0.632911
  H      2.411055    4.671785    1.084616
  H      3.077890    3.834893   -0.363353
  H      3.397059    3.133609    1.229747
  N     -1.386660   -0.813344   -0.960509
  C     -1.045630   -2.069730   -1.638768
  H     -0.311860   -1.917712   -2.412968
  H     -1.949811   -2.440265   -2.109928
  H     -0.654630   -2.819755   -0.960209
  C     -1.957513    0.129442   -1.941471
  H     -2.101369    1.130497   -1.525586
  H     -2.921709   -0.236625   -2.287664
  H     -1.299964    0.210494   -2.801379
  C     -1.668269   -1.223175    1.434896
  C     -1.956334   -2.208055    2.355538
  C     -1.580917   -1.998840    3.674948
  C     -1.021301   -0.779863    4.033704
  C     -0.711635    0.189679    3.059659
  C     -0.883420   -0.092555    1.703426
  H     -0.825330   -0.569553    5.082421
  H     -0.434121    1.184514    3.404542
  H     -2.511156   -3.095332    2.048405
  H     -1.679962   -2.831787    4.354087
  H     -0.093176    2.775844    0.664653
  C     -2.344792   -1.126080    0.121853
  H     -3.065723   -0.311239    0.181307
  H     -2.927373   -2.010822   -0.111915
  O      1.392625    0.324553   -1.801452
  C      2.244501   -0.587494   -2.157709
  O      2.272106   -1.738605   -1.743533
  C      3.314555   -0.179337   -3.221593
  H      3.674329   -1.063568   -3.756336
  H      4.212092    0.231363   -2.749208
  H      3.009644    0.552044   -3.981048

 Total Charge           Charge          ....    0
 Multiplicity           Mult            ....    1
 Number of Electrons    NEL             ....  154
 Basis Dimension        Dim             ....  339

ORBITAL ENERGIES
----------------

  NO   OCC          E(Eh)            E(eV)
   0   2.0000     -19.575297      -532.6709
   1   2.0000     -19.555530      -532.1330
   2   2.0000     -19.443898      -529.0954
   3   2.0000     -19.409391      -528.1564
   4   2.0000     -14.718821      -400.5195
   5   2.0000     -10.633902      -289.3632
   6   2.0000     -10.516777      -286.1760
   7   2.0000     -10.483127      -285.2604
   8   2.0000     -10.481803      -285.2244
   9   2.0000     -10.475810      -285.0613
  10   2.0000     -10.466061      -284.7960
  11   2.0000     -10.444891      -284.2199
  12   2.0000     -10.444308      -284.2041
  13   2.0000     -10.442911      -284.1661
  14   2.0000     -10.441624      -284.1310
  15   2.0000     -10.440368      -284.0969
  16   2.0000     -10.438016      -284.0329
  17   2.0000     -10.405923      -283.1596
  18   2.0000      -3.649582       -99.3102
  19   2.0000      -2.295507       -62.4639
  20   2.0000      -2.292188       -62.3736
  21   2.0000      -2.262703       -61.5713
  22   2.0000      -1.288743       -35.0685
  23   2.0000      -1.179408       -32.0933
  24   2.0000      -1.118561       -30.4376
  25   2.0000      -1.075121       -29.2555
  26   2.0000      -1.024645       -27.8820
  27   2.0000      -0.951530       -25.8924
  28   2.0000      -0.888136       -24.1674
  29   2.0000      -0.867261       -23.5994
  30   2.0000      -0.825956       -22.4754
  31   2.0000      -0.816504       -22.2182
  32   2.0000      -0.782467       -21.2920
  33   2.0000      -0.771524       -20.9942
  34   2.0000      -0.710965       -19.3463
  35   2.0000      -0.699343       -19.0301
  36   2.0000      -0.673599       -18.3296
  37   2.0000      -0.649442       -17.6722
  38   2.0000      -0.640469       -17.4280
  39   2.0000      -0.598934       -16.2978
  40   2.0000      -0.584379       -15.9018
  41   2.0000      -0.582563       -15.8524
  42   2.0000      -0.568532       -15.4705
  43   2.0000      -0.565665       -15.3925
  44   2.0000      -0.562163       -15.2972
  45   2.0000      -0.542234       -14.7550
  46   2.0000      -0.520825       -14.1724
  47   2.0000      -0.513009       -13.9597
  48   2.0000      -0.499710       -13.5978
  49   2.0000      -0.498211       -13.5570
  50   2.0000      -0.490552       -13.3486
  51   2.0000      -0.478364       -13.0170
  52   2.0000      -0.475715       -12.9449
  53   2.0000      -0.467616       -12.7245
  54   2.0000      -0.465882       -12.6773
  55   2.0000      -0.463089       -12.6013
  56   2.0000      -0.454801       -12.3758
  57   2.0000      -0.448532       -12.2052
  58   2.0000      -0.441367       -12.0102
  59   2.0000      -0.435078       -11.8391
  60   2.0000      -0.429399       -11.6846
  61   2.0000      -0.419636       -11.4189
  62   2.0000      -0.414852       -11.2887
  63   2.0000      -0.405371       -11.0307
  64   2.0000      -0.393873       -10.7178
  65   2.0000      -0.392230       -10.6731
  66   2.0000      -0.378900       -10.3104
  67   2.0000      -0.361498        -9.8369
  68   2.0000      -0.348734        -9.4895
  69   2.0000      -0.340808        -9.2739
  70   2.0000      -0.324751        -8.8369
  71   2.0000      -0.294691        -8.0190
  72   2.0000      -0.286205        -7.7880
  73   2.0000      -0.282370        -7.6837
  74   2.0000      -0.278481        -7.5778
  75   2.0000      -0.263274        -7.1641
  76   2.0000      -0.253055        -6.8860
  77   0.0000      -0.041124        -1.1191
  78   0.0000      -0.010903        -0.2967
  79   0.0000       0.015227         0.4143
  80   0.0000       0.025980         0.7069
  81   0.0000       0.047004         1.2790

MULLIKEN ATOMIC CHARGES
-----------------------
   0 Pd:    0.371853
   1 O :   -0.414769
   2 C :    0.615902
   3 O :   -0.551830
   4 C :   -0.741315
   5 H :    0.268166
   6 H :    0.280197
   7 H :    0.277518
   8 N :   -0.483456
   9 C :   -0.526092
  10 H :    0.293849
  11 H :    0.212568
  12 H :    0.283506
  13 C :   -0.535112
  14 H :    0.269557
  15 H :    0.232078
  16 H :    0.286579
  17 C :    0.102226
  18 C :   -0.261219
  19 C :   -0.236480
  20 C :   -0.214110
  21 C :   -0.312051
  22 C :   -0.131960
  23 H :    0.213749
  24 H :    0.201464
  25 H :    0.207582
  26 H :    0.215966
  27 H :    0.475119
  28 C :   -0.329045
  29 H :    0.265931
  30 H :    0.234775
  31 O :   -0.567981
  32 C :    0.538814
  33 O :   -0.467925
  34 C :   -0.748229
  35 H :    0.234369
  36 H :    0.224220
  37 H :    0.215582
Sum of atomic charges:   -0.0000000

LOEWDIN ATOMIC CHARGES
----------------------
   0 Pd:   -0.431840
   1 O :   -0.066065
   2 C :    0.217365
   3 O :   -0.257409
   4 C :   -0.366855
   5 H :    0.166774
   6 H :    0.176014
   7 H :    0.169049
   8 N :   -0.029477
   9 C :   -0.228790
  10 H :    0.161521
  11 H :    0.116482
  12 H :    0.159567
  13 C :   -0.229201
  14 H :    0.153166
  15 H :    0.123792
  16 H :    0.160446
  17 C :   -0.053025
  18 C :   -0.140387
  19 C :   -0.140177
  20 C :   -0.136564
  21 C :   -0.130314
  22 C :   -0.041338
  23 H :    0.135561
  24 H :    0.134208
  25 H :    0.135104
  26 H :    0.134903
  27 H :    0.352138
  28 C :   -0.102025
  29 H :    0.150211
  30 H :    0.129862
  31 O :   -0.258139
  32 C :    0.119724
  33 O :   -0.287105
  34 C :   -0.401570
  35 H :    0.138026
  36 H :    0.138644
  37 H :    0.127722

  Mayer bond orders larger than 0.100000
B(  0-Pd,  1-O ) :   0.3333 B(  0-Pd,  8-N ) :   0.4725 B(  0-Pd, 22-C ) :   0.8222
B(  0-Pd, 31-O ) :   0.5051 B(  1-O ,  2-C ) :   1.7310 B(  2-C ,  3-O ) :   1.2073
B(  2-C ,  4-C ) :   0.9537 B(  3-O , 27-H ) :   0.7038 B(  4-C ,  5-H ) :   0.9041
B(  4-C ,  6-H ) :   0.8872 B(  4-C ,  7-H ) :   0.9038 B(  8-N ,  9-C ) :   0.9159
B(  8-N , 13-C ) :   0.9151 B(  8-N , 28-C ) :   0.8667 B(  9-C , 10-H ) :   0.8896
B(  9-C , 11-H ) :   0.9033 B(  9-C , 12-H ) :   0.8982 B( 13-C , 14-H ) :   0.8996
B( 13-C , 15-H ) :   0.9003 B( 13-C , 16-H ) :   0.8903 B( 17-C , 18-C ) :   1.4488
B( 17-C , 22-C ) :   1.2746 B( 17-C , 28-C ) :   0.9705 B( 18-C , 19-C ) :   1.4013
B( 18-C , 25-H ) :   0.9205 B( 19-C , 20-C ) :   1.4557 B( 19-C , 26-H ) :   0.9182
B( 20-C , 21-C ) :   1.4029 B( 20-C , 23-H ) :   0.9195 B( 21-C , 22-C ) :   1.4227
B( 21-C , 24-H ) :   0.9239 B( 28-C , 29-H ) :   0.8953 B( 28-C , 30-H ) :   0.9070
B( 31-O , 32-C ) :   1.3263 B( 31-O , 33-O ) :   0.1059 B( 32-C , 33-O ) :   1.8702
B( 32-C , 34-C ) :   0.9136 B( 34-C , 35-H ) :   0.9215 B( 34-C , 36-H ) :   0.9210
B( 34-C , 37-H ) :   0.9200

Dispersion correction           -0.026085267
FINAL SINGLE POINT ENERGY      -988.482601766984
Dispersion correction            ... done

DIPOLE MOMENT
-------------
                                X             Y             Z
Electronic contribution:      5.16039      11.77413      -4.75609
Nuclear contribution   :     -6.49033     -10.07477       4.98853
                        -----------------------------------------
Total Dipole Moment    :     -1.32994       1.69936       0.23244
                        -----------------------------------------
Magnitude (a.u.)       :      2.17039
Magnitude (Debye)      :      5.51670

Rotational constants in cm-1:     0.013235     0.008966     0.006716
Rotational constants in MHz :   396.764677   268.805469   201.340182

                             ****ORCA TERMINATED NORMALLY****
TOTAL RUN TIME: 0 days 0 hours 8 minutes 13 seconds 505 msec
