                         Program Version 5.0.3 -  RELEASE  -
|  1> ! EnGrad PBEh-3c
|  2> %output
|  3> xyzfile=True
|  4> end
|  5> %scf
|  6> maxiter 250
|  7> end
|  8> %output
|  9> Print[P_Hirshfeld] = 1
| 10> end
| 11> % maxcore
| 12> 4000
| 13> *xyz 0 1
| 14> Pd   0.18097025   0.23179395  -0.05694333
| 15> O    1.53051391   1.64675365   0.79394273
| 16> C    1.51088768   2.84771371   0.50969769
| 17> O    0.44152694   3.46708399   0.30342494
| 18> C    2.70335180   3.68569443   0.62372937
| 19> H    2.42061456   4.66101581   1.07423812
| 20> H    3.08940422   3.85213365  -0.38633477
| 21> H    3.42540232   3.13516370   1.24438951
| 22> N   -1.37618966  -0.80690458  -0.95651303
| 23> C   -1.03971610  -2.07482840  -1.64209340
| 24> H   -0.28927483  -1.91287221  -2.40932269
| 25> H   -1.95606924  -2.45649820  -2.11958207
| 26> H   -0.65033817  -2.81279313  -0.93307395
| 27> C   -1.95867196   0.12154583  -1.94739596
| 28> H   -2.09930848   1.12035640  -1.52296666
| 29> H   -2.92978275  -0.24637731  -2.30079115
| 30> H   -1.28975090   0.20103386  -2.80290055
| 31> C   -1.69211893  -1.21606631   1.42369574
| 32> C   -1.97217420  -2.19893246   2.34882672
| 33> C   -1.56242635  -1.99927758   3.66431936
| 34> C   -1.02540417  -0.78340355   4.02696982
| 35> C   -0.71295211   0.16603333   3.03948387
| 36> C   -0.86047148  -0.11180657   1.68703364
| 37> H   -0.82663034  -0.56080394   5.07368660
| 38> H   -0.38687768   1.13845941   3.37818009
| 39> H   -2.53172811  -3.08978488   2.06192952
| 40> H   -1.69338603  -2.80460409   4.37368020
| 41> H   -0.17214315   2.75150863   0.62113212
| 42> C   -2.35361349  -1.13104553   0.10316026
| 43> H   -3.06057004  -0.30574037   0.19492635
| 44> H   -2.94623222  -2.02371926  -0.12138919
| 45> O    1.39564342   0.32714570  -1.80908910
| 46> C    2.24866982  -0.58803141  -2.14691654
| 47> O    2.28904223  -1.72580544  -1.70203782
| 48> C    3.29470698  -0.17531613  -3.21591753
| 49> H    3.64875616  -1.05539264  -3.75694981
| 50> H    4.19363956   0.23853454  -2.74913916
| 51> H    2.97789713   0.55730750  -3.96958361
| 52> *
| 53>
| 54>                          ****END OF INPUT****

CARTESIAN COORDINATES (ANGSTROEM)
---------------------------------
  Pd     0.180970    0.231794   -0.056943
  O      1.530514    1.646754    0.793943
  C      1.510888    2.847714    0.509698
  O      0.441527    3.467084    0.303425
  C      2.703352    3.685694    0.623729
  H      2.420615    4.661016    1.074238
  H      3.089404    3.852134   -0.386335
  H      3.425402    3.135164    1.244390
  N     -1.376190   -0.806905   -0.956513
  C     -1.039716   -2.074828   -1.642093
  H     -0.289275   -1.912872   -2.409323
  H     -1.956069   -2.456498   -2.119582
  H     -0.650338   -2.812793   -0.933074
  C     -1.958672    0.121546   -1.947396
  H     -2.099308    1.120356   -1.522967
  H     -2.929783   -0.246377   -2.300791
  H     -1.289751    0.201034   -2.802901
  C     -1.692119   -1.216066    1.423696
  C     -1.972174   -2.198932    2.348827
  C     -1.562426   -1.999278    3.664319
  C     -1.025404   -0.783404    4.026970
  C     -0.712952    0.166033    3.039484
  C     -0.860471   -0.111807    1.687034
  H     -0.826630   -0.560804    5.073687
  H     -0.386878    1.138459    3.378180
  H     -2.531728   -3.089785    2.061930
  H     -1.693386   -2.804604    4.373680
  H     -0.172143    2.751509    0.621132
  C     -2.353613   -1.131046    0.103160
  H     -3.060570   -0.305740    0.194926
  H     -2.946232   -2.023719   -0.121389
  O      1.395643    0.327146   -1.809089
  C      2.248670   -0.588031   -2.146917
  O      2.289042   -1.725805   -1.702038
  C      3.294707   -0.175316   -3.215918
  H      3.648756   -1.055393   -3.756950
  H      4.193640    0.238535   -2.749139
  H      2.977897    0.557307   -3.969584

 Total Charge           Charge          ....    0
 Multiplicity           Mult            ....    1
 Number of Electrons    NEL             ....  154
 Basis Dimension        Dim             ....  339

ORBITAL ENERGIES
----------------

  NO   OCC          E(Eh)            E(eV)
   0   2.0000     -19.594027      -533.1806
   1   2.0000     -19.538579      -531.6718
   2   2.0000     -19.439312      -528.9706
   3   2.0000     -19.406792      -528.0857
   4   2.0000     -14.720134      -400.5552
   5   2.0000     -10.623854      -289.0898
   6   2.0000     -10.512707      -286.0653
   7   2.0000     -10.484596      -285.3004
   8   2.0000     -10.483616      -285.2737
   9   2.0000     -10.472993      -284.9846
  10   2.0000     -10.470761      -284.9239
  11   2.0000     -10.445720      -284.2425
  12   2.0000     -10.444238      -284.2022
  13   2.0000     -10.440281      -284.0945
  14   2.0000     -10.439706      -284.0788
  15   2.0000     -10.438951      -284.0583
  16   2.0000     -10.436734      -283.9980
  17   2.0000     -10.402745      -283.0731
  18   2.0000      -3.650548       -99.3365
  19   2.0000      -2.295683       -62.4687
  20   2.0000      -2.293105       -62.3986
  21   2.0000      -2.264017       -61.6070
  22   2.0000      -1.307961       -35.5914
  23   2.0000      -1.170347       -31.8468
  24   2.0000      -1.116316       -30.3765
  25   2.0000      -1.074122       -29.2284
  26   2.0000      -1.021812       -27.8049
  27   2.0000      -0.952392       -25.9159
  28   2.0000      -0.886895       -24.1336
  29   2.0000      -0.868021       -23.6201
  30   2.0000      -0.825320       -22.4581
  31   2.0000      -0.813823       -22.1452
  32   2.0000      -0.782298       -21.2874
  33   2.0000      -0.771212       -20.9858
  34   2.0000      -0.719174       -19.5697
  35   2.0000      -0.710317       -19.3287
  36   2.0000      -0.673315       -18.3218
  37   2.0000      -0.648149       -17.6370
  38   2.0000      -0.635490       -17.2926
  39   2.0000      -0.602755       -16.4018
  40   2.0000      -0.591176       -16.0867
  41   2.0000      -0.583549       -15.8792
  42   2.0000      -0.567612       -15.4455
  43   2.0000      -0.563918       -15.3450
  44   2.0000      -0.560488       -15.2516
  45   2.0000      -0.541541       -14.7361
  46   2.0000      -0.514656       -14.0045
  47   2.0000      -0.502648       -13.6778
  48   2.0000      -0.497558       -13.5392
  49   2.0000      -0.497051       -13.5254
  50   2.0000      -0.488228       -13.2854
  51   2.0000      -0.477732       -12.9998
  52   2.0000      -0.474971       -12.9246
  53   2.0000      -0.466833       -12.7032
  54   2.0000      -0.465112       -12.6563
  55   2.0000      -0.462910       -12.5964
  56   2.0000      -0.453274       -12.3342
  57   2.0000      -0.446749       -12.1566
  58   2.0000      -0.440423       -11.9845
  59   2.0000      -0.434388       -11.8203
  60   2.0000      -0.428803       -11.6683
  61   2.0000      -0.415175       -11.2975
  62   2.0000      -0.412895       -11.2355
  63   2.0000      -0.405559       -11.0358
  64   2.0000      -0.391382       -10.6500
  65   2.0000      -0.390001       -10.6125
  66   2.0000      -0.379881       -10.3371
  67   2.0000      -0.362486        -9.8637
  68   2.0000      -0.347611        -9.4590
  69   2.0000      -0.343821        -9.3559
  70   2.0000      -0.324795        -8.8381
  71   2.0000      -0.296042        -8.0557
  72   2.0000      -0.284310        -7.7365
  73   2.0000      -0.280117        -7.6224
  74   2.0000      -0.277536        -7.5521
  75   2.0000      -0.261647        -7.1198
  76   2.0000      -0.253434        -6.8963
  77   0.0000      -0.037550        -1.0218
  78   0.0000       0.002055         0.0559
  79   0.0000       0.015835         0.4309
  80   0.0000       0.027932         0.7601
  81   0.0000       0.037863         1.0303

MULLIKEN ATOMIC CHARGES
-----------------------
   0 Pd:    0.360742
   1 O :   -0.440267
   2 C :    0.616357
   3 O :   -0.497957
   4 C :   -0.748632
   5 H :    0.253716
   6 H :    0.279741
   7 H :    0.279897
   8 N :   -0.482918
   9 C :   -0.520394
  10 H :    0.293081
  11 H :    0.210377
  12 H :    0.281391
  13 C :   -0.528616
  14 H :    0.262879
  15 H :    0.231250
  16 H :    0.285744
  17 C :    0.098947
  18 C :   -0.261307
  19 C :   -0.238741
  20 C :   -0.205303
  21 C :   -0.315492
  22 C :   -0.127386
  23 H :    0.214426
  24 H :    0.200436
  25 H :    0.206940
  26 H :    0.214866
  27 H :    0.480149
  28 C :   -0.333019
  29 H :    0.266218
  30 H :    0.235286
  31 O :   -0.566210
  32 C :    0.538346
  33 O :   -0.469174
  34 C :   -0.747816
  35 H :    0.231992
  36 H :    0.225352
  37 H :    0.215101
Sum of atomic charges:    0.0000000

LOEWDIN ATOMIC CHARGES
----------------------
   0 Pd:   -0.433367
   1 O :   -0.099872
   2 C :    0.165357
   3 O :   -0.183696
   4 C :   -0.364173
   5 H :    0.159461
   6 H :    0.176499
   7 H :    0.171726
   8 N :   -0.030230
   9 C :   -0.225670
  10 H :    0.162223
  11 H :    0.117016
  12 H :    0.159935
  13 C :   -0.229164
  14 H :    0.150194
  15 H :    0.124428
  16 H :    0.160304
  17 C :   -0.050299
  18 C :   -0.142862
  19 C :   -0.137793
  20 C :   -0.139472
  21 C :   -0.128601
  22 C :   -0.039824
  23 H :    0.136054
  24 H :    0.133342
  25 H :    0.135223
  26 H :    0.133754
  27 H :    0.372911
  28 C :   -0.105677
  29 H :    0.151419
  30 H :    0.131559
  31 O :   -0.261615
  32 C :    0.114253
  33 O :   -0.287411
  34 C :   -0.400194
  35 H :    0.136829
  36 H :    0.139738
  37 H :    0.127694

  Mayer bond orders larger than 0.100000
B(  0-Pd,  1-O ) :   0.3563 B(  0-Pd,  8-N ) :   0.4644 B(  0-Pd, 22-C ) :   0.8431
B(  0-Pd, 31-O ) :   0.5013 B(  1-O ,  2-C ) :   1.6842 B(  2-C ,  3-O ) :   1.3079
B(  2-C ,  4-C ) :   0.9445 B(  3-O , 27-H ) :   0.6822 B(  4-C ,  5-H ) :   0.9058
B(  4-C ,  6-H ) :   0.8903 B(  4-C ,  7-H ) :   0.9068 B(  8-N ,  9-C ) :   0.9111
B(  8-N , 13-C ) :   0.9146 B(  8-N , 28-C ) :   0.8704 B(  9-C , 10-H ) :   0.8894
B(  9-C , 11-H ) :   0.9038 B(  9-C , 12-H ) :   0.8983 B( 13-C , 14-H ) :   0.9018
B( 13-C , 15-H ) :   0.9005 B( 13-C , 16-H ) :   0.8904 B( 17-C , 18-C ) :   1.4559
B( 17-C , 22-C ) :   1.2662 B( 17-C , 28-C ) :   0.9669 B( 18-C , 19-C ) :   1.3935
B( 18-C , 25-H ) :   0.9216 B( 19-C , 20-C ) :   1.4678 B( 19-C , 26-H ) :   0.9183
B( 20-C , 21-C ) :   1.3928 B( 20-C , 23-H ) :   0.9189 B( 21-C , 22-C ) :   1.4318
B( 21-C , 24-H ) :   0.9236 B( 28-C , 29-H ) :   0.8956 B( 28-C , 30-H ) :   0.9073
B( 31-O , 32-C ) :   1.3322 B( 31-O , 33-O ) :   0.1065 B( 32-C , 33-O ) :   1.8707
B( 32-C , 34-C ) :   0.9151 B( 34-C , 35-H ) :   0.9217 B( 34-C , 36-H ) :   0.9209
B( 34-C , 37-H ) :   0.9207

Dispersion correction           -0.026126557
FINAL SINGLE POINT ENERGY      -988.496987786129
Dispersion correction            ... done

DIPOLE MOMENT
-------------
                                X             Y             Z
Electronic contribution:      4.87257      12.52674      -4.01125
Nuclear contribution   :     -6.43494     -10.71175       4.21563
                        -----------------------------------------
Total Dipole Moment    :     -1.56237       1.81499       0.20438
                        -----------------------------------------
Magnitude (a.u.)       :      2.40353
Magnitude (Debye)      :      6.10928

Rotational constants in cm-1:     0.013223     0.008990     0.006721
Rotational constants in MHz :   396.404525   269.520050   201.497840

                             ****ORCA TERMINATED NORMALLY****
TOTAL RUN TIME: 0 days 0 hours 8 minutes 3 seconds 489 msec
