                         Program Version 5.0.3 -  RELEASE  -
|  1> ! EnGrad PBEh-3c
|  2> %output
|  3> xyzfile=True
|  4> end
|  5> %scf
|  6> maxiter 250
|  7> end
|  8> %output
|  9> Print[P_Hirshfeld] = 1
| 10> end
| 11> % maxcore
| 12> 4000
| 13> *xyz 0 1
| 14> Pd   0.19081683   0.24959400  -0.02618098
| 15> O    1.60459717   1.65649034   0.76338824
| 16> C    1.54579217   2.84066021   0.59221845
| 17> O    0.43372606   3.45272240   0.30821715
| 18> C    2.73688710   3.66823956   0.61777525
| 19> H    2.44880684   4.62223799   1.06009793
| 20> H    3.12968458   3.86896912  -0.39853974
| 21> H    3.47778306   3.14261752   1.25962060
| 22> N   -1.36150010  -0.81098611  -0.95473237
| 23> C   -1.02385322  -2.09544811  -1.62898662
| 24> H   -0.25259914  -1.92914135  -2.38565250
| 25> H   -1.95057277  -2.49715816  -2.10511875
| 26> H   -0.64293060  -2.80516226  -0.87776925
| 27> C   -1.95234241   0.08947620  -1.96723460
| 28> H   -2.08894476   1.08641854  -1.54402318
| 29> H   -2.92954172  -0.28484226  -2.32018988
| 30> H   -1.26769314   0.15826100  -2.81209753
| 31> C   -1.72319926  -1.20266670   1.41409750
| 32> C   -2.01659325  -2.16791094   2.35166723
| 33> C   -1.56844270  -1.99999682   3.66031801
| 34> C   -1.03658365  -0.78666822   4.02677222
| 35> C   -0.70090943   0.13611772   3.03142153
| 36> C   -0.83309581  -0.13942430   1.67631040
| 37> H   -0.82466411  -0.56647449   5.06871725
| 38> H   -0.30228202   1.07493312   3.36694521
| 39> H   -2.58828411  -3.05523528   2.08642024
| 40> H   -1.75734122  -2.75630739   4.41141545
| 41> H   -0.31417287   2.79817393   0.57481379
| 42> C   -2.36927228  -1.13108879   0.08523072
| 43> H   -3.05233383  -0.28746920   0.19497507
| 44> H   -2.96927301  -2.03051190  -0.13641962
| 45> O    1.40130916   0.34774927  -1.82255504
| 46> C    2.24522829  -0.55579965  -2.16160291
| 47> O    2.29758762  -1.70400709  -1.68401170
| 48> C    3.26872749  -0.15044186  -3.22819649
| 49> H    3.61379767  -1.02278967  -3.77678912
| 50> H    4.16224234   0.26935579  -2.75836976
| 51> H    2.93030081   0.58683535  -3.96244672
| 52> *
| 53>
| 54>                          ****END OF INPUT****

CARTESIAN COORDINATES (ANGSTROEM)
---------------------------------
  Pd     0.190817    0.249594   -0.026181
  O      1.604597    1.656490    0.763388
  C      1.545792    2.840660    0.592218
  O      0.433726    3.452722    0.308217
  C      2.736887    3.668240    0.617775
  H      2.448807    4.622238    1.060098
  H      3.129685    3.868969   -0.398540
  H      3.477783    3.142618    1.259621
  N     -1.361500   -0.810986   -0.954732
  C     -1.023853   -2.095448   -1.628987
  H     -0.252599   -1.929141   -2.385652
  H     -1.950573   -2.497158   -2.105119
  H     -0.642931   -2.805162   -0.877769
  C     -1.952342    0.089476   -1.967235
  H     -2.088945    1.086419   -1.544023
  H     -2.929542   -0.284842   -2.320190
  H     -1.267693    0.158261   -2.812098
  C     -1.723199   -1.202667    1.414097
  C     -2.016593   -2.167911    2.351667
  C     -1.568443   -1.999997    3.660318
  C     -1.036584   -0.786668    4.026772
  C     -0.700909    0.136118    3.031422
  C     -0.833096   -0.139424    1.676310
  H     -0.824664   -0.566474    5.068717
  H     -0.302282    1.074933    3.366945
  H     -2.588284   -3.055235    2.086420
  H     -1.757341   -2.756307    4.411415
  H     -0.314173    2.798174    0.574814
  C     -2.369272   -1.131089    0.085231
  H     -3.052334   -0.287469    0.194975
  H     -2.969273   -2.030512   -0.136420
  O      1.401309    0.347749   -1.822555
  C      2.245228   -0.555800   -2.161603
  O      2.297588   -1.704007   -1.684012
  C      3.268727   -0.150442   -3.228196
  H      3.613798   -1.022790   -3.776789
  H      4.162242    0.269356   -2.758370
  H      2.930301    0.586835   -3.962447

 Total Charge           Charge          ....    0
 Multiplicity           Mult            ....    1
 Number of Electrons    NEL             ....  154
 Basis Dimension        Dim             ....  339

ORBITAL ENERGIES
----------------

  NO   OCC          E(Eh)            E(eV)
   0   2.0000     -19.583132      -532.8841
   1   2.0000     -19.542797      -531.7866
   2   2.0000     -19.437911      -528.9325
   3   2.0000     -19.400133      -527.9045
   4   2.0000     -14.721559      -400.5940
   5   2.0000     -10.619461      -288.9702
   6   2.0000     -10.509192      -285.9696
   7   2.0000     -10.487827      -285.3883
   8   2.0000     -10.484139      -285.2879
   9   2.0000     -10.474329      -285.0210
  10   2.0000     -10.471696      -284.9493
  11   2.0000     -10.448770      -284.3255
  12   2.0000     -10.447932      -284.3027
  13   2.0000     -10.441842      -284.1370
  14   2.0000     -10.439493      -284.0730
  15   2.0000     -10.438730      -284.0523
  16   2.0000     -10.437492      -284.0186
  17   2.0000     -10.400100      -283.0011
  18   2.0000      -3.653829       -99.4257
  19   2.0000      -2.298789       -62.5532
  20   2.0000      -2.296597       -62.4936
  21   2.0000      -2.267275       -61.6957
  22   2.0000      -1.279027       -34.8041
  23   2.0000      -1.176477       -32.0136
  24   2.0000      -1.110841       -30.2275
  25   2.0000      -1.072773       -29.1916
  26   2.0000      -1.013749       -27.5855
  27   2.0000      -0.955097       -25.9895
  28   2.0000      -0.883824       -24.0501
  29   2.0000      -0.870259       -23.6809
  30   2.0000      -0.826483       -22.4897
  31   2.0000      -0.811843       -22.0914
  32   2.0000      -0.783327       -21.3154
  33   2.0000      -0.773835       -21.0571
  34   2.0000      -0.711835       -19.3700
  35   2.0000      -0.709678       -19.3113
  36   2.0000      -0.675029       -18.3685
  37   2.0000      -0.648715       -17.6524
  38   2.0000      -0.630856       -17.1665
  39   2.0000      -0.593606       -16.1528
  40   2.0000      -0.584655       -15.9093
  41   2.0000      -0.582367       -15.8470
  42   2.0000      -0.567096       -15.4315
  43   2.0000      -0.562701       -15.3119
  44   2.0000      -0.559319       -15.2198
  45   2.0000      -0.541764       -14.7422
  46   2.0000      -0.516279       -14.0487
  47   2.0000      -0.499644       -13.5960
  48   2.0000      -0.498605       -13.5677
  49   2.0000      -0.490268       -13.3409
  50   2.0000      -0.486476       -13.2377
  51   2.0000      -0.478719       -13.0266
  52   2.0000      -0.475730       -12.9453
  53   2.0000      -0.466658       -12.6984
  54   2.0000      -0.464549       -12.6410
  55   2.0000      -0.460870       -12.5409
  56   2.0000      -0.453149       -12.3308
  57   2.0000      -0.447174       -12.1682
  58   2.0000      -0.438915       -11.9435
  59   2.0000      -0.432581       -11.7711
  60   2.0000      -0.428680       -11.6650
  61   2.0000      -0.415438       -11.3046
  62   2.0000      -0.412816       -11.2333
  63   2.0000      -0.406413       -11.0591
  64   2.0000      -0.392595       -10.6830
  65   2.0000      -0.388390       -10.5686
  66   2.0000      -0.380925       -10.3655
  67   2.0000      -0.365613        -9.9488
  68   2.0000      -0.350916        -9.5489
  69   2.0000      -0.347749        -9.4627
  70   2.0000      -0.329412        -8.9637
  71   2.0000      -0.299265        -8.1434
  72   2.0000      -0.284049        -7.7294
  73   2.0000      -0.279676        -7.6104
  74   2.0000      -0.275370        -7.4932
  75   2.0000      -0.259116        -7.0509
  76   2.0000      -0.253060        -6.8861
  77   0.0000      -0.040776        -1.1096
  78   0.0000       0.003619         0.0985
  79   0.0000       0.011124         0.3027
  80   0.0000       0.027075         0.7368
  81   0.0000       0.032598         0.8870

MULLIKEN ATOMIC CHARGES
-----------------------
   0 Pd:    0.357355
   1 O :   -0.390626
   2 C :    0.617731
   3 O :   -0.547016
   4 C :   -0.747686
   5 H :    0.253207
   6 H :    0.285927
   7 H :    0.272752
   8 N :   -0.477561
   9 C :   -0.514210
  10 H :    0.293972
  11 H :    0.207499
  12 H :    0.278741
  13 C :   -0.521880
  14 H :    0.258217
  15 H :    0.230180
  16 H :    0.284168
  17 C :    0.101031
  18 C :   -0.267404
  19 C :   -0.233608
  20 C :   -0.203588
  21 C :   -0.314444
  22 C :   -0.124729
  23 H :    0.217346
  24 H :    0.202348
  25 H :    0.207611
  26 H :    0.213580
  27 H :    0.476412
  28 C :   -0.337491
  29 H :    0.267161
  30 H :    0.236059
  31 O :   -0.553903
  32 C :    0.537302
  33 O :   -0.495414
  34 C :   -0.743938
  35 H :    0.233350
  36 H :    0.226247
  37 H :    0.215302
Sum of atomic charges:    0.0000000

LOEWDIN ATOMIC CHARGES
----------------------
   0 Pd:   -0.416149
   1 O :   -0.056421
   2 C :    0.165727
   3 O :   -0.234496
   4 C :   -0.364034
   5 H :    0.157019
   6 H :    0.180392
   7 H :    0.170789
   8 N :   -0.032273
   9 C :   -0.223851
  10 H :    0.164207
  11 H :    0.117369
  12 H :    0.159565
  13 C :   -0.229984
  14 H :    0.147654
  15 H :    0.125244
  16 H :    0.159834
  17 C :   -0.050261
  18 C :   -0.142489
  19 C :   -0.136662
  20 C :   -0.140153
  21 C :   -0.129221
  22 C :   -0.033250
  23 H :    0.136364
  24 H :    0.133875
  25 H :    0.135369
  26 H :    0.133793
  27 H :    0.371832
  28 C :   -0.107846
  29 H :    0.153153
  30 H :    0.133686
  31 O :   -0.255569
  32 C :    0.112301
  33 O :   -0.316705
  34 C :   -0.396108
  35 H :    0.137637
  36 H :    0.141442
  37 H :    0.128220

  Mayer bond orders larger than 0.100000
B(  0-Pd,  1-O ) :   0.3488 B(  0-Pd,  8-N ) :   0.4599 B(  0-Pd, 22-C ) :   0.8739
B(  0-Pd, 31-O ) :   0.4819 B(  1-O ,  2-C ) :   1.7536 B(  2-C ,  3-O ) :   1.2367
B(  2-C ,  4-C ) :   0.9513 B(  3-O , 27-H ) :   0.6904 B(  4-C ,  5-H ) :   0.9013
B(  4-C ,  6-H ) :   0.8901 B(  4-C ,  7-H ) :   0.9093 B(  8-N ,  9-C ) :   0.9070
B(  8-N , 13-C ) :   0.9146 B(  8-N , 28-C ) :   0.8745 B(  9-C , 10-H ) :   0.8878
B(  9-C , 11-H ) :   0.9038 B(  9-C , 12-H ) :   0.8985 B( 13-C , 14-H ) :   0.9036
B( 13-C , 15-H ) :   0.9010 B( 13-C , 16-H ) :   0.8913 B( 17-C , 18-C ) :   1.4548
B( 17-C , 22-C ) :   1.2678 B( 17-C , 28-C ) :   0.9634 B( 18-C , 19-C ) :   1.3932
B( 18-C , 25-H ) :   0.9225 B( 19-C , 20-C ) :   1.4692 B( 19-C , 26-H ) :   0.9187
B( 20-C , 21-C ) :   1.3927 B( 20-C , 23-H ) :   0.9175 B( 21-C , 22-C ) :   1.4289
B( 21-C , 24-H ) :   0.9224 B( 28-C , 29-H ) :   0.8958 B( 28-C , 30-H ) :   0.9073
B( 31-O , 32-C ) :   1.3643 B( 31-O , 33-O ) :   0.1083 B( 32-C , 33-O ) :   1.8350
B( 32-C , 34-C ) :   0.9208 B( 34-C , 35-H ) :   0.9212 B( 34-C , 36-H ) :   0.9206
B( 34-C , 37-H ) :   0.9204

Dispersion correction           -0.026231529
FINAL SINGLE POINT ENERGY      -988.506111050458
Dispersion correction            ... done

DIPOLE MOMENT
-------------
                                X             Y             Z
Electronic contribution:      5.18976      13.40906      -2.22676
Nuclear contribution   :     -6.86653     -11.63982       2.55849
                        -----------------------------------------
Total Dipole Moment    :     -1.67677       1.76923       0.33174
                        -----------------------------------------
Magnitude (a.u.)       :      2.46004
Magnitude (Debye)      :      6.25293

Rotational constants in cm-1:     0.013270     0.008971     0.006702
Rotational constants in MHz :   397.813570   268.945774   200.926276

                             ****ORCA TERMINATED NORMALLY****
TOTAL RUN TIME: 0 days 0 hours 8 minutes 8 seconds 693 msec
