                         Program Version 5.0.3 -  RELEASE  -
|  1> ! EnGrad PBEh-3c
|  2> %output
|  3> xyzfile=True
|  4> end
|  5> %scf
|  6> maxiter 250
|  7> end
|  8> %output
|  9> Print[P_Hirshfeld] = 1
| 10> end
| 11> % maxcore
| 12> 4000
| 13> *xyz 0 1
| 14> Pd   0.19670417   0.25253574  -0.02119140
| 15> O    1.62451312   1.63456474   0.76647893
| 16> C    1.54602951   2.85080084   0.61733830
| 17> O    0.41514636   3.46678497   0.32260293
| 18> C    2.75870267   3.67959525   0.62143923
| 19> H    2.46466821   4.61824076   1.05323175
| 20> H    3.13296121   3.87290652  -0.40056730
| 21> H    3.48734563   3.15407640   1.25360107
| 22> N   -1.36500941  -0.81389959  -0.95958617
| 23> C   -1.01789110  -2.09623527  -1.62716114
| 24> H   -0.24348046  -1.92918773  -2.37790062
| 25> H   -1.93978151  -2.50314817  -2.10586025
| 26> H   -0.64299343  -2.79504325  -0.87004258
| 27> C   -1.95202831   0.08462290  -1.97254361
| 28> H   -2.08997144   1.07739561  -1.54461128
| 29> H   -2.92729836  -0.28971377  -2.32634797
| 30> H   -1.26379750   0.15479292  -2.81130059
| 31> C   -1.72410680  -1.21040849   1.40331696
| 32> C   -2.02559410  -2.16463301   2.35291932
| 33> C   -1.56986299  -2.00226378   3.65738941
| 34> C   -1.03554265  -0.78631256   4.01731536
| 35> C   -0.68420312   0.12594318   3.01911388
| 36> C   -0.83541485  -0.15340524   1.66595031
| 37> H   -0.82697377  -0.56007389   5.05854984
| 38> H   -0.26144860   1.05360154   3.35018529
| 39> H   -2.60050816  -3.04642382   2.09424098
| 40> H   -1.76498220  -2.74157964   4.42172583
| 41> H   -0.34712657   2.78833966   0.54926458
| 42> C   -2.37768075  -1.13362608   0.08149730
| 43> H   -3.05459202  -0.28458769   0.19421503
| 44> H   -2.97667518  -2.03142643  -0.14623151
| 45> O    1.39565184   0.35330071  -1.81652301
| 46> C    2.24477179  -0.56054114  -2.15102337
| 47> O    2.30715967  -1.68622867  -1.66072478
| 48> C    3.25825862  -0.14843424  -3.22696974
| 49> H    3.59698719  -1.02015274  -3.77660921
| 50> H    4.14829768   0.27388178  -2.75551191
| 51> H    2.90620205   0.58827422  -3.94896217
| 52> *
| 53>
| 54>                          ****END OF INPUT****

CARTESIAN COORDINATES (ANGSTROEM)
---------------------------------
  Pd     0.196704    0.252536   -0.021191
  O      1.624513    1.634565    0.766479
  C      1.546030    2.850801    0.617338
  O      0.415146    3.466785    0.322603
  C      2.758703    3.679595    0.621439
  H      2.464668    4.618241    1.053232
  H      3.132961    3.872907   -0.400567
  H      3.487346    3.154076    1.253601
  N     -1.365009   -0.813900   -0.959586
  C     -1.017891   -2.096235   -1.627161
  H     -0.243480   -1.929188   -2.377901
  H     -1.939782   -2.503148   -2.105860
  H     -0.642993   -2.795043   -0.870043
  C     -1.952028    0.084623   -1.972544
  H     -2.089971    1.077396   -1.544611
  H     -2.927298   -0.289714   -2.326348
  H     -1.263797    0.154793   -2.811301
  C     -1.724107   -1.210408    1.403317
  C     -2.025594   -2.164633    2.352919
  C     -1.569863   -2.002264    3.657389
  C     -1.035543   -0.786313    4.017315
  C     -0.684203    0.125943    3.019114
  C     -0.835415   -0.153405    1.665950
  H     -0.826974   -0.560074    5.058550
  H     -0.261449    1.053602    3.350185
  H     -2.600508   -3.046424    2.094241
  H     -1.764982   -2.741580    4.421726
  H     -0.347127    2.788340    0.549265
  C     -2.377681   -1.133626    0.081497
  H     -3.054592   -0.284588    0.194215
  H     -2.976675   -2.031426   -0.146232
  O      1.395652    0.353301   -1.816523
  C      2.244772   -0.560541   -2.151023
  O      2.307160   -1.686229   -1.660725
  C      3.258259   -0.148434   -3.226970
  H      3.596987   -1.020153   -3.776609
  H      4.148298    0.273882   -2.755512
  H      2.906202    0.588274   -3.948962

 Total Charge           Charge          ....    0
 Multiplicity           Mult            ....    1
 Number of Electrons    NEL             ....  154
 Basis Dimension        Dim             ....  339

ORBITAL ENERGIES
----------------

  NO   OCC          E(Eh)            E(eV)
   0   2.0000     -19.587459      -533.0018
   1   2.0000     -19.545443      -531.8585
   2   2.0000     -19.435211      -528.8590
   3   2.0000     -19.402855      -527.9785
   4   2.0000     -14.719569      -400.5398
   5   2.0000     -10.626645      -289.1657
   6   2.0000     -10.508415      -285.9485
   7   2.0000     -10.487647      -285.3834
   8   2.0000     -10.482359      -285.2395
   9   2.0000     -10.472950      -284.9835
  10   2.0000     -10.472713      -284.9770
  11   2.0000     -10.447730      -284.2972
  12   2.0000     -10.446157      -284.2544
  13   2.0000     -10.441326      -284.1229
  14   2.0000     -10.438427      -284.0441
  15   2.0000     -10.437829      -284.0278
  16   2.0000     -10.436955      -284.0040
  17   2.0000     -10.399062      -282.9729
  18   2.0000      -3.652249       -99.3827
  19   2.0000      -2.297111       -62.5076
  20   2.0000      -2.294803       -62.4448
  21   2.0000      -2.265889       -61.6580
  22   2.0000      -1.263411       -34.3792
  23   2.0000      -1.165867       -31.7249
  24   2.0000      -1.112259       -30.2661
  25   2.0000      -1.071497       -29.1569
  26   2.0000      -1.016707       -27.6660
  27   2.0000      -0.954859       -25.9830
  28   2.0000      -0.882488       -24.0137
  29   2.0000      -0.870297       -23.6820
  30   2.0000      -0.825972       -22.4758
  31   2.0000      -0.812008       -22.0959
  32   2.0000      -0.782769       -21.3002
  33   2.0000      -0.774063       -21.0633
  34   2.0000      -0.709566       -19.3083
  35   2.0000      -0.707876       -19.2623
  36   2.0000      -0.675288       -18.3755
  37   2.0000      -0.647893       -17.6301
  38   2.0000      -0.627894       -17.0859
  39   2.0000      -0.588029       -16.0011
  40   2.0000      -0.583704       -15.8834
  41   2.0000      -0.574796       -15.6410
  42   2.0000      -0.566245       -15.4083
  43   2.0000      -0.561859       -15.2890
  44   2.0000      -0.557895       -15.1811
  45   2.0000      -0.541295       -14.7294
  46   2.0000      -0.516039       -14.0421
  47   2.0000      -0.499846       -13.6015
  48   2.0000      -0.498425       -13.5628
  49   2.0000      -0.491922       -13.3859
  50   2.0000      -0.486516       -13.2388
  51   2.0000      -0.480344       -13.0708
  52   2.0000      -0.476244       -12.9592
  53   2.0000      -0.466338       -12.6897
  54   2.0000      -0.465159       -12.6576
  55   2.0000      -0.461778       -12.5656
  56   2.0000      -0.452971       -12.3260
  57   2.0000      -0.447709       -12.1828
  58   2.0000      -0.438845       -11.9416
  59   2.0000      -0.431754       -11.7486
  60   2.0000      -0.427419       -11.6307
  61   2.0000      -0.415437       -11.3046
  62   2.0000      -0.413207       -11.2439
  63   2.0000      -0.407290       -11.0829
  64   2.0000      -0.391622       -10.6566
  65   2.0000      -0.387839       -10.5536
  66   2.0000      -0.378788       -10.3073
  67   2.0000      -0.365099        -9.9348
  68   2.0000      -0.349901        -9.5213
  69   2.0000      -0.347047        -9.4436
  70   2.0000      -0.328378        -8.9356
  71   2.0000      -0.298213        -8.1148
  72   2.0000      -0.282448        -7.6858
  73   2.0000      -0.279561        -7.6072
  74   2.0000      -0.276630        -7.5275
  75   2.0000      -0.260043        -7.0761
  76   2.0000      -0.254217        -6.9176
  77   0.0000      -0.039240        -1.0678
  78   0.0000      -0.002978        -0.0810
  79   0.0000       0.008112         0.2207
  80   0.0000       0.026622         0.7244
  81   0.0000       0.031748         0.8639

MULLIKEN ATOMIC CHARGES
-----------------------
   0 Pd:    0.352537
   1 O :   -0.404627
   2 C :    0.620766
   3 O :   -0.552044
   4 C :   -0.736423
   5 H :    0.255112
   6 H :    0.287451
   7 H :    0.276014
   8 N :   -0.474767
   9 C :   -0.513749
  10 H :    0.292807
  11 H :    0.207030
  12 H :    0.278482
  13 C :   -0.520049
  14 H :    0.256239
  15 H :    0.228996
  16 H :    0.284053
  17 C :    0.106320
  18 C :   -0.271286
  19 C :   -0.230379
  20 C :   -0.207303
  21 C :   -0.309406
  22 C :   -0.130690
  23 H :    0.216859
  24 H :    0.203451
  25 H :    0.207251
  26 H :    0.213242
  27 H :    0.476911
  28 C :   -0.338787
  29 H :    0.266881
  30 H :    0.235507
  31 O :   -0.562215
  32 C :    0.534379
  33 O :   -0.479629
  34 C :   -0.743690
  35 H :    0.231314
  36 H :    0.226319
  37 H :    0.217124
Sum of atomic charges:    0.0000000

LOEWDIN ATOMIC CHARGES
----------------------
   0 Pd:   -0.422814
   1 O :   -0.075247
   2 C :    0.200131
   3 O :   -0.247082
   4 C :   -0.363738
   5 H :    0.156314
   6 H :    0.180990
   7 H :    0.171163
   8 N :   -0.034142
   9 C :   -0.224208
  10 H :    0.163559
  11 H :    0.117008
  12 H :    0.158865
  13 C :   -0.230504
  14 H :    0.146680
  15 H :    0.124537
  16 H :    0.159639
  17 C :   -0.052419
  18 C :   -0.140984
  19 C :   -0.137569
  20 C :   -0.138829
  21 C :   -0.129396
  22 C :   -0.033385
  23 H :    0.135595
  24 H :    0.134699
  25 H :    0.134953
  26 H :    0.134038
  27 H :    0.374859
  28 C :   -0.106777
  29 H :    0.153210
  30 H :    0.133452
  31 O :   -0.264360
  32 C :    0.109113
  33 O :   -0.298276
  34 C :   -0.396493
  35 H :    0.136763
  36 H :    0.141763
  37 H :    0.128894

  Mayer bond orders larger than 0.100000
B(  0-Pd,  1-O ) :   0.3587 B(  0-Pd,  8-N ) :   0.4543 B(  0-Pd, 22-C ) :   0.8756
B(  0-Pd, 31-O ) :   0.4892 B(  1-O ,  2-C ) :   1.7251 B(  2-C ,  3-O ) :   1.2287
B(  2-C ,  4-C ) :   0.9587 B(  3-O , 27-H ) :   0.6870 B(  4-C ,  5-H ) :   0.8989
B(  4-C ,  6-H ) :   0.8896 B(  4-C ,  7-H ) :   0.9065 B(  8-N ,  9-C ) :   0.9093
B(  8-N , 13-C ) :   0.9163 B(  8-N , 28-C ) :   0.8762 B(  9-C , 10-H ) :   0.8888
B(  9-C , 11-H ) :   0.9045 B(  9-C , 12-H ) :   0.8984 B( 13-C , 14-H ) :   0.9047
B( 13-C , 15-H ) :   0.9014 B( 13-C , 16-H ) :   0.8914 B( 17-C , 18-C ) :   1.4501
B( 17-C , 22-C ) :   1.2744 B( 17-C , 28-C ) :   0.9629 B( 18-C , 19-C ) :   1.3978
B( 18-C , 25-H ) :   0.9225 B( 19-C , 20-C ) :   1.4639 B( 19-C , 26-H ) :   0.9191
B( 20-C , 21-C ) :   1.3982 B( 20-C , 23-H ) :   0.9175 B( 21-C , 22-C ) :   1.4253
B( 21-C , 24-H ) :   0.9220 B( 28-C , 29-H ) :   0.8962 B( 28-C , 30-H ) :   0.9076
B( 31-O , 32-C ) :   1.3465 B( 31-O , 33-O ) :   0.1071 B( 32-C , 33-O ) :   1.8565
B( 32-C , 34-C ) :   0.9208 B( 34-C , 35-H ) :   0.9216 B( 34-C , 36-H ) :   0.9210
B( 34-C , 37-H ) :   0.9206

Dispersion correction           -0.026242648
FINAL SINGLE POINT ENERGY      -988.509620794584
Dispersion correction            ... done

DIPOLE MOMENT
-------------
                                X             Y             Z
Electronic contribution:      5.53261      13.54457      -2.01796
Nuclear contribution   :     -7.17411     -11.78921       2.33596
                        -----------------------------------------
Total Dipole Moment    :     -1.64150       1.75536       0.31800
                        -----------------------------------------
Magnitude (a.u.)       :      2.42424
Magnitude (Debye)      :      6.16192

Rotational constants in cm-1:     0.013248     0.008978     0.006708
Rotational constants in MHz :   397.165376   269.142541   201.097225

                             ****ORCA TERMINATED NORMALLY****
TOTAL RUN TIME: 0 days 0 hours 7 minutes 47 seconds 774 msec
