                         Program Version 5.0.3 -  RELEASE  -
|  1> ! EnGrad PBEh-3c
|  2> %output
|  3> xyzfile=True
|  4> end
|  5> %scf
|  6> maxiter 250
|  7> end
|  8> %output
|  9> Print[P_Hirshfeld] = 1
| 10> end
| 11> % maxcore
| 12> 4000
| 13> *xyz 0 1
| 14> Pd   0.19828426   0.24338300  -0.02559192
| 15> O    1.61775290   1.60090677   0.76509151
| 16> C    1.53504893   2.82798590   0.59514551
| 17> O    0.38487349   3.45384135   0.31363630
| 18> C    2.76651555   3.68833607   0.63241826
| 19> H    2.47299326   4.62351217   1.05698838
| 20> H    3.13430156   3.86345400  -0.38297480
| 21> H    3.48183023   3.16761981   1.23682334
| 22> N   -1.37504724  -0.82071165  -0.96466480
| 23> C   -1.01702699  -2.09255797  -1.62332351
| 24> H   -0.25178202  -1.93442684  -2.37403171
| 25> H   -1.92604562  -2.49913649  -2.09586393
| 26> H   -0.64603322  -2.79340573  -0.88295704
| 27> C   -1.95065755   0.08390750  -1.97312390
| 28> H   -2.09217981   1.07516739  -1.54934585
| 29> H   -2.91991701  -0.28883163  -2.32195123
| 30> H   -1.26658368   0.15746282  -2.81104248
| 31> C   -1.70682405  -1.22154814   1.40411539
| 32> C   -2.02445098  -2.16737210   2.36032072
| 33> C   -1.58642961  -2.00147172   3.66611530
| 34> C   -1.03378168  -0.78315442   4.01485157
| 35> C   -0.66765360   0.13799877   3.02758310
| 36> C   -0.85192804  -0.14838957   1.67403666
| 37> H   -0.82644300  -0.56414199   5.05711975
| 38> H   -0.25987460   1.07550525   3.36141196
| 39> H   -2.59566819  -3.04126042   2.09010655
| 40> H   -1.76659114  -2.75204083   4.41826937
| 41> H   -0.32073549   2.81054020   0.56076506
| 42> C   -2.37723089  -1.13112414   0.09124178
| 43> H   -3.06185561  -0.28453828   0.17856742
| 44> H   -2.96741206  -2.02325962  -0.14961659
| 45> O    1.39117072   0.35836131  -1.80562527
| 46> C    2.23906234  -0.56771178  -2.15276763
| 47> O    2.29797459  -1.67225190  -1.68509489
| 48> C    3.26519728  -0.14844493  -3.23070134
| 49> H    3.60363408  -1.02391286  -3.77722425
| 50> H    4.15105134   0.27460141  -2.75211324
| 51> H    2.90994669   0.58761553  -3.94575785
| 52> *
| 53>
| 54>                          ****END OF INPUT****

CARTESIAN COORDINATES (ANGSTROEM)
---------------------------------
  Pd     0.198284    0.243383   -0.025592
  O      1.617753    1.600907    0.765092
  C      1.535049    2.827986    0.595146
  O      0.384873    3.453841    0.313636
  C      2.766516    3.688336    0.632418
  H      2.472993    4.623512    1.056988
  H      3.134302    3.863454   -0.382975
  H      3.481830    3.167620    1.236823
  N     -1.375047   -0.820712   -0.964665
  C     -1.017027   -2.092558   -1.623324
  H     -0.251782   -1.934427   -2.374032
  H     -1.926046   -2.499136   -2.095864
  H     -0.646033   -2.793406   -0.882957
  C     -1.950658    0.083907   -1.973124
  H     -2.092180    1.075167   -1.549346
  H     -2.919917   -0.288832   -2.321951
  H     -1.266584    0.157463   -2.811042
  C     -1.706824   -1.221548    1.404115
  C     -2.024451   -2.167372    2.360321
  C     -1.586430   -2.001472    3.666115
  C     -1.033782   -0.783154    4.014852
  C     -0.667654    0.137999    3.027583
  C     -0.851928   -0.148390    1.674037
  H     -0.826443   -0.564142    5.057120
  H     -0.259875    1.075505    3.361412
  H     -2.595668   -3.041260    2.090107
  H     -1.766591   -2.752041    4.418269
  H     -0.320735    2.810540    0.560765
  C     -2.377231   -1.131124    0.091242
  H     -3.061856   -0.284538    0.178567
  H     -2.967412   -2.023260   -0.149617
  O      1.391171    0.358361   -1.805625
  C      2.239062   -0.567712   -2.152768
  O      2.297975   -1.672252   -1.685095
  C      3.265197   -0.148445   -3.230701
  H      3.603634   -1.023913   -3.777224
  H      4.151051    0.274601   -2.752113
  H      2.909947    0.587616   -3.945758

 Total Charge           Charge          ....    0
 Multiplicity           Mult            ....    1
 Number of Electrons    NEL             ....  154
 Basis Dimension        Dim             ....  339

ORBITAL ENERGIES
----------------

  NO   OCC          E(Eh)            E(eV)
   0   2.0000     -19.586111      -532.9652
   1   2.0000     -19.550868      -532.0062
   2   2.0000     -19.432929      -528.7969
   3   2.0000     -19.407184      -528.0963
   4   2.0000     -14.716218      -400.4486
   5   2.0000     -10.634364      -289.3758
   6   2.0000     -10.507833      -285.9327
   7   2.0000     -10.486248      -285.3453
   8   2.0000     -10.479424      -285.1596
   9   2.0000     -10.473071      -284.9868
  10   2.0000     -10.468063      -284.8505
  11   2.0000     -10.445769      -284.2438
  12   2.0000     -10.444121      -284.1990
  13   2.0000     -10.440287      -284.0946
  14   2.0000     -10.439180      -284.0645
  15   2.0000     -10.438626      -284.0495
  16   2.0000     -10.436955      -284.0040
  17   2.0000     -10.398714      -282.9634
  18   2.0000      -3.648827       -99.2896
  19   2.0000      -2.293753       -62.4162
  20   2.0000      -2.291392       -62.3520
  21   2.0000      -2.262431       -61.5639
  22   2.0000      -1.262125       -34.3442
  23   2.0000      -1.167515       -31.7697
  24   2.0000      -1.121131       -30.5075
  25   2.0000      -1.071190       -29.1486
  26   2.0000      -1.021555       -27.7979
  27   2.0000      -0.953269       -25.9398
  28   2.0000      -0.880496       -23.9595
  29   2.0000      -0.868991       -23.6465
  30   2.0000      -0.825545       -22.4642
  31   2.0000      -0.813649       -22.1405
  32   2.0000      -0.782070       -21.2812
  33   2.0000      -0.772289       -21.0150
  34   2.0000      -0.718290       -19.5457
  35   2.0000      -0.707635       -19.2557
  36   2.0000      -0.675576       -18.3834
  37   2.0000      -0.647631       -17.6229
  38   2.0000      -0.630441       -17.1552
  39   2.0000      -0.587484       -15.9862
  40   2.0000      -0.582988       -15.8639
  41   2.0000      -0.571253       -15.5446
  42   2.0000      -0.565289       -15.3823
  43   2.0000      -0.561647       -15.2832
  44   2.0000      -0.556376       -15.1398
  45   2.0000      -0.541143       -14.7252
  46   2.0000      -0.515084       -14.0162
  47   2.0000      -0.505348       -13.7512
  48   2.0000      -0.498934       -13.5767
  49   2.0000      -0.497610       -13.5407
  50   2.0000      -0.488207       -13.2848
  51   2.0000      -0.481539       -13.1033
  52   2.0000      -0.477133       -12.9834
  53   2.0000      -0.467317       -12.7163
  54   2.0000      -0.465423       -12.6648
  55   2.0000      -0.463932       -12.6242
  56   2.0000      -0.453975       -12.3533
  57   2.0000      -0.447867       -12.1871
  58   2.0000      -0.439925       -11.9710
  59   2.0000      -0.432198       -11.7607
  60   2.0000      -0.429391       -11.6843
  61   2.0000      -0.416737       -11.3400
  62   2.0000      -0.414838       -11.2883
  63   2.0000      -0.407727       -11.0948
  64   2.0000      -0.391121       -10.6429
  65   2.0000      -0.389907       -10.6099
  66   2.0000      -0.375287       -10.2121
  67   2.0000      -0.362849        -9.8736
  68   2.0000      -0.347075        -9.4444
  69   2.0000      -0.345236        -9.3943
  70   2.0000      -0.325711        -8.8630
  71   2.0000      -0.295101        -8.0301
  72   2.0000      -0.281670        -7.6646
  73   2.0000      -0.279802        -7.6138
  74   2.0000      -0.278566        -7.5802
  75   2.0000      -0.262251        -7.1362
  76   2.0000      -0.254281        -6.9193
  77   0.0000      -0.036911        -1.0044
  78   0.0000      -0.007096        -0.1931
  79   0.0000       0.012193         0.3318
  80   0.0000       0.026666         0.7256
  81   0.0000       0.036853         1.0028

MULLIKEN ATOMIC CHARGES
-----------------------
   0 Pd:    0.350918
   1 O :   -0.407592
   2 C :    0.614305
   3 O :   -0.561233
   4 C :   -0.729220
   5 H :    0.258306
   6 H :    0.285705
   7 H :    0.280950
   8 N :   -0.473542
   9 C :   -0.518048
  10 H :    0.292423
  11 H :    0.208227
  12 H :    0.279308
  13 C :   -0.522884
  14 H :    0.257906
  15 H :    0.228346
  16 H :    0.284757
  17 C :    0.111707
  18 C :   -0.271634
  19 C :   -0.228348
  20 C :   -0.213954
  21 C :   -0.303533
  22 C :   -0.141120
  23 H :    0.214584
  24 H :    0.203175
  25 H :    0.206721
  26 H :    0.215320
  27 H :    0.483996
  28 C :   -0.336085
  29 H :    0.265247
  30 H :    0.233905
  31 O :   -0.572705
  32 C :    0.527976
  33 O :   -0.450383
  34 C :   -0.745256
  35 H :    0.228878
  36 H :    0.224859
  37 H :    0.218016
Sum of atomic charges:    0.0000000

LOEWDIN ATOMIC CHARGES
----------------------
   0 Pd:   -0.430335
   1 O :   -0.076330
   2 C :    0.232237
   3 O :   -0.255142
   4 C :   -0.363994
   5 H :    0.156429
   6 H :    0.178474
   7 H :    0.168950
   8 N :   -0.035435
   9 C :   -0.226460
  10 H :    0.162373
  11 H :    0.116141
  12 H :    0.157555
  13 C :   -0.230941
  14 H :    0.147073
  15 H :    0.123345
  16 H :    0.159787
  17 C :   -0.055530
  18 C :   -0.138061
  19 C :   -0.139797
  20 C :   -0.135730
  21 C :   -0.130438
  22 C :   -0.034959
  23 H :    0.134327
  24 H :    0.135420
  25 H :    0.134204
  26 H :    0.134768
  27 H :    0.363234
  28 C :   -0.102981
  29 H :    0.151542
  30 H :    0.131591
  31 O :   -0.273424
  32 C :    0.100803
  33 O :   -0.264957
  34 C :   -0.399015
  35 H :    0.135731
  36 H :    0.140728
  37 H :    0.128818

  Mayer bond orders larger than 0.100000
B(  0-Pd,  1-O ) :   0.3616 B(  0-Pd,  8-N ) :   0.4531 B(  0-Pd, 22-C ) :   0.8620
B(  0-Pd, 31-O ) :   0.5025 B(  1-O ,  2-C ) :   1.7177 B(  2-C ,  3-O ) :   1.2124
B(  2-C ,  4-C ) :   0.9598 B(  3-O , 27-H ) :   0.6901 B(  4-C ,  5-H ) :   0.8998
B(  4-C ,  6-H ) :   0.8902 B(  4-C ,  7-H ) :   0.9030 B(  8-N ,  9-C ) :   0.9148
B(  8-N , 13-C ) :   0.9187 B(  8-N , 28-C ) :   0.8755 B(  9-C , 10-H ) :   0.8898
B(  9-C , 11-H ) :   0.9048 B(  9-C , 12-H ) :   0.8986 B( 13-C , 14-H ) :   0.9045
B( 13-C , 15-H ) :   0.9016 B( 13-C , 16-H ) :   0.8914 B( 17-C , 18-C ) :   1.4430
B( 17-C , 22-C ) :   1.2834 B( 17-C , 28-C ) :   0.9651 B( 18-C , 19-C ) :   1.4072
B( 18-C , 25-H ) :   0.9216 B( 19-C , 20-C ) :   1.4545 B( 19-C , 26-H ) :   0.9188
B( 20-C , 21-C ) :   1.4079 B( 20-C , 23-H ) :   0.9182 B( 21-C , 22-C ) :   1.4167
B( 21-C , 24-H ) :   0.9231 B( 28-C , 29-H ) :   0.8965 B( 28-C , 30-H ) :   0.9078
B( 31-O , 32-C ) :   1.3218 B( 31-O , 33-O ) :   0.1045 B( 32-C , 33-O ) :   1.8939
B( 32-C , 34-C ) :   0.9170 B( 34-C , 35-H ) :   0.9226 B( 34-C , 36-H ) :   0.9222
B( 34-C , 37-H ) :   0.9208

Dispersion correction           -0.026192358
FINAL SINGLE POINT ENERGY      -988.516121740965
Dispersion correction            ... done

DIPOLE MOMENT
-------------
                                X             Y             Z
Electronic contribution:      5.78592      13.06391      -2.22128
Nuclear contribution   :     -7.31853     -11.34539       2.55452
                        -----------------------------------------
Total Dipole Moment    :     -1.53261       1.71852       0.33325
                        -----------------------------------------
Magnitude (a.u.)       :      2.32664
Magnitude (Debye)      :      5.91385

Rotational constants in cm-1:     0.013281     0.008976     0.006713
Rotational constants in MHz :   398.142071   269.101531   201.244039

                             ****ORCA TERMINATED NORMALLY****
TOTAL RUN TIME: 0 days 0 hours 8 minutes 12 seconds 435 msec
