                         Program Version 5.0.3 -  RELEASE  -
|  1> ! EnGrad PBEh-3c
|  2> %output
|  3> xyzfile=True
|  4> end
|  5> %scf
|  6> maxiter 250
|  7> end
|  8> %output
|  9> Print[P_Hirshfeld] = 1
| 10> end
| 11> % maxcore
| 12> 4000
| 13> *xyz 0 1
| 14> Pd   0.20546977   0.24400367  -0.02383128
| 15> O    1.63338167   1.60460637   0.76405903
| 16> C    1.53091318   2.80395882   0.59295540
| 17> O    0.37642695   3.43318516   0.33467651
| 18> C    2.77078714   3.68510253   0.63321116
| 19> H    2.48765720   4.62787082   1.05810590
| 20> H    3.14155718   3.86220542  -0.37848008
| 21> H    3.50121594   3.17614189   1.23572566
| 22> N   -1.37985265  -0.82607878  -0.96823785
| 23> C   -1.01329688  -2.09425359  -1.61994952
| 24> H   -0.24481112  -1.93805537  -2.36635993
| 25> H   -1.91421192  -2.50647888  -2.08982508
| 26> H   -0.64415007  -2.78777855  -0.87431168
| 27> C   -1.94947074   0.07584965  -1.97792204
| 28> H   -2.09280765   1.06608990  -1.55378401
| 29> H   -2.91588992  -0.29772314  -2.32666428
| 30> H   -1.26158319   0.15079523  -2.81313214
| 31> C   -1.71078408  -1.22392651   1.40282893
| 32> C   -2.03117152  -2.16241630   2.36233354
| 33> C   -1.59536962  -1.99580839   3.66823057
| 34> C   -1.03128931  -0.78296454   4.01062834
| 35> C   -0.65593004   0.13021081   3.02243018
| 36> C   -0.85084223  -0.15171604   1.67203660
| 37> H   -0.82740338  -0.56326940   5.05277709
| 38> H   -0.22520277   1.06270822   3.35664051
| 39> H   -2.60885958  -3.03152351   2.09478877
| 40> H   -1.78036096  -2.74015415   4.42748776
| 41> H   -0.34955903   2.82918647   0.53872417
| 42> C   -2.38085575  -1.13149677   0.08790885
| 43> H   -3.06458367  -0.28257304   0.17110002
| 44> H   -2.96954465  -2.02134933  -0.15837765
| 45> O    1.38988181   0.36543624  -1.80116275
| 46> C    2.23384023  -0.55203654  -2.15313961
| 47> O    2.29687042  -1.66819072  -1.68308673
| 48> C    3.25698010  -0.14459276  -3.22963319
| 49> H    3.59457385  -1.02021331  -3.78031512
| 50> H    4.13961238   0.28150142  -2.74837172
| 51> H    2.89356801   0.59459193  -3.93858733
| 52> *
| 53>
| 54>                          ****END OF INPUT****

CARTESIAN COORDINATES (ANGSTROEM)
---------------------------------
  Pd     0.205470    0.244004   -0.023831
  O      1.633382    1.604606    0.764059
  C      1.530913    2.803959    0.592955
  O      0.376427    3.433185    0.334677
  C      2.770787    3.685103    0.633211
  H      2.487657    4.627871    1.058106
  H      3.141557    3.862205   -0.378480
  H      3.501216    3.176142    1.235726
  N     -1.379853   -0.826079   -0.968238
  C     -1.013297   -2.094254   -1.619950
  H     -0.244811   -1.938055   -2.366360
  H     -1.914212   -2.506479   -2.089825
  H     -0.644150   -2.787779   -0.874312
  C     -1.949471    0.075850   -1.977922
  H     -2.092808    1.066090   -1.553784
  H     -2.915890   -0.297723   -2.326664
  H     -1.261583    0.150795   -2.813132
  C     -1.710784   -1.223927    1.402829
  C     -2.031172   -2.162416    2.362334
  C     -1.595370   -1.995808    3.668231
  C     -1.031289   -0.782965    4.010628
  C     -0.655930    0.130211    3.022430
  C     -0.850842   -0.151716    1.672037
  H     -0.827403   -0.563269    5.052777
  H     -0.225203    1.062708    3.356641
  H     -2.608860   -3.031524    2.094789
  H     -1.780361   -2.740154    4.427488
  H     -0.349559    2.829186    0.538724
  C     -2.380856   -1.131497    0.087909
  H     -3.064584   -0.282573    0.171100
  H     -2.969545   -2.021349   -0.158378
  O      1.389882    0.365436   -1.801163
  C      2.233840   -0.552037   -2.153140
  O      2.296870   -1.668191   -1.683087
  C      3.256980   -0.144593   -3.229633
  H      3.594574   -1.020213   -3.780315
  H      4.139612    0.281501   -2.748372
  H      2.893568    0.594592   -3.938587

 Total Charge           Charge          ....    0
 Multiplicity           Mult            ....    1
 Number of Electrons    NEL             ....  154
 Basis Dimension        Dim             ....  339

ORBITAL ENERGIES
----------------

  NO   OCC          E(Eh)            E(eV)
   0   2.0000     -19.581769      -532.8470
   1   2.0000     -19.552195      -532.0423
   2   2.0000     -19.435733      -528.8732
   3   2.0000     -19.405214      -528.0427
   4   2.0000     -14.715813      -400.4376
   5   2.0000     -10.632381      -289.3218
   6   2.0000     -10.508322      -285.9460
   7   2.0000     -10.486899      -285.3630
   8   2.0000     -10.479470      -285.1609
   9   2.0000     -10.471999      -284.9576
  10   2.0000     -10.466802      -284.8162
  11   2.0000     -10.446596      -284.2663
  12   2.0000     -10.444650      -284.2134
  13   2.0000     -10.440654      -284.1046
  14   2.0000     -10.439448      -284.0718
  15   2.0000     -10.438780      -284.0536
  16   2.0000     -10.437450      -284.0174
  17   2.0000     -10.399401      -282.9821
  18   2.0000      -3.649377       -99.3046
  19   2.0000      -2.294315       -62.4315
  20   2.0000      -2.292013       -62.3689
  21   2.0000      -2.263035       -61.5803
  22   2.0000      -1.266641       -34.4670
  23   2.0000      -1.177732       -32.0477
  24   2.0000      -1.118670       -30.4406
  25   2.0000      -1.072556       -29.1857
  26   2.0000      -1.021842       -27.8057
  27   2.0000      -0.954229       -25.9659
  28   2.0000      -0.873874       -23.7793
  29   2.0000      -0.869638       -23.6641
  30   2.0000      -0.826306       -22.4849
  31   2.0000      -0.814936       -22.1755
  32   2.0000      -0.783223       -21.3126
  33   2.0000      -0.773680       -21.0529
  34   2.0000      -0.725568       -19.7437
  35   2.0000      -0.707588       -19.2545
  36   2.0000      -0.675898       -18.3921
  37   2.0000      -0.648488       -17.6463
  38   2.0000      -0.631947       -17.1962
  39   2.0000      -0.588140       -16.0041
  40   2.0000      -0.583912       -15.8890
  41   2.0000      -0.572270       -15.5723
  42   2.0000      -0.566029       -15.4024
  43   2.0000      -0.562569       -15.3083
  44   2.0000      -0.557716       -15.1762
  45   2.0000      -0.541940       -14.7469
  46   2.0000      -0.515867       -14.0375
  47   2.0000      -0.502856       -13.6834
  48   2.0000      -0.498880       -13.5752
  49   2.0000      -0.494689       -13.4612
  50   2.0000      -0.488434       -13.2910
  51   2.0000      -0.481169       -13.0933
  52   2.0000      -0.477703       -12.9990
  53   2.0000      -0.467907       -12.7324
  54   2.0000      -0.465940       -12.6789
  55   2.0000      -0.463819       -12.6212
  56   2.0000      -0.454634       -12.3712
  57   2.0000      -0.448900       -12.2152
  58   2.0000      -0.440065       -11.9748
  59   2.0000      -0.433846       -11.8055
  60   2.0000      -0.430918       -11.7259
  61   2.0000      -0.416628       -11.3370
  62   2.0000      -0.414737       -11.2856
  63   2.0000      -0.408635       -11.1195
  64   2.0000      -0.391798       -10.6614
  65   2.0000      -0.389842       -10.6081
  66   2.0000      -0.374154       -10.1813
  67   2.0000      -0.363376        -9.8880
  68   2.0000      -0.347367        -9.4523
  69   2.0000      -0.346110        -9.4181
  70   2.0000      -0.326960        -8.8970
  71   2.0000      -0.295979        -8.0540
  72   2.0000      -0.282989        -7.7005
  73   2.0000      -0.280966        -7.6455
  74   2.0000      -0.278884        -7.5888
  75   2.0000      -0.261461        -7.1147
  76   2.0000      -0.254779        -6.9329
  77   0.0000      -0.038715        -1.0535
  78   0.0000      -0.000229        -0.0062
  79   0.0000       0.012221         0.3326
  80   0.0000       0.026653         0.7253
  81   0.0000       0.037649         1.0245

MULLIKEN ATOMIC CHARGES
-----------------------
   0 Pd:    0.348071
   1 O :   -0.386358
   2 C :    0.608918
   3 O :   -0.569833
   4 C :   -0.731470
   5 H :    0.257163
   6 H :    0.282649
   7 H :    0.278365
   8 N :   -0.469513
   9 C :   -0.519663
  10 H :    0.292986
  11 H :    0.208975
  12 H :    0.279447
  13 C :   -0.522585
  14 H :    0.256435
  15 H :    0.228562
  16 H :    0.284212
  17 C :    0.111580
  18 C :   -0.272189
  19 C :   -0.228322
  20 C :   -0.212877
  21 C :   -0.302822
  22 C :   -0.139236
  23 H :    0.214926
  24 H :    0.203717
  25 H :    0.206701
  26 H :    0.215800
  27 H :    0.485252
  28 C :   -0.336521
  29 H :    0.264567
  30 H :    0.233970
  31 O :   -0.568003
  32 C :    0.530930
  33 O :   -0.463479
  34 C :   -0.743243
  35 H :    0.230332
  36 H :    0.225662
  37 H :    0.216896
Sum of atomic charges:   -0.0000000

LOEWDIN ATOMIC CHARGES
----------------------
   0 Pd:   -0.424760
   1 O :   -0.054684
   2 C :    0.223244
   3 O :   -0.257584
   4 C :   -0.365424
   5 H :    0.154605
   6 H :    0.175155
   7 H :    0.166586
   8 N :   -0.036314
   9 C :   -0.227601
  10 H :    0.162719
  11 H :    0.115974
  12 H :    0.157488
  13 C :   -0.231380
  14 H :    0.146277
  15 H :    0.123231
  16 H :    0.159663
  17 C :   -0.055498
  18 C :   -0.137262
  19 C :   -0.139611
  20 C :   -0.135090
  21 C :   -0.130335
  22 C :   -0.034587
  23 H :    0.134275
  24 H :    0.135984
  25 H :    0.134233
  26 H :    0.135099
  27 H :    0.357524
  28 C :   -0.103070
  29 H :    0.151288
  30 H :    0.131460
  31 O :   -0.265301
  32 C :    0.102973
  33 O :   -0.279372
  34 C :   -0.396861
  35 H :    0.136850
  36 H :    0.141480
  37 H :    0.128629

  Mayer bond orders larger than 0.100000
B(  0-Pd,  1-O ) :   0.3553 B(  0-Pd,  8-N ) :   0.4520 B(  0-Pd, 22-C ) :   0.8643
B(  0-Pd, 31-O ) :   0.4977 B(  1-O ,  2-C ) :   1.7469 B(  2-C ,  3-O ) :   1.2003
B(  2-C ,  4-C ) :   0.9526 B(  3-O , 27-H ) :   0.6914 B(  4-C ,  5-H ) :   0.9018
B(  4-C ,  6-H ) :   0.8924 B(  4-C ,  7-H ) :   0.9043 B(  8-N ,  9-C ) :   0.9164
B(  8-N , 13-C ) :   0.9203 B(  8-N , 28-C ) :   0.8769 B(  9-C , 10-H ) :   0.8894
B(  9-C , 11-H ) :   0.9042 B(  9-C , 12-H ) :   0.8986 B( 13-C , 14-H ) :   0.9052
B( 13-C , 15-H ) :   0.9014 B( 13-C , 16-H ) :   0.8918 B( 17-C , 18-C ) :   1.4463
B( 17-C , 22-C ) :   1.2817 B( 17-C , 28-C ) :   0.9653 B( 18-C , 19-C ) :   1.4047
B( 18-C , 25-H ) :   0.9217 B( 19-C , 20-C ) :   1.4568 B( 19-C , 26-H ) :   0.9187
B( 20-C , 21-C ) :   1.4058 B( 20-C , 23-H ) :   0.9180 B( 21-C , 22-C ) :   1.4183
B( 21-C , 24-H ) :   0.9227 B( 28-C , 29-H ) :   0.8969 B( 28-C , 30-H ) :   0.9075
B( 31-O , 32-C ) :   1.3323 B( 31-O , 33-O ) :   0.1051 B( 32-C , 33-O ) :   1.8756
B( 32-C , 34-C ) :   0.9197 B( 34-C , 35-H ) :   0.9227 B( 34-C , 36-H ) :   0.9216
B( 34-C , 37-H ) :   0.9206

Dispersion correction           -0.026229231
FINAL SINGLE POINT ENERGY      -988.520301715266
Dispersion correction            ... done

DIPOLE MOMENT
-------------
                                X             Y             Z
Electronic contribution:      6.13219      13.09058      -2.15625
Nuclear contribution   :     -7.71077     -11.40005       2.48018
                        -----------------------------------------
Total Dipole Moment    :     -1.57859       1.69053       0.32392
                        -----------------------------------------
Magnitude (a.u.)       :      2.33554
Magnitude (Debye)      :      5.93648

Rotational constants in cm-1:     0.013317     0.008990     0.006720
Rotational constants in MHz :   399.241022   269.507418   201.470229

                             ****ORCA TERMINATED NORMALLY****
TOTAL RUN TIME: 0 days 0 hours 8 minutes 13 seconds 812 msec
