                         Program Version 5.0.3 -  RELEASE  -
|  1> ! EnGrad PBEh-3c
|  2> %output
|  3> xyzfile=True
|  4> end
|  5> %scf
|  6> maxiter 250
|  7> end
|  8> %output
|  9> Print[P_Hirshfeld] = 1
| 10> end
| 11> % maxcore
| 12> 4000
| 13> *xyz 0 1
| 14> Pd   0.21842245   0.23888574  -0.01441837
| 15> O    1.67932545   1.57638675   0.75314260
| 16> C    1.52820508   2.77817548   0.59516474
| 17> O    0.37320786   3.37158905   0.38409788
| 18> C    2.76696861   3.66492099   0.63382833
| 19> H    2.53134437   4.63396697   1.06150165
| 20> H    3.17161730   3.85855887  -0.36482637
| 21> H    3.56213266   3.20211227   1.23239888
| 22> N   -1.38594445  -0.83646642  -0.97244315
| 23> C   -0.99977560  -2.09987382  -1.60607531
| 24> H   -0.22179190  -1.95221687  -2.34316500
| 25> H   -1.88334359  -2.53500116  -2.07008092
| 26> H   -0.63706203  -2.77594435  -0.84482094
| 27> C   -1.94407446   0.04924641  -1.99312987
| 28> H   -2.09385234   1.03687110  -1.57154271
| 29> H   -2.90619617  -0.32830840  -2.34273274
| 30> H   -1.24540231   0.12664320  -2.82129303
| 31> C   -1.72120276  -1.22673900   1.40034857
| 32> C   -2.05757193  -2.14658785   2.37016712
| 33> C   -1.62566323  -1.97843689   3.67838897
| 34> C   -1.02648638  -0.78199813   4.00367532
| 35> C   -0.61764335   0.11474948   3.01367577
| 36> C   -0.84210696  -0.16062729   1.66833275
| 37> H   -0.82739165  -0.56487071   5.04143069
| 38> H   -0.12350809   1.02742186   3.34818841
| 39> H   -2.65206676  -3.00166541   2.10803297
| 40> H   -1.83005820  -2.70733386   4.45606480
| 41> H   -0.45310316   2.88712493   0.48132827
| 42> C   -2.39024120  -1.13049105   0.07703830
| 43> H   -3.07284458  -0.27479433   0.14441136
| 44> H   -2.97651949  -2.01668122  -0.18469940
| 45> O    1.38649998   0.39265119  -1.78930104
| 46> C    2.21953094  -0.51996682  -2.15775838
| 47> O    2.28785333  -1.64231331  -1.69082732
| 48> C    3.23289055  -0.12819380  -3.23046371
| 49> H    3.56865383  -1.00488900  -3.79111178
| 50> H    4.10814359   0.30567221  -2.73963975
| 51> H    2.84717885   0.61875489  -3.91974606
| 52> *
| 53>
| 54>                          ****END OF INPUT****

CARTESIAN COORDINATES (ANGSTROEM)
---------------------------------
  Pd     0.218422    0.238886   -0.014418
  O      1.679325    1.576387    0.753143
  C      1.528205    2.778175    0.595165
  O      0.373208    3.371589    0.384098
  C      2.766969    3.664921    0.633828
  H      2.531344    4.633967    1.061502
  H      3.171617    3.858559   -0.364826
  H      3.562133    3.202112    1.232399
  N     -1.385944   -0.836466   -0.972443
  C     -0.999776   -2.099874   -1.606075
  H     -0.221792   -1.952217   -2.343165
  H     -1.883344   -2.535001   -2.070081
  H     -0.637062   -2.775944   -0.844821
  C     -1.944074    0.049246   -1.993130
  H     -2.093852    1.036871   -1.571543
  H     -2.906196   -0.328308   -2.342733
  H     -1.245402    0.126643   -2.821293
  C     -1.721203   -1.226739    1.400349
  C     -2.057572   -2.146588    2.370167
  C     -1.625663   -1.978437    3.678389
  C     -1.026486   -0.781998    4.003675
  C     -0.617643    0.114749    3.013676
  C     -0.842107   -0.160627    1.668333
  H     -0.827392   -0.564871    5.041431
  H     -0.123508    1.027422    3.348188
  H     -2.652067   -3.001665    2.108033
  H     -1.830058   -2.707334    4.456065
  H     -0.453103    2.887125    0.481328
  C     -2.390241   -1.130491    0.077038
  H     -3.072845   -0.274794    0.144411
  H     -2.976519   -2.016681   -0.184699
  O      1.386500    0.392651   -1.789301
  C      2.219531   -0.519967   -2.157758
  O      2.287853   -1.642313   -1.690827
  C      3.232891   -0.128194   -3.230464
  H      3.568654   -1.004889   -3.791112
  H      4.108144    0.305672   -2.739640
  H      2.847179    0.618755   -3.919746

 Total Charge           Charge          ....    0
 Multiplicity           Mult            ....    1
 Number of Electrons    NEL             ....  154
 Basis Dimension        Dim             ....  339

ORBITAL ENERGIES
----------------

  NO   OCC          E(Eh)            E(eV)
   0   2.0000     -19.582739      -532.8734
   1   2.0000     -19.546534      -531.8882
   2   2.0000     -19.435788      -528.8747
   3   2.0000     -19.401908      -527.9528
   4   2.0000     -14.712551      -400.3489
   5   2.0000     -10.633946      -289.3644
   6   2.0000     -10.505832      -285.8782
   7   2.0000     -10.487190      -285.3710
   8   2.0000     -10.478120      -285.1241
   9   2.0000     -10.474406      -285.0231
  10   2.0000     -10.463214      -284.7185
  11   2.0000     -10.447038      -284.2783
  12   2.0000     -10.443538      -284.1831
  13   2.0000     -10.440098      -284.0895
  14   2.0000     -10.438923      -284.0575
  15   2.0000     -10.437609      -284.0218
  16   2.0000     -10.436935      -284.0034
  17   2.0000     -10.398894      -282.9683
  18   2.0000      -3.646988       -99.2396
  19   2.0000      -2.292005       -62.3686
  20   2.0000      -2.289457       -62.2993
  21   2.0000      -2.260735       -61.5177
  22   2.0000      -1.266671       -34.4679
  23   2.0000      -1.175748       -31.9937
  24   2.0000      -1.117795       -30.4168
  25   2.0000      -1.073713       -29.2172
  26   2.0000      -1.021030       -27.7836
  27   2.0000      -0.952788       -25.9267
  28   2.0000      -0.869717       -23.6662
  29   2.0000      -0.868168       -23.6240
  30   2.0000      -0.825142       -22.4533
  31   2.0000      -0.815404       -22.1883
  32   2.0000      -0.783467       -21.3192
  33   2.0000      -0.774833       -21.0843
  34   2.0000      -0.750432       -20.4203
  35   2.0000      -0.705444       -19.1961
  36   2.0000      -0.674490       -18.3538
  37   2.0000      -0.648061       -17.6346
  38   2.0000      -0.628158       -17.0931
  39   2.0000      -0.587084       -15.9754
  40   2.0000      -0.583754       -15.8848
  41   2.0000      -0.571454       -15.5500
  42   2.0000      -0.565333       -15.3835
  43   2.0000      -0.562375       -15.3030
  44   2.0000      -0.556760       -15.1502
  45   2.0000      -0.541668       -14.7395
  46   2.0000      -0.515171       -14.0185
  47   2.0000      -0.497402       -13.5350
  48   2.0000      -0.492434       -13.3998
  49   2.0000      -0.487907       -13.2766
  50   2.0000      -0.483932       -13.1685
  51   2.0000      -0.478687       -13.0257
  52   2.0000      -0.476378       -12.9629
  53   2.0000      -0.468669       -12.7531
  54   2.0000      -0.465154       -12.6575
  55   2.0000      -0.463267       -12.6061
  56   2.0000      -0.454145       -12.3579
  57   2.0000      -0.448564       -12.2061
  58   2.0000      -0.438095       -11.9212
  59   2.0000      -0.432753       -11.7758
  60   2.0000      -0.430427       -11.7125
  61   2.0000      -0.416010       -11.3202
  62   2.0000      -0.412523       -11.2253
  63   2.0000      -0.408502       -11.1159
  64   2.0000      -0.390016       -10.6129
  65   2.0000      -0.387850       -10.5539
  66   2.0000      -0.369050       -10.0424
  67   2.0000      -0.362523        -9.8647
  68   2.0000      -0.344634        -9.3780
  69   2.0000      -0.344288        -9.3686
  70   2.0000      -0.325185        -8.8487
  71   2.0000      -0.294176        -8.0049
  72   2.0000      -0.283140        -7.7046
  73   2.0000      -0.280791        -7.6407
  74   2.0000      -0.277489        -7.5509
  75   2.0000      -0.259798        -7.0695
  76   2.0000      -0.253301        -6.8927
  77   0.0000      -0.037021        -1.0074
  78   0.0000       0.001885         0.0513
  79   0.0000       0.012699         0.3456
  80   0.0000       0.027118         0.7379
  81   0.0000       0.036564         0.9950

MULLIKEN ATOMIC CHARGES
-----------------------
   0 Pd:    0.339904
   1 O :   -0.391508
   2 C :    0.632389
   3 O :   -0.573653
   4 C :   -0.743097
   5 H :    0.254918
   6 H :    0.282280
   7 H :    0.279119
   8 N :   -0.462855
   9 C :   -0.523538
  10 H :    0.293787
  11 H :    0.209227
  12 H :    0.278919
  13 C :   -0.519750
  14 H :    0.250479
  15 H :    0.227544
  16 H :    0.283062
  17 C :    0.110096
  18 C :   -0.274766
  19 C :   -0.227211
  20 C :   -0.212002
  21 C :   -0.299312
  22 C :   -0.138165
  23 H :    0.214707
  24 H :    0.204698
  25 H :    0.206102
  26 H :    0.215642
  27 H :    0.496870
  28 C :   -0.335889
  29 H :    0.260968
  30 H :    0.233081
  31 O :   -0.565413
  32 C :    0.533649
  33 O :   -0.471360
  34 C :   -0.739922
  35 H :    0.230221
  36 H :    0.226095
  37 H :    0.214686
Sum of atomic charges:   -0.0000000

LOEWDIN ATOMIC CHARGES
----------------------
   0 Pd:   -0.424583
   1 O :   -0.059342
   2 C :    0.221460
   3 O :   -0.241802
   4 C :   -0.368015
   5 H :    0.152111
   6 H :    0.173080
   7 H :    0.167063
   8 N :   -0.039152
   9 C :   -0.230133
  10 H :    0.163282
  11 H :    0.114978
  12 H :    0.156850
  13 C :   -0.232220
  14 H :    0.143021
  15 H :    0.122519
  16 H :    0.159435
  17 C :   -0.055426
  18 C :   -0.135897
  19 C :   -0.140767
  20 C :   -0.134029
  21 C :   -0.130051
  22 C :   -0.033859
  23 H :    0.133402
  24 H :    0.137370
  25 H :    0.133777
  26 H :    0.135521
  27 H :    0.364748
  28 C :   -0.103159
  29 H :    0.149714
  30 H :    0.130793
  31 O :   -0.259066
  32 C :    0.099395
  33 O :   -0.286639
  34 C :   -0.393167
  35 H :    0.137809
  36 H :    0.142699
  37 H :    0.128280

  Mayer bond orders larger than 0.100000
B(  0-Pd,  1-O ) :   0.3684 B(  0-Pd,  8-N ) :   0.4429 B(  0-Pd, 22-C ) :   0.8713
B(  0-Pd, 31-O ) :   0.4939 B(  1-O ,  2-C ) :   1.7273 B(  2-C ,  3-O ) :   1.2062
B(  2-C ,  4-C ) :   0.9487 B(  3-O , 27-H ) :   0.6812 B(  4-C ,  5-H ) :   0.9027
B(  4-C ,  6-H ) :   0.8912 B(  4-C ,  7-H ) :   0.9043 B(  8-N ,  9-C ) :   0.9201
B(  8-N , 13-C ) :   0.9249 B(  8-N , 28-C ) :   0.8807 B(  9-C , 10-H ) :   0.8886
B(  9-C , 11-H ) :   0.9035 B(  9-C , 12-H ) :   0.8989 B( 13-C , 14-H ) :   0.9077
B( 13-C , 15-H ) :   0.9014 B( 13-C , 16-H ) :   0.8926 B( 17-C , 18-C ) :   1.4533
B( 17-C , 22-C ) :   1.2758 B( 17-C , 28-C ) :   0.9654 B( 18-C , 19-C ) :   1.3973
B( 18-C , 25-H ) :   0.9220 B( 19-C , 20-C ) :   1.4628 B( 19-C , 26-H ) :   0.9190
B( 20-C , 21-C ) :   1.3991 B( 20-C , 23-H ) :   0.9178 B( 21-C , 22-C ) :   1.4212
B( 21-C , 24-H ) :   0.9220 B( 28-C , 29-H ) :   0.8982 B( 28-C , 30-H ) :   0.9070
B( 31-O , 32-C ) :   1.3400 B( 31-O , 33-O ) :   0.1050 B( 32-C , 33-O ) :   1.8625
B( 32-C , 34-C ) :   0.9235 B( 34-C , 35-H ) :   0.9237 B( 34-C , 36-H ) :   0.9211
B( 34-C , 37-H ) :   0.9208

Dispersion correction           -0.026279883
FINAL SINGLE POINT ENERGY      -988.521376204330
Dispersion correction            ... done

DIPOLE MOMENT
-------------
                                X             Y             Z
Electronic contribution:      6.75104      13.00768      -1.72516
Nuclear contribution   :     -8.40577     -11.18940       2.01491
                        -----------------------------------------
Total Dipole Moment    :     -1.65473       1.81828       0.28975
                        -----------------------------------------
Magnitude (a.u.)       :      2.47552
Magnitude (Debye)      :      6.29228

Rotational constants in cm-1:     0.013444     0.009025     0.006737
Rotational constants in MHz :   403.036784   270.567175   201.956508

                             ****ORCA TERMINATED NORMALLY****
TOTAL RUN TIME: 0 days 0 hours 8 minutes 2 seconds 193 msec
