                         Program Version 5.0.3 -  RELEASE  -
|  1> ! EnGrad PBEh-3c
|  2> %output
|  3> xyzfile=True
|  4> end
|  5> %scf
|  6> maxiter 250
|  7> end
|  8> %output
|  9> Print[P_Hirshfeld] = 1
| 10> end
| 11> % maxcore
| 12> 4000
| 13> *xyz 0 1
| 14> Pd   0.21923374   0.23022339  -0.01866979
| 15> O    1.67611069   1.57989952   0.75155191
| 16> C    1.54149818   2.73946748   0.58858300
| 17> O    0.37017485   3.36092781   0.40919195
| 18> C    2.75255864   3.66280355   0.63571016
| 19> H    2.54321254   4.64394252   1.06532692
| 20> H    3.17304642   3.85152263  -0.35718762
| 21> H    3.57274776   3.21068249   1.22629899
| 22> N   -1.38647224  -0.83573545  -0.97243139
| 23> C   -0.99616314  -2.09731998  -1.60239546
| 24> H   -0.21870708  -1.95209034  -2.34040969
| 25> H   -1.87433511  -2.54005394  -2.06866186
| 26> H   -0.63312111  -2.77377137  -0.84331576
| 27> C   -1.94342693   0.04688283  -1.99504469
| 28> H   -2.09871490   1.03376018  -1.57296549
| 29> H   -2.90415634  -0.33315239  -2.34792983
| 30> H   -1.24364329   0.12775901  -2.82243709
| 31> C   -1.72140143  -1.22536969   1.40284626
| 32> C   -2.05705081  -2.14697402   2.37137117
| 33> C   -1.63729243  -1.96920159   3.68347432
| 34> C   -1.01899432  -0.77857832   4.00153111
| 35> C   -0.60338358   0.11595710   3.01141305
| 36> C   -0.83946687  -0.15698297   1.66654391
| 37> H   -0.82662791  -0.56212578   5.03929313
| 38> H   -0.09615827   1.02141369   3.34345034
| 39> H   -2.65846727  -3.00045308   2.10709777
| 40> H   -1.83580268  -2.70146322   4.45842676
| 41> H   -0.47181165   2.89481196   0.46012020
| 42> C   -2.38968698  -1.13018900   0.07500038
| 43> H   -3.07850314  -0.27883418   0.13201363
| 44> H   -2.97467682  -2.01481416  -0.19379223
| 45> O    1.38463604   0.40017351  -1.78091534
| 46> C    2.21290151  -0.50181028  -2.15908390
| 47> O    2.27827172  -1.65090614  -1.69300369
| 48> C    3.22656719  -0.12625901  -3.22629475
| 49> H    3.56407408  -1.00457339  -3.78750963
| 50> H    4.10032280   0.30803024  -2.73159987
| 51> H    2.83809732   0.62229991  -3.91239906
| 52> *
| 53>
| 54>                          ****END OF INPUT****

CARTESIAN COORDINATES (ANGSTROEM)
---------------------------------
  Pd     0.219234    0.230223   -0.018670
  O      1.676111    1.579900    0.751552
  C      1.541498    2.739467    0.588583
  O      0.370175    3.360928    0.409192
  C      2.752559    3.662804    0.635710
  H      2.543213    4.643943    1.065327
  H      3.173046    3.851523   -0.357188
  H      3.572748    3.210682    1.226299
  N     -1.386472   -0.835735   -0.972431
  C     -0.996163   -2.097320   -1.602395
  H     -0.218707   -1.952090   -2.340410
  H     -1.874335   -2.540054   -2.068662
  H     -0.633121   -2.773771   -0.843316
  C     -1.943427    0.046883   -1.995045
  H     -2.098715    1.033760   -1.572965
  H     -2.904156   -0.333152   -2.347930
  H     -1.243643    0.127759   -2.822437
  C     -1.721401   -1.225370    1.402846
  C     -2.057051   -2.146974    2.371371
  C     -1.637292   -1.969202    3.683474
  C     -1.018994   -0.778578    4.001531
  C     -0.603384    0.115957    3.011413
  C     -0.839467   -0.156983    1.666544
  H     -0.826628   -0.562126    5.039293
  H     -0.096158    1.021414    3.343450
  H     -2.658467   -3.000453    2.107098
  H     -1.835803   -2.701463    4.458427
  H     -0.471812    2.894812    0.460120
  C     -2.389687   -1.130189    0.075000
  H     -3.078503   -0.278834    0.132014
  H     -2.974677   -2.014814   -0.193792
  O      1.384636    0.400174   -1.780915
  C      2.212902   -0.501810   -2.159084
  O      2.278272   -1.650906   -1.693004
  C      3.226567   -0.126259   -3.226295
  H      3.564074   -1.004573   -3.787510
  H      4.100323    0.308030   -2.731600
  H      2.838097    0.622300   -3.912399

 Total Charge           Charge          ....    0
 Multiplicity           Mult            ....    1
 Number of Electrons    NEL             ....  154
 Basis Dimension        Dim             ....  339

ORBITAL ENERGIES
----------------

  NO   OCC          E(Eh)            E(eV)
   0   2.0000     -19.570921      -532.5518
   1   2.0000     -19.550166      -531.9870
   2   2.0000     -19.441416      -529.0278
   3   2.0000     -19.400174      -527.9056
   4   2.0000     -14.714218      -400.3942
   5   2.0000     -10.629858      -289.2531
   6   2.0000     -10.508748      -285.9576
   7   2.0000     -10.488265      -285.4002
   8   2.0000     -10.479544      -285.1629
   9   2.0000     -10.472794      -284.9792
  10   2.0000     -10.463216      -284.7186
  11   2.0000     -10.448633      -284.3218
  12   2.0000     -10.445069      -284.2248
  13   2.0000     -10.441556      -284.1292
  14   2.0000     -10.440190      -284.0920
  15   2.0000     -10.438807      -284.0544
  16   2.0000     -10.438076      -284.0345
  17   2.0000     -10.401251      -283.0324
  18   2.0000      -3.648794       -99.2887
  19   2.0000      -2.294077       -62.4250
  20   2.0000      -2.291462       -62.3539
  21   2.0000      -2.262465       -61.5648
  22   2.0000      -1.269581       -34.5470
  23   2.0000      -1.182212       -32.1696
  24   2.0000      -1.115473       -30.3536
  25   2.0000      -1.075974       -29.2787
  26   2.0000      -1.017438       -27.6859
  27   2.0000      -0.952924       -25.9304
  28   2.0000      -0.868415       -23.6308
  29   2.0000      -0.865221       -23.5439
  30   2.0000      -0.826058       -22.4782
  31   2.0000      -0.816688       -22.2232
  32   2.0000      -0.784561       -21.3490
  33   2.0000      -0.778003       -21.1705
  34   2.0000      -0.741005       -20.1638
  35   2.0000      -0.706395       -19.2220
  36   2.0000      -0.675227       -18.3739
  37   2.0000      -0.649468       -17.6729
  38   2.0000      -0.633277       -17.2323
  39   2.0000      -0.588129       -16.0038
  40   2.0000      -0.585049       -15.9200
  41   2.0000      -0.574138       -15.6231
  42   2.0000      -0.567018       -15.4294
  43   2.0000      -0.563847       -15.3430
  44   2.0000      -0.559450       -15.2234
  45   2.0000      -0.542577       -14.7643
  46   2.0000      -0.515985       -14.0407
  47   2.0000      -0.498455       -13.5637
  48   2.0000      -0.489130       -13.3099
  49   2.0000      -0.488436       -13.2910
  50   2.0000      -0.479585       -13.0502
  51   2.0000      -0.477037       -12.9808
  52   2.0000      -0.474215       -12.9040
  53   2.0000      -0.469433       -12.7739
  54   2.0000      -0.465868       -12.6769
  55   2.0000      -0.463812       -12.6210
  56   2.0000      -0.455469       -12.3939
  57   2.0000      -0.448751       -12.2111
  58   2.0000      -0.438954       -11.9445
  59   2.0000      -0.433380       -11.7929
  60   2.0000      -0.431749       -11.7485
  61   2.0000      -0.416909       -11.3447
  62   2.0000      -0.413164       -11.2428
  63   2.0000      -0.409177       -11.1343
  64   2.0000      -0.392094       -10.6694
  65   2.0000      -0.388423       -10.5695
  66   2.0000      -0.371853       -10.1186
  67   2.0000      -0.363976        -9.9043
  68   2.0000      -0.345718        -9.4075
  69   2.0000      -0.345425        -9.3995
  70   2.0000      -0.327272        -8.9055
  71   2.0000      -0.295846        -8.0504
  72   2.0000      -0.286157        -7.7867
  73   2.0000      -0.282246        -7.6803
  74   2.0000      -0.276858        -7.5337
  75   2.0000      -0.259673        -7.0661
  76   2.0000      -0.252646        -6.8748
  77   0.0000      -0.039107        -1.0641
  78   0.0000       0.008560         0.2329
  79   0.0000       0.014576         0.3966
  80   0.0000       0.026240         0.7140
  81   0.0000       0.037399         1.0177

MULLIKEN ATOMIC CHARGES
-----------------------
   0 Pd:    0.344908
   1 O :   -0.355780
   2 C :    0.629854
   3 O :   -0.598635
   4 C :   -0.753547
   5 H :    0.259710
   6 H :    0.280342
   7 H :    0.272762
   8 N :   -0.462625
   9 C :   -0.526093
  10 H :    0.295016
  11 H :    0.209560
  12 H :    0.280366
  13 C :   -0.520431
  14 H :    0.250973
  15 H :    0.228375
  16 H :    0.283002
  17 C :    0.108399
  18 C :   -0.273862
  19 C :   -0.228732
  20 C :   -0.211277
  21 C :   -0.298166
  22 C :   -0.135243
  23 H :    0.214930
  24 H :    0.206952
  25 H :    0.206141
  26 H :    0.217333
  27 H :    0.491534
  28 C :   -0.334871
  29 H :    0.260629
  30 H :    0.233835
  31 O :   -0.558761
  32 C :    0.539517
  33 O :   -0.494009
  34 C :   -0.737313
  35 H :    0.233852
  36 H :    0.227080
  37 H :    0.214278
Sum of atomic charges:   -0.0000000

LOEWDIN ATOMIC CHARGES
----------------------
   0 Pd:   -0.419372
   1 O :   -0.020417
   2 C :    0.207534
   3 O :   -0.268887
   4 C :   -0.372429
   5 H :    0.153944
   6 H :    0.171262
   7 H :    0.164013
   8 N :   -0.037318
   9 C :   -0.230942
  10 H :    0.163771
  11 H :    0.114861
  12 H :    0.157295
  13 C :   -0.232011
  14 H :    0.143167
  15 H :    0.123004
  16 H :    0.159418
  17 C :   -0.054398
  18 C :   -0.135239
  19 C :   -0.140742
  20 C :   -0.133278
  21 C :   -0.129731
  22 C :   -0.032795
  23 H :    0.133608
  24 H :    0.138421
  25 H :    0.134035
  26 H :    0.135962
  27 H :    0.360463
  28 C :   -0.103022
  29 H :    0.149240
  30 H :    0.130906
  31 O :   -0.248075
  32 C :    0.108551
  33 O :   -0.312927
  34 C :   -0.390268
  35 H :    0.140080
  36 H :    0.143747
  37 H :    0.128570

  Mayer bond orders larger than 0.100000
B(  0-Pd,  1-O ) :   0.3481 B(  0-Pd,  8-N ) :   0.4483 B(  0-Pd, 22-C ) :   0.8735
B(  0-Pd, 31-O ) :   0.4870 B(  1-O ,  2-C ) :   1.7853 B(  2-C ,  3-O ) :   1.1667
B(  2-C ,  4-C ) :   0.9427 B(  3-O , 27-H ) :   0.6878 B(  4-C ,  5-H ) :   0.9034
B(  4-C ,  6-H ) :   0.8918 B(  4-C ,  7-H ) :   0.9064 B(  8-N ,  9-C ) :   0.9196
B(  8-N , 13-C ) :   0.9248 B(  8-N , 28-C ) :   0.8801 B(  9-C , 10-H ) :   0.8872
B(  9-C , 11-H ) :   0.9030 B(  9-C , 12-H ) :   0.8982 B( 13-C , 14-H ) :   0.9075
B( 13-C , 15-H ) :   0.9011 B( 13-C , 16-H ) :   0.8927 B( 17-C , 18-C ) :   1.4543
B( 17-C , 22-C ) :   1.2742 B( 17-C , 28-C ) :   0.9660 B( 18-C , 19-C ) :   1.3962
B( 18-C , 25-H ) :   0.9222 B( 19-C , 20-C ) :   1.4638 B( 19-C , 26-H ) :   0.9183
B( 20-C , 21-C ) :   1.3990 B( 20-C , 23-H ) :   0.9178 B( 21-C , 22-C ) :   1.4199
B( 21-C , 24-H ) :   0.9213 B( 28-C , 29-H ) :   0.8981 B( 28-C , 30-H ) :   0.9064
B( 31-O , 32-C ) :   1.3542 B( 31-O , 33-O ) :   0.1062 B( 32-C , 33-O ) :   1.8300
B( 32-C , 34-C ) :   0.9279 B( 34-C , 35-H ) :   0.9231 B( 34-C , 36-H ) :   0.9200
B( 34-C , 37-H ) :   0.9198

Dispersion correction           -0.026280121
FINAL SINGLE POINT ENERGY      -988.518416705082
Dispersion correction            ... done

DIPOLE MOMENT
-------------
                                X             Y             Z
Electronic contribution:      6.81955      12.46188      -2.02552
Nuclear contribution   :     -8.46961     -10.73891       2.27383
                        -----------------------------------------
Total Dipole Moment    :     -1.65007       1.72296       0.24831
                        -----------------------------------------
Magnitude (a.u.)       :      2.39854
Magnitude (Debye)      :      6.09660

Rotational constants in cm-1:     0.013478     0.009053     0.006750
Rotational constants in MHz :   404.061091   271.397535   202.373763

                             ****ORCA TERMINATED NORMALLY****
TOTAL RUN TIME: 0 days 0 hours 8 minutes 10 seconds 107 msec
