                         Program Version 5.0.3 -  RELEASE  -
|  1> ! EnGrad PBEh-3c
|  2> %output
|  3> xyzfile=True
|  4> end
|  5> %scf
|  6> maxiter 250
|  7> end
|  8> %output
|  9> Print[P_Hirshfeld] = 1
| 10> end
| 11> % maxcore
| 12> 4000
| 13> *xyz 0 1
| 14> Pd   0.21467941   0.21450583  -0.02547444
| 15> O    1.67447304   1.54015939   0.75491143
| 16> C    1.54592576   2.74179709   0.58632417
| 17> O    0.38407453   3.36222291   0.45035885
| 18> C    2.73872055   3.66160886   0.64046968
| 19> H    2.55642898   4.65603224   1.06845418
| 20> H    3.16930064   3.84111691  -0.35051247
| 21> H    3.57906793   3.22317210   1.21438914
| 22> N   -1.38115451  -0.82975815  -0.96955586
| 23> C   -0.98860583  -2.09442220  -1.59743635
| 24> H   -0.21106326  -1.94910052  -2.33698837
| 25> H   -1.86417330  -2.54862786  -2.07224051
| 26> H   -0.62450425  -2.77216626  -0.83799103
| 27> C   -1.94336525   0.04639634  -1.99783222
| 28> H   -2.10792857   1.03181234  -1.57365158
| 29> H   -2.90307881  -0.33975509  -2.35895335
| 30> H   -1.24129862   0.13119161  -2.82375018
| 31> C   -1.72443656  -1.21984857   1.40467646
| 32> C   -2.05829056  -2.15003711   2.37171129
| 33> C   -1.65092380  -1.95402106   3.68770323
| 34> C   -1.00702921  -0.77369621   3.99715790
| 35> C   -0.58069027   0.11506103   3.00300340
| 36> C   -0.82960036  -0.15676650   1.65955590
| 37> H   -0.82345697  -0.55380199   5.03652808
| 38> H   -0.05077126   1.00521956   3.32786238
| 39> H   -2.67005662  -3.00282149   2.10636399
| 40> H   -1.84318556  -2.69057576   4.46118506
| 41> H   -0.49504547   2.88889435   0.42316485
| 42> C   -2.38882150  -1.13057450   0.07083028
| 43> H   -3.08620169  -0.28697188   0.11652741
| 44> H   -2.97511921  -2.01419650  -0.20784451
| 45> O    1.37873162   0.41454968  -1.76995296
| 46> C    2.20675648  -0.50597718  -2.14514940
| 47> O    2.26476712  -1.64380887  -1.69117488
| 48> C    3.21433864  -0.12127143  -3.21920774
| 49> H    3.55209290  -1.00205443  -3.77815541
| 50> H    4.08727510   0.31015134  -2.72102890
| 51> H    2.82183666   0.62695471  -3.90117938
| 52> *
| 53>
| 54>                          ****END OF INPUT****

CARTESIAN COORDINATES (ANGSTROEM)
---------------------------------
  Pd     0.214679    0.214506   -0.025474
  O      1.674473    1.540159    0.754911
  C      1.545926    2.741797    0.586324
  O      0.384075    3.362223    0.450359
  C      2.738721    3.661609    0.640470
  H      2.556429    4.656032    1.068454
  H      3.169301    3.841117   -0.350512
  H      3.579068    3.223172    1.214389
  N     -1.381155   -0.829758   -0.969556
  C     -0.988606   -2.094422   -1.597436
  H     -0.211063   -1.949101   -2.336988
  H     -1.864173   -2.548628   -2.072241
  H     -0.624504   -2.772166   -0.837991
  C     -1.943365    0.046396   -1.997832
  H     -2.107929    1.031812   -1.573652
  H     -2.903079   -0.339755   -2.358953
  H     -1.241299    0.131192   -2.823750
  C     -1.724437   -1.219849    1.404676
  C     -2.058291   -2.150037    2.371711
  C     -1.650924   -1.954021    3.687703
  C     -1.007029   -0.773696    3.997158
  C     -0.580690    0.115061    3.003003
  C     -0.829600   -0.156766    1.659556
  H     -0.823457   -0.553802    5.036528
  H     -0.050771    1.005220    3.327862
  H     -2.670057   -3.002821    2.106364
  H     -1.843186   -2.690576    4.461185
  H     -0.495045    2.888894    0.423165
  C     -2.388821   -1.130575    0.070830
  H     -3.086202   -0.286972    0.116527
  H     -2.975119   -2.014197   -0.207845
  O      1.378732    0.414550   -1.769953
  C      2.206756   -0.505977   -2.145149
  O      2.264767   -1.643809   -1.691175
  C      3.214339   -0.121271   -3.219208
  H      3.552093   -1.002054   -3.778155
  H      4.087275    0.310151   -2.721029
  H      2.821837    0.626955   -3.901179

 Total Charge           Charge          ....    0
 Multiplicity           Mult            ....    1
 Number of Electrons    NEL             ....  154
 Basis Dimension        Dim             ....  339

ORBITAL ENERGIES
----------------

  NO   OCC          E(Eh)            E(eV)
   0   2.0000     -19.578863      -532.7679
   1   2.0000     -19.545318      -531.8552
   2   2.0000     -19.439605      -528.9785
   3   2.0000     -19.404285      -528.0174
   4   2.0000     -14.714022      -400.3889
   5   2.0000     -10.633613      -289.3553
   6   2.0000     -10.509019      -285.9649
   7   2.0000     -10.487246      -285.3725
   8   2.0000     -10.480084      -285.1776
   9   2.0000     -10.474871      -285.0357
  10   2.0000     -10.463741      -284.7329
  11   2.0000     -10.447705      -284.2965
  12   2.0000     -10.442097      -284.1439
  13   2.0000     -10.441172      -284.1187
  14   2.0000     -10.437992      -284.0322
  15   2.0000     -10.437482      -284.0183
  16   2.0000     -10.436661      -283.9960
  17   2.0000     -10.400820      -283.0207
  18   2.0000      -3.646799       -99.2345
  19   2.0000      -2.291934       -62.3667
  20   2.0000      -2.289481       -62.3000
  21   2.0000      -2.260479       -61.5108
  22   2.0000      -1.256995       -34.2046
  23   2.0000      -1.169283       -31.8178
  24   2.0000      -1.116685       -30.3865
  25   2.0000      -1.075248       -29.2590
  26   2.0000      -1.021661       -27.8008
  27   2.0000      -0.949573       -25.8392
  28   2.0000      -0.869239       -23.6532
  29   2.0000      -0.865742       -23.5580
  30   2.0000      -0.823766       -22.4158
  31   2.0000      -0.815460       -22.1898
  32   2.0000      -0.782650       -21.2970
  33   2.0000      -0.777426       -21.1548
  34   2.0000      -0.740987       -20.1633
  35   2.0000      -0.705715       -19.2035
  36   2.0000      -0.673095       -18.3158
  37   2.0000      -0.647718       -17.6253
  38   2.0000      -0.626980       -17.0610
  39   2.0000      -0.585231       -15.9249
  40   2.0000      -0.583316       -15.8728
  41   2.0000      -0.569911       -15.5081
  42   2.0000      -0.565905       -15.3991
  43   2.0000      -0.562827       -15.3153
  44   2.0000      -0.557326       -15.1656
  45   2.0000      -0.540729       -14.7140
  46   2.0000      -0.514132       -13.9902
  47   2.0000      -0.497117       -13.5272
  48   2.0000      -0.488676       -13.2976
  49   2.0000      -0.487030       -13.2528
  50   2.0000      -0.478757       -13.0276
  51   2.0000      -0.475547       -12.9403
  52   2.0000      -0.472950       -12.8696
  53   2.0000      -0.469851       -12.7853
  54   2.0000      -0.464985       -12.6529
  55   2.0000      -0.464322       -12.6348
  56   2.0000      -0.454255       -12.3609
  57   2.0000      -0.446266       -12.1435
  58   2.0000      -0.438108       -11.9215
  59   2.0000      -0.431720       -11.7477
  60   2.0000      -0.429828       -11.6962
  61   2.0000      -0.417031       -11.3480
  62   2.0000      -0.412301       -11.2193
  63   2.0000      -0.407901       -11.0995
  64   2.0000      -0.389451       -10.5975
  65   2.0000      -0.387095       -10.5334
  66   2.0000      -0.372714       -10.1421
  67   2.0000      -0.364600        -9.9213
  68   2.0000      -0.343910        -9.3583
  69   2.0000      -0.342509        -9.3201
  70   2.0000      -0.324435        -8.8283
  71   2.0000      -0.293892        -7.9972
  72   2.0000      -0.285505        -7.7690
  73   2.0000      -0.280592        -7.6353
  74   2.0000      -0.278249        -7.5716
  75   2.0000      -0.259653        -7.0655
  76   2.0000      -0.253389        -6.8951
  77   0.0000      -0.033378        -0.9083
  78   0.0000       0.002660         0.0724
  79   0.0000       0.013461         0.3663
  80   0.0000       0.026543         0.7223
  81   0.0000       0.035557         0.9676

MULLIKEN ATOMIC CHARGES
-----------------------
   0 Pd:    0.343187
   1 O :   -0.394219
   2 C :    0.654640
   3 O :   -0.586193
   4 C :   -0.760890
   5 H :    0.263213
   6 H :    0.282739
   7 H :    0.277732
   8 N :   -0.467676
   9 C :   -0.527033
  10 H :    0.294165
  11 H :    0.208835
  12 H :    0.281404
  13 C :   -0.518529
  14 H :    0.248788
  15 H :    0.227891
  16 H :    0.283425
  17 C :    0.102315
  18 C :   -0.272182
  19 C :   -0.231910
  20 C :   -0.209762
  21 C :   -0.297128
  22 C :   -0.133357
  23 H :    0.213258
  24 H :    0.208320
  25 H :    0.204904
  26 H :    0.217014
  27 H :    0.496309
  28 C :   -0.332666
  29 H :    0.258983
  30 H :    0.233730
  31 O :   -0.568201
  32 C :    0.540790
  33 O :   -0.477358
  34 C :   -0.738506
  35 H :    0.231634
  36 H :    0.226535
  37 H :    0.215801
Sum of atomic charges:   -0.0000000

LOEWDIN ATOMIC CHARGES
----------------------
   0 Pd:   -0.435615
   1 O :   -0.057190
   2 C :    0.225144
   3 O :   -0.255944
   4 C :   -0.373612
   5 H :    0.156518
   6 H :    0.173114
   7 H :    0.166037
   8 N :   -0.036100
   9 C :   -0.230501
  10 H :    0.163173
  11 H :    0.114535
  12 H :    0.157789
  13 C :   -0.231150
  14 H :    0.142312
  15 H :    0.123043
  16 H :    0.159489
  17 C :   -0.053070
  18 C :   -0.136058
  19 C :   -0.142102
  20 C :   -0.133821
  21 C :   -0.129040
  22 C :   -0.035078
  23 H :    0.133195
  24 H :    0.138867
  25 H :    0.133786
  26 H :    0.135460
  27 H :    0.372704
  28 C :   -0.103184
  29 H :    0.148018
  30 H :    0.130642
  31 O :   -0.257272
  32 C :    0.108390
  33 O :   -0.293033
  34 C :   -0.391301
  35 H :    0.139047
  36 H :    0.143539
  37 H :    0.129270

  Mayer bond orders larger than 0.100000
B(  0-Pd,  1-O ) :   0.3632 B(  0-Pd,  8-N ) :   0.4482 B(  0-Pd, 22-C ) :   0.8728
B(  0-Pd, 31-O ) :   0.4973 B(  1-O ,  2-C ) :   1.7283 B(  2-C ,  3-O ) :   1.1928
B(  2-C ,  4-C ) :   0.9477 B(  3-O , 27-H ) :   0.6794 B(  4-C ,  5-H ) :   0.9021
B(  4-C ,  6-H ) :   0.8880 B(  4-C ,  7-H ) :   0.9032 B(  8-N ,  9-C ) :   0.9186
B(  8-N , 13-C ) :   0.9241 B(  8-N , 28-C ) :   0.8788 B(  9-C , 10-H ) :   0.8872
B(  9-C , 11-H ) :   0.9035 B(  9-C , 12-H ) :   0.8973 B( 13-C , 14-H ) :   0.9083
B( 13-C , 15-H ) :   0.9012 B( 13-C , 16-H ) :   0.8921 B( 17-C , 18-C ) :   1.4528
B( 17-C , 22-C ) :   1.2724 B( 17-C , 28-C ) :   0.9670 B( 18-C , 19-C ) :   1.3947
B( 18-C , 25-H ) :   0.9231 B( 19-C , 20-C ) :   1.4644 B( 19-C , 26-H ) :   0.9182
B( 20-C , 21-C ) :   1.3979 B( 20-C , 23-H ) :   0.9185 B( 21-C , 22-C ) :   1.4188
B( 21-C , 24-H ) :   0.9206 B( 28-C , 29-H ) :   0.8982 B( 28-C , 30-H ) :   0.9060
B( 31-O , 32-C ) :   1.3319 B( 31-O , 33-O ) :   0.1058 B( 32-C , 33-O ) :   1.8524
B( 32-C , 34-C ) :   0.9268 B( 34-C , 35-H ) :   0.9237 B( 34-C , 36-H ) :   0.9204
B( 34-C , 37-H ) :   0.9202

Dispersion correction           -0.026266626
FINAL SINGLE POINT ENERGY      -988.522557929483
Dispersion correction            ... done

DIPOLE MOMENT
-------------
                                X             Y             Z
Electronic contribution:      6.62821      11.69634      -2.56860
Nuclear contribution   :     -8.23322      -9.90252       2.70518
                        -----------------------------------------
Total Dipole Moment    :     -1.60501       1.79382       0.13659
                        -----------------------------------------
Magnitude (a.u.)       :      2.41091
Magnitude (Debye)      :      6.12805

Rotational constants in cm-1:     0.013505     0.009100     0.006772
Rotational constants in MHz :   404.878033   272.796396   203.024736

                             ****ORCA TERMINATED NORMALLY****
TOTAL RUN TIME: 0 days 0 hours 8 minutes 12 seconds 739 msec
