                         Program Version 5.0.3 -  RELEASE  -
|  1> ! EnGrad PBEh-3c
|  2> %output
|  3> xyzfile=True
|  4> end
|  5> %scf
|  6> maxiter 250
|  7> end
|  8> %output
|  9> Print[P_Hirshfeld] = 1
| 10> end
| 11> % maxcore
| 12> 4000
| 13> *xyz 0 1
| 14> Pd   0.20282714   0.19630533  -0.03886058
| 15> O    1.65015543   1.53953767   0.74931954
| 16> C    1.53295815   2.70747650   0.59661727
| 17> O    0.39396892   3.37318814   0.48091088
| 18> C    2.73269222   3.66742323   0.64938870
| 19> H    2.55398547   4.66447878   1.07075732
| 20> H    3.15065967   3.82459690  -0.34574037
| 21> H    3.56071494   3.22997336   1.19778751
| 22> N   -1.37027186  -0.81961261  -0.96550850
| 23> C   -0.98243213  -2.09116724  -1.59659728
| 24> H   -0.20831219  -1.94070387  -2.33918683
| 25> H   -1.85805882  -2.55003527  -2.08113125
| 26> H   -0.61230671  -2.77556465  -0.83975973
| 27> C   -1.94552827   0.05487818  -1.99704267
| 28> H   -2.12194322   1.03942291  -1.57124306
| 29> H   -2.90185083  -0.34012107  -2.36888591
| 30> H   -1.24369914   0.14460196  -2.82319289
| 31> C   -1.72469813  -1.20980402   1.40888440
| 32> C   -2.05556689  -2.15482686   2.36904952
| 33> C   -1.65910054  -1.93795773   3.68840018
| 34> C   -0.99342069  -0.76457783   3.99474364
| 35> C   -0.56008114   0.11795173   2.99601917
| 36> C   -0.82083288  -0.15422146   1.65392535
| 37> H   -0.81517602  -0.54182038   5.03828289
| 38> H   -0.01836075   0.99814232   3.31132907
| 39> H   -2.66969074  -3.01254298   2.10075973
| 40> H   -1.84122811  -2.68491816   4.45433171
| 41> H   -0.45518921   2.86266529   0.40197652
| 42> C   -2.38320883  -1.13085222   0.07078351
| 43> H   -3.09536786  -0.30112361   0.10109599
| 44> H   -2.96963969  -2.01405820  -0.21755361
| 45> O    1.37763614   0.41836259  -1.76029580
| 46> C    2.19565246  -0.51152960  -2.12896562
| 47> O    2.24096927  -1.64709869  -1.68960448
| 48> C    3.20588227  -0.11953790  -3.20645123
| 49> H    3.54449346  -1.00010003  -3.75983476
| 50> H    4.08028676   0.30632599  -2.70897783
| 51> H    2.81648803   0.62781090  -3.89387540
| 52> *
| 53>
| 54>                          ****END OF INPUT****

CARTESIAN COORDINATES (ANGSTROEM)
---------------------------------
  Pd     0.202827    0.196305   -0.038861
  O      1.650155    1.539538    0.749320
  C      1.532958    2.707476    0.596617
  O      0.393969    3.373188    0.480911
  C      2.732692    3.667423    0.649389
  H      2.553985    4.664479    1.070757
  H      3.150660    3.824597   -0.345740
  H      3.560715    3.229973    1.197788
  N     -1.370272   -0.819613   -0.965508
  C     -0.982432   -2.091167   -1.596597
  H     -0.208312   -1.940704   -2.339187
  H     -1.858059   -2.550035   -2.081131
  H     -0.612307   -2.775565   -0.839760
  C     -1.945528    0.054878   -1.997043
  H     -2.121943    1.039423   -1.571243
  H     -2.901851   -0.340121   -2.368886
  H     -1.243699    0.144602   -2.823193
  C     -1.724698   -1.209804    1.408884
  C     -2.055567   -2.154827    2.369050
  C     -1.659101   -1.937958    3.688400
  C     -0.993421   -0.764578    3.994744
  C     -0.560081    0.117952    2.996019
  C     -0.820833   -0.154221    1.653925
  H     -0.815176   -0.541820    5.038283
  H     -0.018361    0.998142    3.311329
  H     -2.669691   -3.012543    2.100760
  H     -1.841228   -2.684918    4.454332
  H     -0.455189    2.862665    0.401977
  C     -2.383209   -1.130852    0.070784
  H     -3.095368   -0.301124    0.101096
  H     -2.969640   -2.014058   -0.217554
  O      1.377636    0.418363   -1.760296
  C      2.195652   -0.511530   -2.128966
  O      2.240969   -1.647099   -1.689604
  C      3.205882   -0.119538   -3.206451
  H      3.544493   -1.000100   -3.759835
  H      4.080287    0.306326   -2.708978
  H      2.816488    0.627811   -3.893875

 Total Charge           Charge          ....    0
 Multiplicity           Mult            ....    1
 Number of Electrons    NEL             ....  154
 Basis Dimension        Dim             ....  339

ORBITAL ENERGIES
----------------

  NO   OCC          E(Eh)            E(eV)
   0   2.0000     -19.575000      -532.6628
   1   2.0000     -19.548525      -531.9424
   2   2.0000     -19.441877      -529.0404
   3   2.0000     -19.407954      -528.1173
   4   2.0000     -14.718357      -400.5069
   5   2.0000     -10.628087      -289.2050
   6   2.0000     -10.510814      -286.0138
   7   2.0000     -10.488335      -285.4021
   8   2.0000     -10.483200      -285.2624
   9   2.0000     -10.468160      -284.8531
  10   2.0000     -10.467161      -284.8259
  11   2.0000     -10.449089      -284.3342
  12   2.0000     -10.443377      -284.1787
  13   2.0000     -10.442445      -284.1534
  14   2.0000     -10.439153      -284.0638
  15   2.0000     -10.438804      -284.0543
  16   2.0000     -10.438318      -284.0411
  17   2.0000     -10.401026      -283.0263
  18   2.0000      -3.649334       -99.3034
  19   2.0000      -2.294541       -62.4376
  20   2.0000      -2.292346       -62.3779
  21   2.0000      -2.262984       -61.5789
  22   2.0000      -1.267728       -34.4966
  23   2.0000      -1.181026       -32.1373
  24   2.0000      -1.122442       -30.5432
  25   2.0000      -1.076089       -29.2819
  26   2.0000      -1.027657       -27.9640
  27   2.0000      -0.949278       -25.8312
  28   2.0000      -0.865719       -23.5574
  29   2.0000      -0.860843       -23.4247
  30   2.0000      -0.824465       -22.4348
  31   2.0000      -0.816048       -22.2058
  32   2.0000      -0.782819       -21.3016
  33   2.0000      -0.777313       -21.1517
  34   2.0000      -0.733327       -19.9548
  35   2.0000      -0.708384       -19.2761
  36   2.0000      -0.674038       -18.3415
  37   2.0000      -0.648664       -17.6511
  38   2.0000      -0.630627       -17.1602
  39   2.0000      -0.588577       -16.0160
  40   2.0000      -0.583927       -15.8895
  41   2.0000      -0.573934       -15.6175
  42   2.0000      -0.567268       -15.4361
  43   2.0000      -0.564103       -15.3500
  44   2.0000      -0.559021       -15.2117
  45   2.0000      -0.541203       -14.7269
  46   2.0000      -0.514688       -14.0054
  47   2.0000      -0.498667       -13.5694
  48   2.0000      -0.491639       -13.3782
  49   2.0000      -0.490907       -13.3582
  50   2.0000      -0.479354       -13.0439
  51   2.0000      -0.474080       -12.9004
  52   2.0000      -0.470790       -12.8109
  53   2.0000      -0.470447       -12.8015
  54   2.0000      -0.467616       -12.7245
  55   2.0000      -0.465941       -12.6789
  56   2.0000      -0.455183       -12.3862
  57   2.0000      -0.445789       -12.1305
  58   2.0000      -0.439816       -11.9680
  59   2.0000      -0.434566       -11.8251
  60   2.0000      -0.430455       -11.7133
  61   2.0000      -0.418470       -11.3872
  62   2.0000      -0.414339       -11.2747
  63   2.0000      -0.408663       -11.1203
  64   2.0000      -0.393074       -10.6961
  65   2.0000      -0.388965       -10.5843
  66   2.0000      -0.379732       -10.3330
  67   2.0000      -0.367761       -10.0073
  68   2.0000      -0.346908        -9.4399
  69   2.0000      -0.344039        -9.3618
  70   2.0000      -0.326665        -8.8890
  71   2.0000      -0.295938        -8.0529
  72   2.0000      -0.287841        -7.8326
  73   2.0000      -0.283130        -7.7044
  74   2.0000      -0.279951        -7.6178
  75   2.0000      -0.262330        -7.1384
  76   2.0000      -0.254863        -6.9352
  77   0.0000      -0.032026        -0.8715
  78   0.0000       0.010905         0.2967
  79   0.0000       0.016974         0.4619
  80   0.0000       0.024970         0.6795
  81   0.0000       0.036632         0.9968

MULLIKEN ATOMIC CHARGES
-----------------------
   0 Pd:    0.346198
   1 O :   -0.363566
   2 C :    0.625995
   3 O :   -0.581405
   4 C :   -0.759752
   5 H :    0.262137
   6 H :    0.277743
   7 H :    0.273367
   8 N :   -0.477389
   9 C :   -0.527459
  10 H :    0.294430
  11 H :    0.210002
  12 H :    0.283148
  13 C :   -0.519529
  14 H :    0.251262
  15 H :    0.229481
  16 H :    0.284454
  17 C :    0.096476
  18 C :   -0.268794
  19 C :   -0.235771
  20 C :   -0.208386
  21 C :   -0.297147
  22 C :   -0.127847
  23 H :    0.213185
  24 H :    0.209831
  25 H :    0.205729
  26 H :    0.217214
  27 H :    0.487124
  28 C :   -0.330574
  29 H :    0.259295
  30 H :    0.235220
  31 O :   -0.567937
  32 C :    0.539568
  33 O :   -0.469522
  34 C :   -0.740807
  35 H :    0.231200
  36 H :    0.226469
  37 H :    0.216359
Sum of atomic charges:   -0.0000000

LOEWDIN ATOMIC CHARGES
----------------------
   0 Pd:   -0.442350
   1 O :   -0.026123
   2 C :    0.205056
   3 O :   -0.256950
   4 C :   -0.377849
   5 H :    0.155397
   6 H :    0.169189
   7 H :    0.159422
   8 N :   -0.031940
   9 C :   -0.229187
  10 H :    0.162987
  11 H :    0.115393
  12 H :    0.159186
  13 C :   -0.229973
  14 H :    0.143732
  15 H :    0.124245
  16 H :    0.159767
  17 C :   -0.051153
  18 C :   -0.136554
  19 C :   -0.141828
  20 C :   -0.133921
  21 C :   -0.128179
  22 C :   -0.036946
  23 H :    0.133826
  24 H :    0.139182
  25 H :    0.134496
  26 H :    0.135227
  27 H :    0.364301
  28 C :   -0.102613
  29 H :    0.147566
  30 H :    0.131096
  31 O :   -0.254859
  32 C :    0.105474
  33 O :   -0.283215
  34 C :   -0.392927
  35 H :    0.138221
  36 H :    0.143077
  37 H :    0.129727

  Mayer bond orders larger than 0.100000
B(  0-Pd,  1-O ) :   0.3446 B(  0-Pd,  8-N ) :   0.4604 B(  0-Pd, 22-C ) :   0.8713
B(  0-Pd, 31-O ) :   0.5018 B(  1-O ,  2-C ) :   1.7771 B(  2-C ,  3-O ) :   1.1889
B(  2-C ,  4-C ) :   0.9388 B(  3-O , 27-H ) :   0.6876 B(  4-C ,  5-H ) :   0.9058
B(  4-C ,  6-H ) :   0.8923 B(  4-C ,  7-H ) :   0.9040 B(  8-N ,  9-C ) :   0.9143
B(  8-N , 13-C ) :   0.9203 B(  8-N , 28-C ) :   0.8740 B(  9-C , 10-H ) :   0.8863
B(  9-C , 11-H ) :   0.9034 B(  9-C , 12-H ) :   0.8962 B( 13-C , 14-H ) :   0.9072
B( 13-C , 15-H ) :   0.9007 B( 13-C , 16-H ) :   0.8912 B( 17-C , 18-C ) :   1.4463
B( 17-C , 22-C ) :   1.2756 B( 17-C , 28-C ) :   0.9689 B( 18-C , 19-C ) :   1.3963
B( 18-C , 25-H ) :   0.9233 B( 19-C , 20-C ) :   1.4606 B( 19-C , 26-H ) :   0.9180
B( 20-C , 21-C ) :   1.4005 B( 20-C , 23-H ) :   0.9188 B( 21-C , 22-C ) :   1.4141
B( 21-C , 24-H ) :   0.9201 B( 28-C , 29-H ) :   0.8971 B( 28-C , 30-H ) :   0.9053
B( 31-O , 32-C ) :   1.3264 B( 31-O , 33-O ) :   0.1054 B( 32-C , 33-O ) :   1.8626
B( 32-C , 34-C ) :   0.9247 B( 34-C , 35-H ) :   0.9236 B( 34-C , 36-H ) :   0.9206
B( 34-C , 37-H ) :   0.9209

Dispersion correction           -0.026328529
FINAL SINGLE POINT ENERGY      -988.524412921086
Dispersion correction            ... done

DIPOLE MOMENT
-------------
                                X             Y             Z
Electronic contribution:      6.01797      10.48418      -3.41134
Nuclear contribution   :     -7.63980      -8.90641       3.47832
                        -----------------------------------------
Total Dipole Moment    :     -1.62183       1.57778       0.06697
                        -----------------------------------------
Magnitude (a.u.)       :      2.26367
Magnitude (Debye)      :      5.75380

Rotational constants in cm-1:     0.013522     0.009163     0.006801
Rotational constants in MHz :   405.389426   274.688028   203.884210

                             ****ORCA TERMINATED NORMALLY****
TOTAL RUN TIME: 0 days 0 hours 8 minutes 6 seconds 568 msec
