                         Program Version 5.0.3 -  RELEASE  -
|  1> ! EnGrad PBEh-3c
|  2> %output
|  3> xyzfile=True
|  4> end
|  5> %scf
|  6> maxiter 250
|  7> end
|  8> %output
|  9> Print[P_Hirshfeld] = 1
| 10> end
| 11> % maxcore
| 12> 4000
| 13> *xyz 0 1
| 14> Pd   0.37029844   0.15027946  -0.15874550
| 15> O    1.94147947   1.32265221   0.65262048
| 16> C    1.81061947   2.56101030   0.42664447
| 17> O    0.73381424   3.01775699  -0.11578408
| 18> C    2.95025583   3.49886755   0.69241285
| 19> H    2.61088548   4.43403835   1.14114639
| 20> H    3.41947896   3.75965747  -0.25807005
| 21> H    3.70250755   3.04931549   1.32172269
| 22> N   -1.26312982  -0.94866616  -0.91091673
| 23> C   -0.89229411  -2.32834787  -1.26085430
| 24> H   -0.10608445  -2.35736104  -1.99531950
| 25> H   -1.72307832  -2.87304618  -1.72836587
| 26> H   -0.54192261  -2.85834630  -0.38275230
| 27> C   -1.78667107  -0.31477937  -2.12966123
| 28> H   -1.93454637   0.74494764  -1.96678417
| 29> H   -2.73426570  -0.76745336  -2.43679834
| 30> H   -1.10855516  -0.45392310  -2.96468493
| 31> C   -1.83856490  -1.11824642   1.49776359
| 32> C   -2.44063221  -1.90159813   2.48365513
| 33> C   -2.06693647  -1.78640564   3.81661348
| 34> C   -1.08394012  -0.89507268   4.17519259
| 35> C   -0.51604638  -0.08187499   3.20337705
| 36> C   -0.91586374  -0.14918402   1.86186341
| 37> H   -0.80158888  -0.77974895   5.21732970
| 38> H    0.13262034   0.67010058   3.59813076
| 39> H   -3.26298898  -2.55498725   2.25002360
| 40> H   -2.56312914  -2.36872392   4.57650752
| 41> H   -0.80873098   3.93443189   0.75432149
| 42> C   -2.35773464  -1.01764855   0.10725996
| 43> H   -2.96889458  -0.11586924   0.02323162
| 44> H   -3.05368234  -1.84153092  -0.08077876
| 45> O    1.39959283   0.63682576  -1.91514648
| 46> C    2.13539481  -0.25209648  -2.48881345
| 47> O    2.15278997  -1.41521980  -2.15028135
| 48> C    3.13752162   0.25621498  -3.52858472
| 49> H    3.50814238  -0.55567094  -4.14970769
| 50> H    4.00096839   0.66675029  -2.99559433
| 51> H    2.76317963   1.03429413  -4.18240154
| 52> *
| 53>
| 54>                          ****END OF INPUT****

CARTESIAN COORDINATES (ANGSTROEM)
---------------------------------
  Pd     0.370298    0.150279   -0.158746
  O      1.941479    1.322652    0.652620
  C      1.810619    2.561010    0.426644
  O      0.733814    3.017757   -0.115784
  C      2.950256    3.498868    0.692413
  H      2.610885    4.434038    1.141146
  H      3.419479    3.759657   -0.258070
  H      3.702508    3.049315    1.321723
  N     -1.263130   -0.948666   -0.910917
  C     -0.892294   -2.328348   -1.260854
  H     -0.106084   -2.357361   -1.995319
  H     -1.723078   -2.873046   -1.728366
  H     -0.541923   -2.858346   -0.382752
  C     -1.786671   -0.314779   -2.129661
  H     -1.934546    0.744948   -1.966784
  H     -2.734266   -0.767453   -2.436798
  H     -1.108555   -0.453923   -2.964685
  C     -1.838565   -1.118246    1.497764
  C     -2.440632   -1.901598    2.483655
  C     -2.066936   -1.786406    3.816613
  C     -1.083940   -0.895073    4.175193
  C     -0.516046   -0.081875    3.203377
  C     -0.915864   -0.149184    1.861863
  H     -0.801589   -0.779749    5.217330
  H      0.132620    0.670101    3.598131
  H     -3.262989   -2.554987    2.250024
  H     -2.563129   -2.368724    4.576508
  H     -0.808731    3.934432    0.754321
  C     -2.357735   -1.017649    0.107260
  H     -2.968895   -0.115869    0.023232
  H     -3.053682   -1.841531   -0.080779
  O      1.399593    0.636826   -1.915146
  C      2.135395   -0.252096   -2.488813
  O      2.152790   -1.415220   -2.150281
  C      3.137522    0.256215   -3.528585
  H      3.508142   -0.555671   -4.149708
  H      4.000968    0.666750   -2.995594
  H      2.763180    1.034294   -4.182402

 Total Charge           Charge          ....    0
 Multiplicity           Mult            ....    1
 Number of Electrons    NEL             ....  154
 Basis Dimension        Dim             ....  339

ORBITAL ENERGIES
----------------

  NO   OCC          E(Eh)            E(eV)
   0   2.0000     -19.527844      -531.3797
   1   2.0000     -19.524155      -531.2793
   2   2.0000     -19.448133      -529.2106
   3   2.0000     -19.412353      -528.2370
   4   2.0000     -14.719766      -400.5452
   5   2.0000     -10.588801      -288.1359
   6   2.0000     -10.513956      -286.0993
   7   2.0000     -10.489379      -285.4305
   8   2.0000     -10.475736      -285.0593
   9   2.0000     -10.463547      -284.7276
  10   2.0000     -10.455296      -284.5031
  11   2.0000     -10.454641      -284.4852
  12   2.0000     -10.449717      -284.3512
  13   2.0000     -10.448498      -284.3181
  14   2.0000     -10.443698      -284.1875
  15   2.0000     -10.443021      -284.1691
  16   2.0000     -10.442121      -284.1446
  17   2.0000     -10.406197      -283.1670
  18   2.0000      -3.648801       -99.2889
  19   2.0000      -2.296323       -62.4861
  20   2.0000      -2.287734       -62.2524
  21   2.0000      -2.261241       -61.5315
  22   2.0000      -1.197016       -32.5725
  23   2.0000      -1.132493       -30.8167
  24   2.0000      -1.094278       -29.7768
  25   2.0000      -1.071200       -29.1488
  26   2.0000      -1.030478       -28.0407
  27   2.0000      -0.956412       -26.0253
  28   2.0000      -0.872350       -23.7378
  29   2.0000      -0.839113       -22.8334
  30   2.0000      -0.826070       -22.4785
  31   2.0000      -0.811272       -22.0758
  32   2.0000      -0.787105       -21.4182
  33   2.0000      -0.782720       -21.2989
  34   2.0000      -0.711782       -19.3686
  35   2.0000      -0.678766       -18.4702
  36   2.0000      -0.648826       -17.6555
  37   2.0000      -0.628353       -17.0984
  38   2.0000      -0.585444       -15.9308
  39   2.0000      -0.569872       -15.5070
  40   2.0000      -0.565112       -15.3775
  41   2.0000      -0.564051       -15.3486
  42   2.0000      -0.553767       -15.0688
  43   2.0000      -0.544458       -14.8155
  44   2.0000      -0.541244       -14.7280
  45   2.0000      -0.528357       -14.3773
  46   2.0000      -0.517818       -14.0905
  47   2.0000      -0.499470       -13.5913
  48   2.0000      -0.493198       -13.4206
  49   2.0000      -0.478656       -13.0249
  50   2.0000      -0.476339       -12.9619
  51   2.0000      -0.472733       -12.8637
  52   2.0000      -0.469659       -12.7801
  53   2.0000      -0.467513       -12.7217
  54   2.0000      -0.453974       -12.3533
  55   2.0000      -0.447606       -12.1800
  56   2.0000      -0.441833       -12.0229
  57   2.0000      -0.436104       -11.8670
  58   2.0000      -0.428891       -11.6707
  59   2.0000      -0.419481       -11.4147
  60   2.0000      -0.411283       -11.1916
  61   2.0000      -0.408238       -11.1087
  62   2.0000      -0.400844       -10.9075
  63   2.0000      -0.392314       -10.6754
  64   2.0000      -0.374180       -10.1820
  65   2.0000      -0.365568        -9.9476
  66   2.0000      -0.355107        -9.6630
  67   2.0000      -0.347126        -9.4458
  68   2.0000      -0.341529        -9.2935
  69   2.0000      -0.329153        -8.9567
  70   2.0000      -0.325568        -8.8591
  71   2.0000      -0.290564        -7.9066
  72   2.0000      -0.287832        -7.8323
  73   2.0000      -0.283737        -7.7209
  74   2.0000      -0.280883        -7.6432
  75   2.0000      -0.264662        -7.2018
  76   2.0000      -0.259288        -7.0556
  77   0.0000      -0.184233        -5.0132
  78   0.0000      -0.050424        -1.3721
  79   0.0000       0.015382         0.4186
  80   0.0000       0.022522         0.6129
  81   0.0000       0.038853         1.0572

MULLIKEN ATOMIC CHARGES
-----------------------
   0 Pd:    0.399683
   1 O :   -0.419493
   2 C :    0.623524
   3 O :   -0.426370
   4 C :   -0.746064
   5 H :    0.240668
   6 H :    0.269169
   7 H :    0.259487
   8 N :   -0.481232
   9 C :   -0.548827
  10 H :    0.312479
  11 H :    0.214593
  12 H :    0.275743
  13 C :   -0.524324
  14 H :    0.273654
  15 H :    0.225249
  16 H :    0.279346
  17 C :    0.064699
  18 C :   -0.262952
  19 C :   -0.224766
  20 C :   -0.208381
  21 C :   -0.292185
  22 C :   -0.083314
  23 H :    0.220930
  24 H :    0.219325
  25 H :    0.207111
  26 H :    0.219573
  27 H :    0.257622
  28 C :   -0.327195
  29 H :    0.268371
  30 H :    0.232990
  31 O :   -0.538273
  32 C :    0.533811
  33 O :   -0.463018
  34 C :   -0.744836
  35 H :    0.234228
  36 H :    0.233168
  37 H :    0.225807
Sum of atomic charges:   -0.0000000

LOEWDIN ATOMIC CHARGES
----------------------
   0 Pd:   -0.362263
   1 O :   -0.080262
   2 C :    0.181776
   3 O :   -0.205559
   4 C :   -0.378067
   5 H :    0.149004
   6 H :    0.167732
   7 H :    0.151687
   8 N :   -0.032322
   9 C :   -0.240145
  10 H :    0.166905
  11 H :    0.117959
  12 H :    0.155338
  13 C :   -0.230615
  14 H :    0.152863
  15 H :    0.122256
  16 H :    0.156832
  17 C :   -0.069301
  18 C :   -0.134001
  19 C :   -0.135893
  20 C :   -0.134620
  21 C :   -0.123849
  22 C :   -0.026142
  23 H :    0.135839
  24 H :    0.140120
  25 H :    0.132974
  26 H :    0.135450
  27 H :    0.266210
  28 C :   -0.105080
  29 H :    0.151999
  30 H :    0.130480
  31 O :   -0.219836
  32 C :    0.105924
  33 O :   -0.272889
  34 C :   -0.389940
  35 H :    0.138398
  36 H :    0.147126
  37 H :    0.133911

  Mayer bond orders larger than 0.100000
B(  0-Pd,  1-O ) :   0.4569 B(  0-Pd,  3-O ) :   0.1115 B(  0-Pd,  8-N ) :   0.4517
B(  0-Pd, 22-C ) :   0.6618 B(  0-Pd, 27-H ) :   0.1616 B(  0-Pd, 31-O ) :   0.5415
B(  1-O ,  2-C ) :   1.5313 B(  1-O , 27-H ) :   0.1172 B(  2-C ,  3-O ) :   1.4275
B(  2-C ,  4-C ) :   0.9551 B(  3-O , 27-H ) :   0.4647 B(  4-C ,  5-H ) :   0.9116
B(  4-C ,  6-H ) :   0.8978 B(  4-C ,  7-H ) :   0.9064 B(  8-N ,  9-C ) :   0.9163
B(  8-N , 13-C ) :   0.9192 B(  8-N , 28-C ) :   0.8833 B(  9-C , 10-H ) :   0.8688
B(  9-C , 11-H ) :   0.9037 B(  9-C , 12-H ) :   0.9001 B( 13-C , 14-H ) :   0.9017
B( 13-C , 15-H ) :   0.9008 B( 13-C , 16-H ) :   0.8975 B( 17-C , 18-C ) :   1.4011
B( 17-C , 22-C ) :   1.3389 B( 17-C , 28-C ) :   0.9701 B( 18-C , 19-C ) :   1.4406
B( 18-C , 25-H ) :   0.9201 B( 19-C , 20-C ) :   1.4322 B( 19-C , 26-H ) :   0.9166
B( 20-C , 21-C ) :   1.4191 B( 20-C , 23-H ) :   0.9149 B( 21-C , 22-C ) :   1.4012
B( 21-C , 24-H ) :   0.9167 B( 22-C , 27-H ) :   0.1162 B( 28-C , 29-H ) :   0.8954
B( 28-C , 30-H ) :   0.9058 B( 31-O , 32-C ) :   1.3211 B( 31-O , 33-O ) :   0.1007
B( 32-C , 33-O ) :   1.8575 B( 32-C , 34-C ) :   0.9256 B( 34-C , 35-H ) :   0.9206
B( 34-C , 36-H ) :   0.9179 B( 34-C , 37-H ) :   0.9173

Dispersion correction           -0.026069283
FINAL SINGLE POINT ENERGY      -988.293266607183
Dispersion correction            ... done

DIPOLE MOMENT
-------------
                                X             Y             Z
Electronic contribution:     14.13805       8.12815      -8.00484
Nuclear contribution   :    -15.98138      -6.77666       8.64885
                        -----------------------------------------
Total Dipole Moment    :     -1.84332       1.35149       0.64400
                        -----------------------------------------
Magnitude (a.u.)       :      2.37468
Magnitude (Debye)      :      6.03596

Rotational constants in cm-1:     0.014819     0.008330     0.006246
Rotational constants in MHz :   444.251167   249.732595   187.245254

                             ****ORCA TERMINATED NORMALLY****
TOTAL RUN TIME: 0 days 0 hours 14 minutes 56 seconds 856 msec
