                         Program Version 5.0.3 -  RELEASE  -
|  1> ! EnGrad PBEh-3c
|  2> %output
|  3> xyzfile=True
|  4> end
|  5> %scf
|  6> maxiter 250
|  7> end
|  8> %output
|  9> Print[P_Hirshfeld] = 1
| 10> end
| 11> % maxcore
| 12> 4000
| 13> *xyz 0 1
| 14> Pd   0.18905649   0.18686054  -0.05233213
| 15> O    1.61093533   1.48164366   0.74962525
| 16> C    1.52545190   2.77444916   0.60752830
| 17> O    0.40457687   3.40674205   0.47335659
| 18> C    2.71537277   3.67096139   0.65190032
| 19> H    2.52906461   4.66525551   1.07173514
| 20> H    3.11924609   3.80931614  -0.34960145
| 21> H    3.52701016   3.21910612   1.19204757
| 22> N   -1.36385856  -0.81296432  -0.96477662
| 23> C   -0.98063351  -2.08951068  -1.60107306
| 24> H   -0.21341073  -1.92979142  -2.34787601
| 25> H   -1.85997174  -2.53822269  -2.09224725
| 26> H   -0.60255894  -2.78332202  -0.85242282
| 27> C   -1.94867926   0.07138183  -1.99141878
| 28> H   -2.13528391   1.05711864  -1.56611871
| 29> H   -2.89987021  -0.33065281  -2.37069570
| 30> H   -1.25200692   0.16561060  -2.82007518
| 31> C   -1.72269032  -1.20510410   1.41280366
| 32> C   -2.04875909  -2.15716388   2.36563264
| 33> C   -1.65436671  -1.93183495   3.68184014
| 34> C   -0.98607071  -0.75605070   3.99691070
| 35> C   -0.55358510   0.12273350   2.99319876
| 36> C   -0.81845354  -0.15285478   1.65249229
| 37> H   -0.80355180  -0.53083118   5.04279579
| 38> H   -0.02175299   1.00913250   3.30062208
| 39> H   -2.65278697  -3.02784432   2.09190997
| 40> H   -1.82677124  -2.69027014   4.43715162
| 41> H   -0.36542219   2.80991674   0.41848757
| 42> C   -2.37496744  -1.13078335   0.07573974
| 43> H   -3.10086266  -0.31507586   0.09631358
| 44> H   -2.95812528  -2.01419776  -0.21451170
| 45> O    1.37441590   0.41113021  -1.75583824
| 46> C    2.19228182  -0.51931883  -2.12292826
| 47> O    2.21852657  -1.66810966  -1.68001928
| 48> C    3.20517327  -0.12232868  -3.19268539
| 49> H    3.54663448  -1.00137979  -3.74004580
| 50> H    4.08689916   0.29636357  -2.70306169
| 51> H    2.82937758   0.62141541  -3.89551672
| 52> *
| 53>
| 54>                          ****END OF INPUT****

CARTESIAN COORDINATES (ANGSTROEM)
---------------------------------
  Pd     0.189056    0.186861   -0.052332
  O      1.610935    1.481644    0.749625
  C      1.525452    2.774449    0.607528
  O      0.404577    3.406742    0.473357
  C      2.715373    3.670961    0.651900
  H      2.529065    4.665256    1.071735
  H      3.119246    3.809316   -0.349601
  H      3.527010    3.219106    1.192048
  N     -1.363859   -0.812964   -0.964777
  C     -0.980634   -2.089511   -1.601073
  H     -0.213411   -1.929791   -2.347876
  H     -1.859972   -2.538223   -2.092247
  H     -0.602559   -2.783322   -0.852423
  C     -1.948679    0.071382   -1.991419
  H     -2.135284    1.057119   -1.566119
  H     -2.899870   -0.330653   -2.370696
  H     -1.252007    0.165611   -2.820075
  C     -1.722690   -1.205104    1.412804
  C     -2.048759   -2.157164    2.365633
  C     -1.654367   -1.931835    3.681840
  C     -0.986071   -0.756051    3.996911
  C     -0.553585    0.122733    2.993199
  C     -0.818454   -0.152855    1.652492
  H     -0.803552   -0.530831    5.042796
  H     -0.021753    1.009132    3.300622
  H     -2.652787   -3.027844    2.091910
  H     -1.826771   -2.690270    4.437152
  H     -0.365422    2.809917    0.418488
  C     -2.374967   -1.130783    0.075740
  H     -3.100863   -0.315076    0.096314
  H     -2.958125   -2.014198   -0.214512
  O      1.374416    0.411130   -1.755838
  C      2.192282   -0.519319   -2.122928
  O      2.218527   -1.668110   -1.680019
  C      3.205173   -0.122329   -3.192685
  H      3.546634   -1.001380   -3.740046
  H      4.086899    0.296364   -2.703062
  H      2.829378    0.621415   -3.895517

 Total Charge           Charge          ....    0
 Multiplicity           Mult            ....    1
 Number of Electrons    NEL             ....  154
 Basis Dimension        Dim             ....  339

ORBITAL ENERGIES
----------------

  NO   OCC          E(Eh)            E(eV)
   0   2.0000     -19.596728      -533.2541
   1   2.0000     -19.541920      -531.7627
   2   2.0000     -19.439632      -528.9793
   3   2.0000     -19.405169      -528.0415
   4   2.0000     -14.715561      -400.4308
   5   2.0000     -10.641572      -289.5719
   6   2.0000     -10.510175      -285.9964
   7   2.0000     -10.484370      -285.2942
   8   2.0000     -10.482002      -285.2298
   9   2.0000     -10.476363      -285.0763
  10   2.0000     -10.465154      -284.7713
  11   2.0000     -10.444972      -284.2221
  12   2.0000     -10.440584      -284.1027
  13   2.0000     -10.437867      -284.0288
  14   2.0000     -10.437012      -284.0055
  15   2.0000     -10.435846      -283.9738
  16   2.0000     -10.435488      -283.9641
  17   2.0000     -10.400939      -283.0239
  18   2.0000      -3.645667       -99.2036
  19   2.0000      -2.290917       -62.3390
  20   2.0000      -2.288369       -62.2697
  21   2.0000      -2.259201       -61.4760
  22   2.0000      -1.273144       -34.6440
  23   2.0000      -1.142723       -31.0951
  24   2.0000      -1.116176       -30.3727
  25   2.0000      -1.071089       -29.1458
  26   2.0000      -1.021337       -27.7920
  27   2.0000      -0.946252       -25.7488
  28   2.0000      -0.885297       -24.0901
  29   2.0000      -0.862376       -23.4664
  30   2.0000      -0.821492       -22.3539
  31   2.0000      -0.812653       -22.1134
  32   2.0000      -0.779586       -21.2136
  33   2.0000      -0.776891       -21.1403
  34   2.0000      -0.747983       -20.3536
  35   2.0000      -0.706844       -19.2342
  36   2.0000      -0.670637       -18.2490
  37   2.0000      -0.645987       -17.5782
  38   2.0000      -0.625959       -17.0332
  39   2.0000      -0.591109       -16.0849
  40   2.0000      -0.581251       -15.8166
  41   2.0000      -0.572934       -15.5903
  42   2.0000      -0.564923       -15.3723
  43   2.0000      -0.561918       -15.2906
  44   2.0000      -0.558111       -15.1870
  45   2.0000      -0.538175       -14.6445
  46   2.0000      -0.511740       -13.9252
  47   2.0000      -0.496593       -13.5130
  48   2.0000      -0.495523       -13.4839
  49   2.0000      -0.491184       -13.3658
  50   2.0000      -0.488600       -13.2955
  51   2.0000      -0.481535       -13.1032
  52   2.0000      -0.476334       -12.9617
  53   2.0000      -0.470266       -12.7966
  54   2.0000      -0.465894       -12.6776
  55   2.0000      -0.463587       -12.6148
  56   2.0000      -0.452620       -12.3164
  57   2.0000      -0.442086       -12.0298
  58   2.0000      -0.438321       -11.9273
  59   2.0000      -0.431265       -11.7353
  60   2.0000      -0.426199       -11.5975
  61   2.0000      -0.416878       -11.3438
  62   2.0000      -0.412932       -11.2365
  63   2.0000      -0.404934       -11.0188
  64   2.0000      -0.387242       -10.5374
  65   2.0000      -0.385320       -10.4851
  66   2.0000      -0.377617       -10.2755
  67   2.0000      -0.364031        -9.9058
  68   2.0000      -0.341350        -9.2886
  69   2.0000      -0.337494        -9.1837
  70   2.0000      -0.319968        -8.7068
  71   2.0000      -0.292022        -7.9463
  72   2.0000      -0.284461        -7.7406
  73   2.0000      -0.278884        -7.5888
  74   2.0000      -0.276596        -7.5266
  75   2.0000      -0.259297        -7.0558
  76   2.0000      -0.251053        -6.8315
  77   0.0000      -0.025471        -0.6931
  78   0.0000      -0.008918        -0.2427
  79   0.0000       0.016820         0.4577
  80   0.0000       0.027203         0.7402
  81   0.0000       0.038823         1.0564

MULLIKEN ATOMIC CHARGES
-----------------------
   0 Pd:    0.352106
   1 O :   -0.456296
   2 C :    0.646954
   3 O :   -0.534330
   4 C :   -0.758040
   5 H :    0.265605
   6 H :    0.288813
   7 H :    0.289018
   8 N :   -0.489059
   9 C :   -0.525074
  10 H :    0.293907
  11 H :    0.208100
  12 H :    0.284043
  13 C :   -0.520369
  14 H :    0.252293
  15 H :    0.229004
  16 H :    0.284518
  17 C :    0.095584
  18 C :   -0.266521
  19 C :   -0.238920
  20 C :   -0.209044
  21 C :   -0.298070
  22 C :   -0.125163
  23 H :    0.211369
  24 H :    0.206418
  25 H :    0.205009
  26 H :    0.215050
  27 H :    0.497209
  28 C :   -0.327755
  29 H :    0.258114
  30 H :    0.234473
  31 O :   -0.565437
  32 C :    0.544790
  33 O :   -0.481080
  34 C :   -0.742767
  35 H :    0.232806
  36 H :    0.226552
  37 H :    0.216191
Sum of atomic charges:   -0.0000000

LOEWDIN ATOMIC CHARGES
----------------------
   0 Pd:   -0.466941
   1 O :   -0.120660
   2 C :    0.253289
   3 O :   -0.209508
   4 C :   -0.372111
   5 H :    0.160180
   6 H :    0.178570
   7 H :    0.168401
   8 N :   -0.032528
   9 C :   -0.227545
  10 H :    0.162586
  11 H :    0.114462
  12 H :    0.160438
  13 C :   -0.228962
  14 H :    0.144617
  15 H :    0.123840
  16 H :    0.159280
  17 C :   -0.050818
  18 C :   -0.137811
  19 C :   -0.142414
  20 C :   -0.135390
  21 C :   -0.127637
  22 C :   -0.039952
  23 H :    0.133476
  24 H :    0.137572
  25 H :    0.134481
  26 H :    0.134033
  27 H :    0.367002
  28 C :   -0.101788
  29 H :    0.146616
  30 H :    0.130302
  31 O :   -0.251057
  32 C :    0.114188
  33 O :   -0.296496
  34 C :   -0.392714
  35 H :    0.138404
  36 H :    0.142672
  37 H :    0.129923

  Mayer bond orders larger than 0.100000
B(  0-Pd,  1-O ) :   0.3867 B(  0-Pd,  8-N ) :   0.4573 B(  0-Pd, 22-C ) :   0.8670
B(  0-Pd, 31-O ) :   0.4998 B(  1-O ,  2-C ) :   1.6319 B(  2-C ,  3-O ) :   1.2714
B(  2-C ,  4-C ) :   0.9596 B(  3-O , 27-H ) :   0.6745 B(  4-C ,  5-H ) :   0.9016
B(  4-C ,  6-H ) :   0.8828 B(  4-C ,  7-H ) :   0.8969 B(  8-N ,  9-C ) :   0.9117
B(  8-N , 13-C ) :   0.9190 B(  8-N , 28-C ) :   0.8713 B(  9-C , 10-H ) :   0.8859
B(  9-C , 11-H ) :   0.9039 B(  9-C , 12-H ) :   0.8960 B( 13-C , 14-H ) :   0.9066
B( 13-C , 15-H ) :   0.9010 B( 13-C , 16-H ) :   0.8909 B( 17-C , 18-C ) :   1.4396
B( 17-C , 22-C ) :   1.2793 B( 17-C , 28-C ) :   0.9713 B( 18-C , 19-C ) :   1.4013
B( 18-C , 25-H ) :   0.9237 B( 19-C , 20-C ) :   1.4545 B( 19-C , 26-H ) :   0.9187
B( 20-C , 21-C ) :   1.4041 B( 20-C , 23-H ) :   0.9197 B( 21-C , 22-C ) :   1.4112
B( 21-C , 24-H ) :   0.9210 B( 28-C , 29-H ) :   0.8967 B( 28-C , 30-H ) :   0.9058
B( 31-O , 32-C ) :   1.3317 B( 31-O , 33-O ) :   0.1068 B( 32-C , 33-O ) :   1.8481
B( 32-C , 34-C ) :   0.9258 B( 34-C , 35-H ) :   0.9226 B( 34-C , 36-H ) :   0.9203
B( 34-C , 37-H ) :   0.9211

Dispersion correction           -0.026355812
FINAL SINGLE POINT ENERGY      -988.522056579215
Dispersion correction            ... done

DIPOLE MOMENT
-------------
                                X             Y             Z
Electronic contribution:      5.50320      10.36085      -4.19212
Nuclear contribution   :     -6.96226      -8.40086       4.21634
                        -----------------------------------------
Total Dipole Moment    :     -1.45906       1.96000       0.02422
                        -----------------------------------------
Magnitude (a.u.)       :      2.44357
Magnitude (Debye)      :      6.21106

Rotational constants in cm-1:     0.013480     0.009198     0.006819
Rotational constants in MHz :   404.113902   275.737307   204.436974

                             ****ORCA TERMINATED NORMALLY****
TOTAL RUN TIME: 0 days 0 hours 8 minutes 13 seconds 212 msec
