                         Program Version 5.0.3 -  RELEASE  -
|  1> ! EnGrad PBEh-3c
|  2> %output
|  3> xyzfile=True
|  4> end
|  5> %scf
|  6> maxiter 250
|  7> end
|  8> %output
|  9> Print[P_Hirshfeld] = 1
| 10> end
| 11> % maxcore
| 12> 4000
| 13> *xyz 0 1
| 14> Pd   0.35564803   0.18830564  -0.09597790
| 15> O    1.92475091   1.31771799   0.64053366
| 16> C    1.77206476   2.57828719   0.42313187
| 17> O    0.68717559   3.02533914  -0.09687036
| 18> C    2.95437273   3.50496751   0.69314265
| 19> H    2.59617039   4.43581442   1.13527427
| 20> H    3.41070033   3.76744848  -0.26229172
| 21> H    3.70176729   3.05843447   1.32298822
| 22> N   -1.28077151  -0.96198012  -0.93224401
| 23> C   -0.89240552  -2.33062594  -1.29618612
| 24> H   -0.11031911  -2.32637547  -2.02194005
| 25> H   -1.74661702  -2.84376231  -1.73788574
| 26> H   -0.55156649  -2.86051762  -0.41095254
| 27> C   -1.80204509  -0.28515679  -2.12974817
| 28> H   -1.94278418   0.76937030  -1.94498384
| 29> H   -2.74737402  -0.74094011  -2.41906281
| 30> H   -1.11227923  -0.41593295  -2.95551348
| 31> C   -1.84999948  -1.09005197   1.50535814
| 32> C   -2.41717852  -1.92542646   2.47733268
| 33> C   -2.04005213  -1.81216202   3.81003039
| 34> C   -1.08396010  -0.89023399   4.17120797
| 35> C   -0.54593482  -0.03584158   3.21219531
| 36> C   -0.85733314  -0.15795418   1.83065588
| 37> H   -0.79576137  -0.77714345   5.21409616
| 38> H    0.09565360   0.71327749   3.59261194
| 39> H   -3.21955862  -2.59293374   2.23666907
| 40> H   -2.52341696  -2.40156836   4.56757494
| 41> H   -0.77770019   3.88478264   0.74929925
| 42> C   -2.36579296  -1.02619837   0.12078255
| 43> H   -2.96916746  -0.12351638   0.03244427
| 44> H   -3.03924658  -1.85459188  -0.09503723
| 45> O    1.39199314   0.64037229  -1.93082627
| 46> C    2.15653712  -0.27389824  -2.44704769
| 47> O    2.15742016  -1.45411629  -2.14872532
| 48> C    3.15288602   0.23521880  -3.52458105
| 49> H    3.52124751  -0.58759224  -4.12890471
| 50> H    4.01241276   0.64154025  -2.98158724
| 51> H    2.78126566   1.01208250  -4.17587752
| 52> *
| 53>
| 54>                          ****END OF INPUT****

CARTESIAN COORDINATES (ANGSTROEM)
---------------------------------
  Pd     0.355648    0.188306   -0.095978
  O      1.924751    1.317718    0.640534
  C      1.772065    2.578287    0.423132
  O      0.687176    3.025339   -0.096870
  C      2.954373    3.504968    0.693143
  H      2.596170    4.435814    1.135274
  H      3.410700    3.767448   -0.262292
  H      3.701767    3.058434    1.322988
  N     -1.280772   -0.961980   -0.932244
  C     -0.892406   -2.330626   -1.296186
  H     -0.110319   -2.326375   -2.021940
  H     -1.746617   -2.843762   -1.737886
  H     -0.551566   -2.860518   -0.410953
  C     -1.802045   -0.285157   -2.129748
  H     -1.942784    0.769370   -1.944984
  H     -2.747374   -0.740940   -2.419063
  H     -1.112279   -0.415933   -2.955513
  C     -1.849999   -1.090052    1.505358
  C     -2.417179   -1.925426    2.477333
  C     -2.040052   -1.812162    3.810030
  C     -1.083960   -0.890234    4.171208
  C     -0.545935   -0.035842    3.212195
  C     -0.857333   -0.157954    1.830656
  H     -0.795761   -0.777143    5.214096
  H      0.095654    0.713277    3.592612
  H     -3.219559   -2.592934    2.236669
  H     -2.523417   -2.401568    4.567575
  H     -0.777700    3.884783    0.749299
  C     -2.365793   -1.026198    0.120783
  H     -2.969167   -0.123516    0.032444
  H     -3.039247   -1.854592   -0.095037
  O      1.391993    0.640372   -1.930826
  C      2.156537   -0.273898   -2.447048
  O      2.157420   -1.454116   -2.148725
  C      3.152886    0.235219   -3.524581
  H      3.521248   -0.587592   -4.128905
  H      4.012413    0.641540   -2.981587
  H      2.781266    1.012082   -4.175878

 Total Charge           Charge          ....    0
 Multiplicity           Mult            ....    1
 Number of Electrons    NEL             ....  154
 Basis Dimension        Dim             ....  339

ORBITAL ENERGIES
----------------

  NO   OCC          E(Eh)            E(eV)
   0   2.0000     -19.539813      -531.7054
   1   2.0000     -19.536398      -531.6124
   2   2.0000     -19.445159      -529.1297
   3   2.0000     -19.413024      -528.2553
   4   2.0000     -14.712940      -400.3594
   5   2.0000     -10.601519      -288.4820
   6   2.0000     -10.514551      -286.1155
   7   2.0000     -10.486113      -285.3416
   8   2.0000     -10.472527      -284.9719
   9   2.0000     -10.459600      -284.6202
  10   2.0000     -10.457263      -284.5566
  11   2.0000     -10.456679      -284.5407
  12   2.0000     -10.454310      -284.4762
  13   2.0000     -10.446723      -284.2698
  14   2.0000     -10.442864      -284.1648
  15   2.0000     -10.442428      -284.1529
  16   2.0000     -10.441938      -284.1396
  17   2.0000     -10.402302      -283.0610
  18   2.0000      -3.650126       -99.3250
  19   2.0000      -2.296955       -62.5033
  20   2.0000      -2.288833       -62.2823
  21   2.0000      -2.262764       -61.5729
  22   2.0000      -1.201665       -32.6990
  23   2.0000      -1.122194       -30.5365
  24   2.0000      -1.103482       -30.0273
  25   2.0000      -1.062512       -28.9124
  26   2.0000      -1.026669       -27.9371
  27   2.0000      -0.951843       -25.9010
  28   2.0000      -0.870158       -23.6782
  29   2.0000      -0.841327       -22.8937
  30   2.0000      -0.824250       -22.4290
  31   2.0000      -0.809785       -22.0354
  32   2.0000      -0.782678       -21.2978
  33   2.0000      -0.775024       -21.0895
  34   2.0000      -0.706195       -19.2165
  35   2.0000      -0.678194       -18.4546
  36   2.0000      -0.645775       -17.5724
  37   2.0000      -0.637760       -17.3543
  38   2.0000      -0.583895       -15.8886
  39   2.0000      -0.566407       -15.4127
  40   2.0000      -0.561970       -15.2920
  41   2.0000      -0.559863       -15.2346
  42   2.0000      -0.558147       -15.1880
  43   2.0000      -0.549393       -14.9497
  44   2.0000      -0.538308       -14.6481
  45   2.0000      -0.531778       -14.4704
  46   2.0000      -0.514588       -14.0027
  47   2.0000      -0.500508       -13.6195
  48   2.0000      -0.486539       -13.2394
  49   2.0000      -0.478500       -13.0206
  50   2.0000      -0.475644       -12.9429
  51   2.0000      -0.469593       -12.7783
  52   2.0000      -0.468281       -12.7426
  53   2.0000      -0.464624       -12.6431
  54   2.0000      -0.454790       -12.3755
  55   2.0000      -0.451710       -12.2916
  56   2.0000      -0.445241       -12.1156
  57   2.0000      -0.436345       -11.8735
  58   2.0000      -0.427638       -11.6366
  59   2.0000      -0.418184       -11.3794
  60   2.0000      -0.412327       -11.2200
  61   2.0000      -0.405936       -11.0461
  62   2.0000      -0.401103       -10.9146
  63   2.0000      -0.391650       -10.6573
  64   2.0000      -0.381211       -10.3733
  65   2.0000      -0.368935       -10.0392
  66   2.0000      -0.353790        -9.6271
  67   2.0000      -0.351452        -9.5635
  68   2.0000      -0.341294        -9.2871
  69   2.0000      -0.332322        -9.0429
  70   2.0000      -0.328313        -8.9338
  71   2.0000      -0.288018        -7.8374
  72   2.0000      -0.285871        -7.7790
  73   2.0000      -0.284282        -7.7357
  74   2.0000      -0.280640        -7.6366
  75   2.0000      -0.265847        -7.2341
  76   2.0000      -0.259332        -7.0568
  77   0.0000      -0.183767        -5.0006
  78   0.0000      -0.046861        -1.2751
  79   0.0000       0.016597         0.4516
  80   0.0000       0.020460         0.5568
  81   0.0000       0.028486         0.7751

MULLIKEN ATOMIC CHARGES
-----------------------
   0 Pd:    0.391587
   1 O :   -0.428054
   2 C :    0.626921
   3 O :   -0.424513
   4 C :   -0.740150
   5 H :    0.238035
   6 H :    0.271734
   7 H :    0.266541
   8 N :   -0.472375
   9 C :   -0.536680
  10 H :    0.311019
  11 H :    0.209078
  12 H :    0.271014
  13 C :   -0.517964
  14 H :    0.269257
  15 H :    0.221702
  16 H :    0.278240
  17 C :    0.068311
  18 C :   -0.253537
  19 C :   -0.230997
  20 C :   -0.200365
  21 C :   -0.310341
  22 C :   -0.093021
  23 H :    0.217402
  24 H :    0.219691
  25 H :    0.206860
  26 H :    0.219370
  27 H :    0.284426
  28 C :   -0.329319
  29 H :    0.264814
  30 H :    0.230826
  31 O :   -0.542004
  32 C :    0.537980
  33 O :   -0.467408
  34 C :   -0.742555
  35 H :    0.232423
  36 H :    0.225753
  37 H :    0.226302
Sum of atomic charges:   -0.0000000

LOEWDIN ATOMIC CHARGES
----------------------
   0 Pd:   -0.368801
   1 O :   -0.081356
   2 C :    0.202384
   3 O :   -0.198354
   4 C :   -0.376844
   5 H :    0.147856
   6 H :    0.168150
   7 H :    0.154642
   8 N :   -0.044055
   9 C :   -0.237825
  10 H :    0.166283
  11 H :    0.115373
  12 H :    0.154475
  13 C :   -0.230876
  14 H :    0.151212
  15 H :    0.120518
  16 H :    0.156945
  17 C :   -0.064596
  18 C :   -0.137050
  19 C :   -0.135749
  20 C :   -0.137264
  21 C :   -0.123530
  22 C :   -0.023819
  23 H :    0.135474
  24 H :    0.138111
  25 H :    0.133588
  26 H :    0.135154
  27 H :    0.292062
  28 C :   -0.104186
  29 H :    0.151153
  30 H :    0.129036
  31 O :   -0.242368
  32 C :    0.116962
  33 O :   -0.280230
  34 C :   -0.395532
  35 H :    0.136648
  36 H :    0.143199
  37 H :    0.133213

  Mayer bond orders larger than 0.100000
B(  0-Pd,  1-O ) :   0.4775 B(  0-Pd,  3-O ) :   0.1043 B(  0-Pd,  8-N ) :   0.4442
B(  0-Pd, 22-C ) :   0.7185 B(  0-Pd, 27-H ) :   0.1621 B(  0-Pd, 31-O ) :   0.5226
B(  1-O ,  2-C ) :   1.4986 B(  1-O , 27-H ) :   0.1207 B(  2-C ,  3-O ) :   1.4292
B(  2-C ,  4-C ) :   0.9528 B(  3-O , 27-H ) :   0.4775 B(  4-C ,  5-H ) :   0.9112
B(  4-C ,  6-H ) :   0.8969 B(  4-C ,  7-H ) :   0.9039 B(  8-N ,  9-C ) :   0.9195
B(  8-N , 13-C ) :   0.9214 B(  8-N , 28-C ) :   0.8819 B(  9-C , 10-H ) :   0.8691
B(  9-C , 11-H ) :   0.9050 B(  9-C , 12-H ) :   0.9026 B( 13-C , 14-H ) :   0.9036
B( 13-C , 15-H ) :   0.9021 B( 13-C , 16-H ) :   0.8982 B( 17-C , 18-C ) :   1.4005
B( 17-C , 22-C ) :   1.3252 B( 17-C , 28-C ) :   0.9743 B( 18-C , 19-C ) :   1.4368
B( 18-C , 25-H ) :   0.9212 B( 19-C , 20-C ) :   1.4286 B( 19-C , 26-H ) :   0.9164
B( 20-C , 21-C ) :   1.4277 B( 20-C , 23-H ) :   0.9166 B( 21-C , 22-C ) :   1.3938
B( 21-C , 24-H ) :   0.9173 B( 28-C , 29-H ) :   0.8958 B( 28-C , 30-H ) :   0.9064
B( 31-O , 32-C ) :   1.3278 B( 31-O , 33-O ) :   0.1046 B( 32-C , 33-O ) :   1.8558
B( 32-C , 34-C ) :   0.9184 B( 34-C , 35-H ) :   0.9211 B( 34-C , 36-H ) :   0.9207
B( 34-C , 37-H ) :   0.9183

Dispersion correction           -0.026075101
FINAL SINGLE POINT ENERGY      -988.311361365280
Dispersion correction            ... done

DIPOLE MOMENT
-------------
                                X             Y             Z
Electronic contribution:     13.44545      10.49817      -4.48838
Nuclear contribution   :    -15.26449      -8.83008       5.28111
                        -----------------------------------------
Total Dipole Moment    :     -1.81904       1.66810       0.79273
                        -----------------------------------------
Magnitude (a.u.)       :      2.59227
Magnitude (Debye)      :      6.58903

Rotational constants in cm-1:     0.014692     0.008353     0.006264
Rotational constants in MHz :   440.458974   250.417390   187.799682

                             ****ORCA TERMINATED NORMALLY****
TOTAL RUN TIME: 0 days 0 hours 13 minutes 19 seconds 580 msec
