                         Program Version 5.0.3 -  RELEASE  -
|  1> ! EnGrad PBEh-3c
|  2> %output
|  3> xyzfile=True
|  4> end
|  5> %scf
|  6> maxiter 250
|  7> end
|  8> %output
|  9> Print[P_Hirshfeld] = 1
| 10> end
| 11> % maxcore
| 12> 4000
| 13> *xyz 0 1
| 14> Pd   0.31843346   0.25521047   0.01420612
| 15> O    1.88022195   1.33709250   0.61515838
| 16> C    1.71663101   2.59732602   0.42664012
| 17> O    0.57303932   3.04919935  -0.05207841
| 18> C    2.93247909   3.51620014   0.68354160
| 19> H    2.56285537   4.44324105   1.12221085
| 20> H    3.38990718   3.78718193  -0.27262578
| 21> H    3.69885390   3.07871453   1.32685286
| 22> N   -1.31280601  -0.96462302  -0.95204021
| 23> C   -0.90900555  -2.31971396  -1.36769792
| 24> H   -0.12088359  -2.25366787  -2.09872161
| 25> H   -1.80484512  -2.77987408  -1.77387477
| 26> H   -0.57397518  -2.86474824  -0.48959614
| 27> C   -1.83339039  -0.22117106  -2.11824116
| 28> H   -1.96426844   0.83262907  -1.88618834
| 29> H   -2.78527261  -0.67110492  -2.38328310
| 30> H   -1.12758233  -0.31863399  -2.93579894
| 31> C   -1.85070112  -1.04559857   1.52253788
| 32> C   -2.34898513  -1.96616223   2.46181546
| 33> C   -1.96375414  -1.87081257   3.79093459
| 34> C   -1.08594206  -0.86898443   4.15998127
| 35> C   -0.61655365   0.04860873   3.20977549
| 36> C   -0.76308278  -0.16916054   1.78620386
| 37> H   -0.78418113  -0.76870803   5.20554093
| 38> H    0.00104789   0.83019911   3.59121111
| 39> H   -3.10891144  -2.68936921   2.20203901
| 40> H   -2.41830254  -2.48808755   4.54711728
| 41> H   -0.71095980   3.76332452   0.73972081
| 42> C   -2.37325027  -1.04454532   0.12847375
| 43> H   -2.97612411  -0.14375438   0.05230896
| 44> H   -3.01017702  -1.89018143  -0.11889258
| 45> O    1.38859827   0.62104703  -1.94837645
| 46> C    2.19147246  -0.32978127  -2.37812612
| 47> O    2.16605899  -1.51724026  -2.13844954
| 48> C    3.19336374   0.17321597  -3.49016413
| 49> H    3.55763873  -0.66934950  -4.07749016
| 50> H    4.04570908   0.57815179  -2.94765210
| 51> H    2.82790445   0.95401090  -4.15971500
| 52> *
| 53>
| 54>                          ****END OF INPUT****

CARTESIAN COORDINATES (ANGSTROEM)
---------------------------------
  Pd     0.318433    0.255210    0.014206
  O      1.880222    1.337093    0.615158
  C      1.716631    2.597326    0.426640
  O      0.573039    3.049199   -0.052078
  C      2.932479    3.516200    0.683542
  H      2.562855    4.443241    1.122211
  H      3.389907    3.787182   -0.272626
  H      3.698854    3.078715    1.326853
  N     -1.312806   -0.964623   -0.952040
  C     -0.909006   -2.319714   -1.367698
  H     -0.120884   -2.253668   -2.098722
  H     -1.804845   -2.779874   -1.773875
  H     -0.573975   -2.864748   -0.489596
  C     -1.833390   -0.221171   -2.118241
  H     -1.964268    0.832629   -1.886188
  H     -2.785273   -0.671105   -2.383283
  H     -1.127582   -0.318634   -2.935799
  C     -1.850701   -1.045599    1.522538
  C     -2.348985   -1.966162    2.461815
  C     -1.963754   -1.870813    3.790935
  C     -1.085942   -0.868984    4.159981
  C     -0.616554    0.048609    3.209775
  C     -0.763083   -0.169161    1.786204
  H     -0.784181   -0.768708    5.205541
  H      0.001048    0.830199    3.591211
  H     -3.108911   -2.689369    2.202039
  H     -2.418303   -2.488088    4.547117
  H     -0.710960    3.763325    0.739721
  C     -2.373250   -1.044545    0.128474
  H     -2.976124   -0.143754    0.052309
  H     -3.010177   -1.890181   -0.118893
  O      1.388598    0.621047   -1.948376
  C      2.191472   -0.329781   -2.378126
  O      2.166059   -1.517240   -2.138450
  C      3.193364    0.173216   -3.490164
  H      3.557639   -0.669350   -4.077490
  H      4.045709    0.578152   -2.947652
  H      2.827904    0.954011   -4.159715

 Total Charge           Charge          ....    0
 Multiplicity           Mult            ....    1
 Number of Electrons    NEL             ....  154
 Basis Dimension        Dim             ....  339

ORBITAL ENERGIES
----------------

  NO   OCC          E(Eh)            E(eV)
   0   2.0000     -19.570349      -532.5363
   1   2.0000     -19.557184      -532.1780
   2   2.0000     -19.434697      -528.8450
   3   2.0000     -19.411839      -528.2230
   4   2.0000     -14.700491      -400.0207
   5   2.0000     -10.628049      -289.2039
   6   2.0000     -10.511120      -286.0221
   7   2.0000     -10.479473      -285.1610
   8   2.0000     -10.475933      -285.0646
   9   2.0000     -10.467989      -284.8485
  10   2.0000     -10.456388      -284.5328
  11   2.0000     -10.455262      -284.5021
  12   2.0000     -10.451725      -284.4059
  13   2.0000     -10.442596      -284.1575
  14   2.0000     -10.441982      -284.1408
  15   2.0000     -10.439194      -284.0649
  16   2.0000     -10.436055      -283.9795
  17   2.0000     -10.395660      -282.8803
  18   2.0000      -3.647302       -99.2481
  19   2.0000      -2.294389       -62.4335
  20   2.0000      -2.287675       -62.2508
  21   2.0000      -2.259093       -61.4731
  22   2.0000      -1.217352       -33.1258
  23   2.0000      -1.122152       -30.5353
  24   2.0000      -1.111207       -30.2375
  25   2.0000      -1.049673       -28.5631
  26   2.0000      -1.017795       -27.6956
  27   2.0000      -0.943260       -25.6674
  28   2.0000      -0.860764       -23.4226
  29   2.0000      -0.852807       -23.2061
  30   2.0000      -0.818258       -22.2659
  31   2.0000      -0.802889       -21.8477
  32   2.0000      -0.774581       -21.0774
  33   2.0000      -0.761726       -20.7276
  34   2.0000      -0.695199       -18.9173
  35   2.0000      -0.670804       -18.2535
  36   2.0000      -0.663701       -18.0602
  37   2.0000      -0.638308       -17.3692
  38   2.0000      -0.594764       -16.1844
  39   2.0000      -0.575699       -15.6656
  40   2.0000      -0.566197       -15.4070
  41   2.0000      -0.553908       -15.0726
  42   2.0000      -0.550926       -14.9915
  43   2.0000      -0.549677       -14.9575
  44   2.0000      -0.541003       -14.7214
  45   2.0000      -0.529163       -14.3993
  46   2.0000      -0.505397       -13.7526
  47   2.0000      -0.495820       -13.4919
  48   2.0000      -0.491730       -13.3807
  49   2.0000      -0.479130       -13.0378
  50   2.0000      -0.471442       -12.8286
  51   2.0000      -0.466004       -12.6806
  52   2.0000      -0.460256       -12.5242
  53   2.0000      -0.458242       -12.4694
  54   2.0000      -0.455553       -12.3962
  55   2.0000      -0.447293       -12.1715
  56   2.0000      -0.444077       -12.0839
  57   2.0000      -0.432086       -11.7577
  58   2.0000      -0.430418       -11.7123
  59   2.0000      -0.422240       -11.4897
  60   2.0000      -0.415136       -11.2964
  61   2.0000      -0.409369       -11.1395
  62   2.0000      -0.400230       -10.8908
  63   2.0000      -0.395111       -10.7515
  64   2.0000      -0.384253       -10.4561
  65   2.0000      -0.382446       -10.4069
  66   2.0000      -0.361762        -9.8440
  67   2.0000      -0.345102        -9.3907
  68   2.0000      -0.337627        -9.1873
  69   2.0000      -0.333617        -9.0782
  70   2.0000      -0.326378        -8.8812
  71   2.0000      -0.286097        -7.7851
  72   2.0000      -0.279583        -7.6078
  73   2.0000      -0.278643        -7.5823
  74   2.0000      -0.274584        -7.4718
  75   2.0000      -0.261198        -7.1076
  76   2.0000      -0.252498        -6.8708
  77   0.0000      -0.166640        -4.5345
  78   0.0000      -0.039510        -1.0751
  79   0.0000       0.003513         0.0956
  80   0.0000       0.015150         0.4123
  81   0.0000       0.024360         0.6629

MULLIKEN ATOMIC CHARGES
-----------------------
   0 Pd:    0.369167
   1 O :   -0.414043
   2 C :    0.647301
   3 O :   -0.463039
   4 C :   -0.735400
   5 H :    0.239642
   6 H :    0.280779
   7 H :    0.274918
   8 N :   -0.459738
   9 C :   -0.519649
  10 H :    0.304763
  11 H :    0.200935
  12 H :    0.266462
  13 C :   -0.509489
  14 H :    0.258990
  15 H :    0.216348
  16 H :    0.277293
  17 C :    0.065357
  18 C :   -0.250643
  19 C :   -0.225763
  20 C :   -0.206582
  21 C :   -0.307464
  22 C :   -0.114072
  23 H :    0.215190
  24 H :    0.207544
  25 H :    0.207794
  26 H :    0.216535
  27 H :    0.362380
  28 C :   -0.331629
  29 H :    0.257297
  30 H :    0.226189
  31 O :   -0.555237
  32 C :    0.535350
  33 O :   -0.459911
  34 C :   -0.740556
  35 H :    0.226375
  36 H :    0.215983
  37 H :    0.220623
Sum of atomic charges:    0.0000000

LOEWDIN ATOMIC CHARGES
----------------------
   0 Pd:   -0.390529
   1 O :   -0.050464
   2 C :    0.240496
   3 O :   -0.221799
   4 C :   -0.372258
   5 H :    0.148478
   6 H :    0.171943
   7 H :    0.161826
   8 N :   -0.063275
   9 C :   -0.234548
  10 H :    0.167235
  11 H :    0.112393
  12 H :    0.152535
  13 C :   -0.231335
  14 H :    0.147551
  15 H :    0.118270
  16 H :    0.157161
  17 C :   -0.057028
  18 C :   -0.141125
  19 C :   -0.143141
  20 C :   -0.142291
  21 C :   -0.128252
  22 C :   -0.017664
  23 H :    0.134318
  24 H :    0.132441
  25 H :    0.133986
  26 H :    0.134011
  27 H :    0.360480
  28 C :   -0.108023
  29 H :    0.148444
  30 H :    0.126675
  31 O :   -0.286382
  32 C :    0.120587
  33 O :   -0.275917
  34 C :   -0.404648
  35 H :    0.132988
  36 H :    0.136122
  37 H :    0.130735

  Mayer bond orders larger than 0.100000
B(  0-Pd,  1-O ) :   0.4580 B(  0-Pd,  8-N ) :   0.4279 B(  0-Pd, 22-C ) :   0.8180
B(  0-Pd, 31-O ) :   0.4838 B(  1-O ,  2-C ) :   1.5600 B(  2-C ,  3-O ) :   1.2953
B(  2-C ,  4-C ) :   0.9507 B(  3-O , 27-H ) :   0.5972 B(  4-C ,  5-H ) :   0.9076
B(  4-C ,  6-H ) :   0.8912 B(  4-C ,  7-H ) :   0.9006 B(  8-N ,  9-C ) :   0.9216
B(  8-N , 13-C ) :   0.9240 B(  8-N , 28-C ) :   0.8849 B(  9-C , 10-H ) :   0.8726
B(  9-C , 11-H ) :   0.9059 B(  9-C , 12-H ) :   0.9050 B( 13-C , 14-H ) :   0.9073
B( 13-C , 15-H ) :   0.9039 B( 13-C , 16-H ) :   0.8983 B( 17-C , 18-C ) :   1.3912
B( 17-C , 22-C ) :   1.3083 B( 17-C , 28-C ) :   0.9794 B( 18-C , 19-C ) :   1.4333
B( 18-C , 25-H ) :   0.9221 B( 19-C , 20-C ) :   1.4291 B( 19-C , 26-H ) :   0.9167
B( 20-C , 21-C ) :   1.4290 B( 20-C , 23-H ) :   0.9186 B( 21-C , 22-C ) :   1.3722
B( 21-C , 24-H ) :   0.9208 B( 28-C , 29-H ) :   0.8976 B( 28-C , 30-H ) :   0.9057
B( 31-O , 32-C ) :   1.3354 B( 31-O , 33-O ) :   0.1086 B( 32-C , 33-O ) :   1.8718
B( 32-C , 34-C ) :   0.9067 B( 34-C , 35-H ) :   0.9228 B( 34-C , 36-H ) :   0.9239
B( 34-C , 37-H ) :   0.9221

Dispersion correction           -0.026155231
FINAL SINGLE POINT ENERGY      -988.326896155083
Dispersion correction            ... done

DIPOLE MOMENT
-------------
                                X             Y             Z
Electronic contribution:     11.79574      14.79352       1.61626
Nuclear contribution   :    -13.42219     -12.42020      -0.59603
                        -----------------------------------------
Total Dipole Moment    :     -1.62645       2.37332       1.02023
                        -----------------------------------------
Magnitude (a.u.)       :      3.05268
Magnitude (Debye)      :      7.75930

Rotational constants in cm-1:     0.014446     0.008425     0.006322
Rotational constants in MHz :   433.083660   252.582365   189.542703

                             ****ORCA TERMINATED NORMALLY****
TOTAL RUN TIME: 0 days 0 hours 12 minutes 27 seconds 223 msec
