                         Program Version 5.0.3 -  RELEASE  -
|  1> ! EnGrad PBEh-3c
|  2> %output
|  3> xyzfile=True
|  4> end
|  5> %scf
|  6> maxiter 250
|  7> end
|  8> %output
|  9> Print[P_Hirshfeld] = 1
| 10> end
| 11> % maxcore
| 12> 4000
| 13> *xyz 0 1
| 14> Pd   0.34493610   0.20756370  -0.06426225
| 15> O    1.91193358   1.32329480   0.63322957
| 16> C    1.75610857   2.58376738   0.42414169
| 17> O    0.65432231   3.03220713  -0.08397733
| 18> C    2.94807081   3.50820074   0.69037906
| 19> H    2.58658091   4.43795212   1.13151406
| 20> H    3.40471518   3.77312861  -0.26526630
| 21> H    3.70092869   3.06427193   1.32410062
| 22> N   -1.28999240  -0.96274086  -0.93794220
| 23> C   -0.89718371  -2.32748501  -1.31677026
| 24> H   -0.11336002  -2.30544713  -2.04404105
| 25> H   -1.76337755  -2.82537256  -1.74824491
| 26> H   -0.55801666  -2.86173537  -0.43358952
| 27> C   -1.81106760  -0.26673897  -2.12643596
| 28> H   -1.94896826   0.78757886  -1.92805999
| 29> H   -2.75828285  -0.72083857  -2.40876389
| 30> H   -1.11668411  -0.38792617  -2.94983880
| 31> C   -1.85020144  -1.07725639   1.51030320
| 32> C   -2.39754956  -1.93715195   2.47286617
| 33> C   -2.01809032  -1.82904414   3.80453381
| 34> C   -1.08453059  -0.88411746   4.16797645
| 35> C   -0.56626193  -0.01153319   3.21149879
| 36> C   -0.83020388  -0.16117985   1.81786070
| 37> H   -0.79242808  -0.77471538   5.21163360
| 38> H    0.06842205   0.74693251   3.59220872
| 39> H   -3.18770965  -2.62069198   2.22670106
| 40> H   -2.49316056  -2.42647227   4.56168636
| 41> H   -0.75848946   3.84982183   0.74654217
| 42> C   -2.36793949  -1.03147940   0.12299640
| 43> H   -2.97116988  -0.12934174   0.03816217
| 44> H   -3.03087912  -1.86483606  -0.10190382
| 45> O    1.39101595   0.63480966  -1.93587796
| 46> C    2.16659300  -0.28998375  -2.42720912
| 47> O    2.15990678  -1.47228606  -2.14576751
| 48> C    3.16453723   0.21737174  -3.51467439
| 49> H    3.53172245  -0.61112546  -4.11410542
| 50> H    4.02199686   0.62329435  -2.97181926
| 51> H    2.79469029   0.99536702  -4.17122526
| 52> *
| 53>
| 54>                          ****END OF INPUT****

CARTESIAN COORDINATES (ANGSTROEM)
---------------------------------
  Pd     0.344936    0.207564   -0.064262
  O      1.911934    1.323295    0.633230
  C      1.756109    2.583767    0.424142
  O      0.654322    3.032207   -0.083977
  C      2.948071    3.508201    0.690379
  H      2.586581    4.437952    1.131514
  H      3.404715    3.773129   -0.265266
  H      3.700929    3.064272    1.324101
  N     -1.289992   -0.962741   -0.937942
  C     -0.897184   -2.327485   -1.316770
  H     -0.113360   -2.305447   -2.044041
  H     -1.763378   -2.825373   -1.748245
  H     -0.558017   -2.861735   -0.433590
  C     -1.811068   -0.266739   -2.126436
  H     -1.948968    0.787579   -1.928060
  H     -2.758283   -0.720839   -2.408764
  H     -1.116684   -0.387926   -2.949839
  C     -1.850201   -1.077256    1.510303
  C     -2.397550   -1.937152    2.472866
  C     -2.018090   -1.829044    3.804534
  C     -1.084531   -0.884117    4.167976
  C     -0.566262   -0.011533    3.211499
  C     -0.830204   -0.161180    1.817861
  H     -0.792428   -0.774715    5.211634
  H      0.068422    0.746933    3.592209
  H     -3.187710   -2.620692    2.226701
  H     -2.493161   -2.426472    4.561686
  H     -0.758489    3.849822    0.746542
  C     -2.367939   -1.031479    0.122996
  H     -2.971170   -0.129342    0.038162
  H     -3.030879   -1.864836   -0.101904
  O      1.391016    0.634810   -1.935878
  C      2.166593   -0.289984   -2.427209
  O      2.159907   -1.472286   -2.145768
  C      3.164537    0.217372   -3.514674
  H      3.531722   -0.611125   -4.114105
  H      4.021997    0.623294   -2.971819
  H      2.794690    0.995367   -4.171225

 Total Charge           Charge          ....    0
 Multiplicity           Mult            ....    1
 Number of Electrons    NEL             ....  154
 Basis Dimension        Dim             ....  339

ORBITAL ENERGIES
----------------

  NO   OCC          E(Eh)            E(eV)
   0   2.0000     -19.549032      -531.9562
   1   2.0000     -19.542755      -531.7854
   2   2.0000     -19.442131      -529.0473
   3   2.0000     -19.412453      -528.2397
   4   2.0000     -14.709306      -400.2606
   5   2.0000     -10.609370      -288.6956
   6   2.0000     -10.513358      -286.0830
   7   2.0000     -10.483988      -285.2838
   8   2.0000     -10.471085      -284.9327
   9   2.0000     -10.462749      -284.7059
  10   2.0000     -10.458128      -284.5801
  11   2.0000     -10.455551      -284.5100
  12   2.0000     -10.452993      -284.4404
  13   2.0000     -10.444921      -284.2207
  14   2.0000     -10.442056      -284.1428
  15   2.0000     -10.441127      -284.1175
  16   2.0000     -10.440249      -284.0936
  17   2.0000     -10.400273      -283.0058
  18   2.0000      -3.649035       -99.2953
  19   2.0000      -2.295832       -62.4728
  20   2.0000      -2.288111       -62.2627
  21   2.0000      -2.261450       -61.5372
  22   2.0000      -1.206341       -32.8262
  23   2.0000      -1.118894       -30.4467
  24   2.0000      -1.108964       -30.1764
  25   2.0000      -1.058803       -28.8115
  26   2.0000      -1.024577       -27.8802
  27   2.0000      -0.949409       -25.8347
  28   2.0000      -0.867426       -23.6039
  29   2.0000      -0.844756       -22.9870
  30   2.0000      -0.822543       -22.3825
  31   2.0000      -0.807765       -21.9804
  32   2.0000      -0.780345       -21.2343
  33   2.0000      -0.771071       -20.9819
  34   2.0000      -0.702925       -19.1276
  35   2.0000      -0.676019       -18.3954
  36   2.0000      -0.645443       -17.5634
  37   2.0000      -0.643280       -17.5045
  38   2.0000      -0.582761       -15.8577
  39   2.0000      -0.572096       -15.5675
  40   2.0000      -0.559874       -15.2349
  41   2.0000      -0.557587       -15.1727
  42   2.0000      -0.556039       -15.1306
  43   2.0000      -0.552984       -15.0475
  44   2.0000      -0.536808       -14.6073
  45   2.0000      -0.534254       -14.5378
  46   2.0000      -0.512052       -13.9336
  47   2.0000      -0.498816       -13.5735
  48   2.0000      -0.483790       -13.1646
  49   2.0000      -0.482370       -13.1260
  50   2.0000      -0.473567       -12.8864
  51   2.0000      -0.467019       -12.7082
  52   2.0000      -0.465670       -12.6715
  53   2.0000      -0.462251       -12.5785
  54   2.0000      -0.458470       -12.4756
  55   2.0000      -0.450411       -12.2563
  56   2.0000      -0.444953       -12.1078
  57   2.0000      -0.435038       -11.8380
  58   2.0000      -0.426231       -11.5983
  59   2.0000      -0.418457       -11.3868
  60   2.0000      -0.413303       -11.2466
  61   2.0000      -0.404989       -11.0203
  62   2.0000      -0.402575       -10.9546
  63   2.0000      -0.389496       -10.5987
  64   2.0000      -0.383725       -10.4417
  65   2.0000      -0.375950       -10.2301
  66   2.0000      -0.353048        -9.6069
  67   2.0000      -0.351079        -9.5533
  68   2.0000      -0.340875        -9.2757
  69   2.0000      -0.333025        -9.0621
  70   2.0000      -0.327830        -8.9207
  71   2.0000      -0.287275        -7.8172
  72   2.0000      -0.284762        -7.7488
  73   2.0000      -0.281555        -7.6615
  74   2.0000      -0.280145        -7.6231
  75   2.0000      -0.264724        -7.2035
  76   2.0000      -0.257778        -7.0145
  77   0.0000      -0.180442        -4.9101
  78   0.0000      -0.044347        -1.2067
  79   0.0000       0.016473         0.4482
  80   0.0000       0.021349         0.5809
  81   0.0000       0.022364         0.6085

MULLIKEN ATOMIC CHARGES
-----------------------
   0 Pd:    0.385012
   1 O :   -0.423258
   2 C :    0.633118
   3 O :   -0.433449
   4 C :   -0.738968
   5 H :    0.238532
   6 H :    0.274407
   7 H :    0.268986
   8 N :   -0.468441
   9 C :   -0.531562
  10 H :    0.309080
  11 H :    0.206695
  12 H :    0.269558
  13 C :   -0.515220
  14 H :    0.266347
  15 H :    0.220062
  16 H :    0.277867
  17 C :    0.069513
  18 C :   -0.252409
  19 C :   -0.231282
  20 C :   -0.199959
  21 C :   -0.314861
  22 C :   -0.098012
  23 H :    0.216127
  24 H :    0.216357
  25 H :    0.206460
  26 H :    0.218445
  27 H :    0.305859
  28 C :   -0.329748
  29 H :    0.262502
  30 H :    0.229392
  31 O :   -0.545287
  32 C :    0.537614
  33 O :   -0.465471
  34 C :   -0.742085
  35 H :    0.230682
  36 H :    0.222790
  37 H :    0.224608
Sum of atomic charges:    0.0000000

LOEWDIN ATOMIC CHARGES
----------------------
   0 Pd:   -0.376051
   1 O :   -0.071370
   2 C :    0.213378
   3 O :   -0.203825
   4 C :   -0.375624
   5 H :    0.148077
   6 H :    0.169281
   7 H :    0.156678
   8 N :   -0.049106
   9 C :   -0.236748
  10 H :    0.166425
  11 H :    0.114407
  12 H :    0.153905
  13 C :   -0.230923
  14 H :    0.150190
  15 H :    0.119816
  16 H :    0.156961
  17 C :   -0.062002
  18 C :   -0.138551
  19 C :   -0.137226
  20 C :   -0.138884
  21 C :   -0.124605
  22 C :   -0.024106
  23 H :    0.135055
  24 H :    0.136392
  25 H :    0.133567
  26 H :    0.134729
  27 H :    0.311940
  28 C :   -0.105022
  29 H :    0.150322
  30 H :    0.128232
  31 O :   -0.254511
  32 C :    0.117438
  33 O :   -0.279158
  34 C :   -0.398180
  35 H :    0.135569
  36 H :    0.141083
  37 H :    0.132449

  Mayer bond orders larger than 0.100000
B(  0-Pd,  1-O ) :   0.4720 B(  0-Pd,  8-N ) :   0.4404 B(  0-Pd, 22-C ) :   0.7483
B(  0-Pd, 27-H ) :   0.1425 B(  0-Pd, 31-O ) :   0.5123 B(  1-O ,  2-C ) :   1.5160
B(  1-O , 27-H ) :   0.1162 B(  2-C ,  3-O ) :   1.3909 B(  2-C ,  4-C ) :   0.9523
B(  3-O , 27-H ) :   0.5128 B(  4-C ,  5-H ) :   0.9102 B(  4-C ,  6-H ) :   0.8952
B(  4-C ,  7-H ) :   0.9030 B(  8-N ,  9-C ) :   0.9203 B(  8-N , 13-C ) :   0.9222
B(  8-N , 28-C ) :   0.8826 B(  9-C , 10-H ) :   0.8701 B(  9-C , 11-H ) :   0.9053
B(  9-C , 12-H ) :   0.9034 B( 13-C , 14-H ) :   0.9047 B( 13-C , 15-H ) :   0.9026
B( 13-C , 16-H ) :   0.8983 B( 17-C , 18-C ) :   1.4004 B( 17-C , 22-C ) :   1.3182
B( 17-C , 28-C ) :   0.9756 B( 18-C , 19-C ) :   1.4341 B( 18-C , 25-H ) :   0.9218
B( 19-C , 20-C ) :   1.4295 B( 19-C , 26-H ) :   0.9165 B( 20-C , 21-C ) :   1.4281
B( 20-C , 23-H ) :   0.9173 B( 21-C , 22-C ) :   1.3906 B( 21-C , 24-H ) :   0.9183
B( 28-C , 29-H ) :   0.8963 B( 28-C , 30-H ) :   0.9064 B( 31-O , 32-C ) :   1.3305
B( 31-O , 33-O ) :   0.1058 B( 32-C , 33-O ) :   1.8609 B( 32-C , 34-C ) :   0.9148
B( 34-C , 35-H ) :   0.9216 B( 34-C , 36-H ) :   0.9217 B( 34-C , 37-H ) :   0.9195

Dispersion correction           -0.026095632
FINAL SINGLE POINT ENERGY      -988.319179777460
Dispersion correction            ... done

DIPOLE MOMENT
-------------
                                X             Y             Z
Electronic contribution:     12.97207      11.74660      -2.73044
Nuclear contribution   :    -14.73420      -9.86347       3.58942
                        -----------------------------------------
Total Dipole Moment    :     -1.76213       1.88314       0.85898
                        -----------------------------------------
Magnitude (a.u.)       :      2.71830
Magnitude (Debye)      :      6.90937

Rotational constants in cm-1:     0.014626     0.008375     0.006282
Rotational constants in MHz :   438.470140   251.075190   188.327756

                             ****ORCA TERMINATED NORMALLY****
TOTAL RUN TIME: 0 days 0 hours 14 minutes 12 seconds 587 msec
