                         Program Version 5.0.3 -  RELEASE  -
|  1> ! EnGrad PBEh-3c
|  2> %output
|  3> xyzfile=True
|  4> end
|  5> %scf
|  6> maxiter 250
|  7> end
|  8> %output
|  9> Print[P_Hirshfeld] = 1
| 10> end
| 11> % maxcore
| 12> 4000
| 13> *xyz 0 1
| 14> Pd   0.35307199   0.19293689  -0.08835080
| 15> O    1.92166855   1.31905912   0.63877715
| 16> C    1.76822756   2.57960509   0.42337471
| 17> O    0.67927491   3.02699078  -0.09376980
| 18> C    2.95285722   3.50574504   0.69247805
| 19> H    2.59386428   4.43632850   1.13437000
| 20> H    3.40926100   3.76881446  -0.26300706
| 21> H    3.70156562   3.05983828   1.32325573
| 22> N   -1.28298898  -0.96216306  -0.93361433
| 23> C   -0.89355460  -2.32987059  -1.30113627
| 24> H   -0.11105040  -2.32134255  -2.02725498
| 25> H   -1.75064765  -2.83933987  -1.74037695
| 26> H   -0.55311765  -2.86081047  -0.41639637
| 27> C   -1.80421486  -0.28072760  -2.12895164
| 28> H   -1.94427135   0.77374916  -1.94091393
| 29> H   -2.74999742  -0.73610602  -2.41658609
| 30> H   -1.11333853  -0.40919778  -2.95414882
| 31> C   -1.85004805  -1.08697484   1.50654734
| 32> C   -2.41245807  -1.92824625   2.47625856
| 33> C   -2.03477067  -1.81622189   3.80870855
| 34> C   -1.08409729  -0.88876306   4.17043084
| 35> C   -0.55082316  -0.02999581   3.21202781
| 36> C   -0.85080899  -0.15872990   1.82757885
| 37> H   -0.79495977  -0.77655954   5.21350395
| 38> H    0.08910486   0.72137098   3.59251497
| 39> H   -3.21189946  -2.59960915   2.23427192
| 40> H   -2.51614078  -2.40755735   4.56615883
| 41> H   -0.77308032   3.87637514   0.74863621
| 42> C   -2.36630916  -1.02746837   0.12131495
| 43> H   -2.96964901  -0.12491728   0.03381933
| 44> H   -3.03723434  -1.85705544  -0.09668854
| 45> O    1.39175814   0.63903456  -1.93204112
| 46> C    2.15895540  -0.27776654  -2.44227683
| 47> O    2.15801815  -1.45848582  -2.14801402
| 48> C    3.15568795   0.23092687  -3.52219866
| 49> H    3.52376656  -0.59325160  -4.12534572
| 50> H    4.01471758   0.63715241  -2.97923820
| 51> H    2.78449406   1.00806270  -4.17475873
| 52> *
| 53>
| 54>                          ****END OF INPUT****

CARTESIAN COORDINATES (ANGSTROEM)
---------------------------------
  Pd     0.353072    0.192937   -0.088351
  O      1.921669    1.319059    0.638777
  C      1.768228    2.579605    0.423375
  O      0.679275    3.026991   -0.093770
  C      2.952857    3.505745    0.692478
  H      2.593864    4.436329    1.134370
  H      3.409261    3.768814   -0.263007
  H      3.701566    3.059838    1.323256
  N     -1.282989   -0.962163   -0.933614
  C     -0.893555   -2.329871   -1.301136
  H     -0.111050   -2.321343   -2.027255
  H     -1.750648   -2.839340   -1.740377
  H     -0.553118   -2.860810   -0.416396
  C     -1.804215   -0.280728   -2.128952
  H     -1.944271    0.773749   -1.940914
  H     -2.749997   -0.736106   -2.416586
  H     -1.113339   -0.409198   -2.954149
  C     -1.850048   -1.086975    1.506547
  C     -2.412458   -1.928246    2.476259
  C     -2.034771   -1.816222    3.808709
  C     -1.084097   -0.888763    4.170431
  C     -0.550823   -0.029996    3.212028
  C     -0.850809   -0.158730    1.827579
  H     -0.794960   -0.776560    5.213504
  H      0.089105    0.721371    3.592515
  H     -3.211899   -2.599609    2.234272
  H     -2.516141   -2.407557    4.566159
  H     -0.773080    3.876375    0.748636
  C     -2.366309   -1.027468    0.121315
  H     -2.969649   -0.124917    0.033819
  H     -3.037234   -1.857055   -0.096689
  O      1.391758    0.639035   -1.932041
  C      2.158955   -0.277767   -2.442277
  O      2.158018   -1.458486   -2.148014
  C      3.155688    0.230927   -3.522199
  H      3.523767   -0.593252   -4.125346
  H      4.014718    0.637152   -2.979238
  H      2.784494    1.008063   -4.174759

 Total Charge           Charge          ....    0
 Multiplicity           Mult            ....    1
 Number of Electrons    NEL             ....  154
 Basis Dimension        Dim             ....  339

ORBITAL ENERGIES
----------------

  NO   OCC          E(Eh)            E(eV)
   0   2.0000     -19.542040      -531.7659
   1   2.0000     -19.537947      -531.6546
   2   2.0000     -19.444431      -529.1099
   3   2.0000     -19.412874      -528.2511
   4   2.0000     -14.712071      -400.3358
   5   2.0000     -10.603414      -288.5336
   6   2.0000     -10.514251      -286.1073
   7   2.0000     -10.485591      -285.3274
   8   2.0000     -10.472175      -284.9624
   9   2.0000     -10.459235      -284.6103
  10   2.0000     -10.458584      -284.5925
  11   2.0000     -10.456336      -284.5314
  12   2.0000     -10.453955      -284.4666
  13   2.0000     -10.446261      -284.2572
  14   2.0000     -10.442593      -284.1574
  15   2.0000     -10.442105      -284.1441
  16   2.0000     -10.441549      -284.1290
  17   2.0000     -10.401808      -283.0476
  18   2.0000      -3.649864       -99.3179
  19   2.0000      -2.296677       -62.4957
  20   2.0000      -2.288647       -62.2773
  21   2.0000      -2.262455       -61.5645
  22   2.0000      -1.202793       -32.7297
  23   2.0000      -1.121386       -30.5145
  24   2.0000      -1.104810       -30.0634
  25   2.0000      -1.061626       -28.8883
  26   2.0000      -1.026200       -27.9243
  27   2.0000      -0.951264       -25.8852
  28   2.0000      -0.869504       -23.6604
  29   2.0000      -0.842155       -22.9162
  30   2.0000      -0.823845       -22.4179
  31   2.0000      -0.809303       -22.0222
  32   2.0000      -0.782122       -21.2826
  33   2.0000      -0.774067       -21.0634
  34   2.0000      -0.705407       -19.1951
  35   2.0000      -0.677673       -18.4404
  36   2.0000      -0.645309       -17.5598
  37   2.0000      -0.639466       -17.4008
  38   2.0000      -0.583543       -15.8790
  39   2.0000      -0.567500       -15.4425
  40   2.0000      -0.561538       -15.2802
  41   2.0000      -0.559407       -15.2222
  42   2.0000      -0.557579       -15.1725
  43   2.0000      -0.550429       -14.9779
  44   2.0000      -0.537795       -14.6341
  45   2.0000      -0.532557       -14.4916
  46   2.0000      -0.513996       -13.9865
  47   2.0000      -0.500079       -13.6078
  48   2.0000      -0.485856       -13.2208
  49   2.0000      -0.479422       -13.0457
  50   2.0000      -0.475131       -12.9290
  51   2.0000      -0.468961       -12.7611
  52   2.0000      -0.467636       -12.7250
  53   2.0000      -0.464072       -12.6280
  54   2.0000      -0.455669       -12.3994
  55   2.0000      -0.451452       -12.2846
  56   2.0000      -0.445178       -12.1139
  57   2.0000      -0.436031       -11.8650
  58   2.0000      -0.427286       -11.6270
  59   2.0000      -0.417964       -11.3734
  60   2.0000      -0.412739       -11.2312
  61   2.0000      -0.405607       -11.0371
  62   2.0000      -0.401378       -10.9220
  63   2.0000      -0.391147       -10.6437
  64   2.0000      -0.381977       -10.3941
  65   2.0000      -0.370540       -10.0829
  66   2.0000      -0.353250        -9.6124
  67   2.0000      -0.351741        -9.5714
  68   2.0000      -0.341251        -9.2859
  69   2.0000      -0.332472        -9.0470
  70   2.0000      -0.328231        -8.9316
  71   2.0000      -0.287719        -7.8292
  72   2.0000      -0.285783        -7.7766
  73   2.0000      -0.283635        -7.7181
  74   2.0000      -0.280511        -7.6331
  75   2.0000      -0.265603        -7.2274
  76   2.0000      -0.259006        -7.0479
  77   0.0000      -0.183062        -4.9814
  78   0.0000      -0.046241        -1.2583
  79   0.0000       0.016768         0.4563
  80   0.0000       0.020723         0.5639
  81   0.0000       0.026852         0.7307

MULLIKEN ATOMIC CHARGES
-----------------------
   0 Pd:    0.390058
   1 O :   -0.426855
   2 C :    0.628430
   3 O :   -0.426528
   4 C :   -0.739882
   5 H :    0.238159
   6 H :    0.272379
   7 H :    0.267126
   8 N :   -0.471404
   9 C :   -0.535436
  10 H :    0.310545
  11 H :    0.208507
  12 H :    0.270654
  13 C :   -0.517285
  14 H :    0.268564
  15 H :    0.221304
  16 H :    0.278146
  17 C :    0.068724
  18 C :   -0.253203
  19 C :   -0.231231
  20 C :   -0.200066
  21 C :   -0.311887
  22 C :   -0.094069
  23 H :    0.217045
  24 H :    0.218906
  25 H :    0.206710
  26 H :    0.219138
  27 H :    0.289473
  28 C :   -0.329419
  29 H :    0.264249
  30 H :    0.230476
  31 O :   -0.542765
  32 C :    0.537918
  33 O :   -0.466961
  34 C :   -0.742448
  35 H :    0.232004
  36 H :    0.225031
  37 H :    0.225892
Sum of atomic charges:   -0.0000000

LOEWDIN ATOMIC CHARGES
----------------------
   0 Pd:   -0.370553
   1 O :   -0.078889
   2 C :    0.205027
   3 O :   -0.199594
   4 C :   -0.376560
   5 H :    0.147913
   6 H :    0.168423
   7 H :    0.155126
   8 N :   -0.045228
   9 C :   -0.237557
  10 H :    0.166308
  11 H :    0.115135
  12 H :    0.154337
  13 C :   -0.230881
  14 H :    0.150970
  15 H :    0.120348
  16 H :    0.156946
  17 C :   -0.063948
  18 C :   -0.137435
  19 C :   -0.136048
  20 C :   -0.137664
  21 C :   -0.123771
  22 C :   -0.024039
  23 H :    0.135367
  24 H :    0.137695
  25 H :    0.133573
  26 H :    0.135046
  27 H :    0.296805
  28 C :   -0.104368
  29 H :    0.150951
  30 H :    0.128835
  31 O :   -0.245247
  32 C :    0.117032
  33 O :   -0.279988
  34 C :   -0.396168
  35 H :    0.136387
  36 H :    0.142686
  37 H :    0.133027

  Mayer bond orders larger than 0.100000
B(  0-Pd,  1-O ) :   0.4762 B(  0-Pd,  3-O ) :   0.1029 B(  0-Pd,  8-N ) :   0.4433
B(  0-Pd, 22-C ) :   0.7259 B(  0-Pd, 27-H ) :   0.1577 B(  0-Pd, 31-O ) :   0.5202
B(  1-O ,  2-C ) :   1.5027 B(  1-O , 27-H ) :   0.1198 B(  2-C ,  3-O ) :   1.4201
B(  2-C ,  4-C ) :   0.9527 B(  3-O , 27-H ) :   0.4860 B(  4-C ,  5-H ) :   0.9110
B(  4-C ,  6-H ) :   0.8965 B(  4-C ,  7-H ) :   0.9037 B(  8-N ,  9-C ) :   0.9197
B(  8-N , 13-C ) :   0.9215 B(  8-N , 28-C ) :   0.8821 B(  9-C , 10-H ) :   0.8693
B(  9-C , 11-H ) :   0.9051 B(  9-C , 12-H ) :   0.9028 B( 13-C , 14-H ) :   0.9038
B( 13-C , 15-H ) :   0.9022 B( 13-C , 16-H ) :   0.8982 B( 17-C , 18-C ) :   1.4007
B( 17-C , 22-C ) :   1.3234 B( 17-C , 28-C ) :   0.9746 B( 18-C , 19-C ) :   1.4360
B( 18-C , 25-H ) :   0.9213 B( 19-C , 20-C ) :   1.4289 B( 19-C , 26-H ) :   0.9164
B( 20-C , 21-C ) :   1.4278 B( 20-C , 23-H ) :   0.9168 B( 21-C , 22-C ) :   1.3932
B( 21-C , 24-H ) :   0.9176 B( 28-C , 29-H ) :   0.8959 B( 28-C , 30-H ) :   0.9064
B( 31-O , 32-C ) :   1.3285 B( 31-O , 33-O ) :   0.1049 B( 32-C , 33-O ) :   1.8570
B( 32-C , 34-C ) :   0.9175 B( 34-C , 35-H ) :   0.9212 B( 34-C , 36-H ) :   0.9209
B( 34-C , 37-H ) :   0.9186

Dispersion correction           -0.026079841
FINAL SINGLE POINT ENERGY      -988.313480175507
Dispersion correction            ... done

DIPOLE MOMENT
-------------
                                X             Y             Z
Electronic contribution:     13.33166      10.79875      -4.06563
Nuclear contribution   :    -15.13696      -9.07859       4.87428
                        -----------------------------------------
Total Dipole Moment    :     -1.80530       1.72015       0.80865
                        -----------------------------------------
Magnitude (a.u.)       :      2.62144
Magnitude (Debye)      :      6.66318

Rotational constants in cm-1:     0.014677     0.008358     0.006269
Rotational constants in MHz :   439.990947   250.578116   187.928568

                             ****ORCA TERMINATED NORMALLY****
TOTAL RUN TIME: 0 days 0 hours 13 minutes 55 seconds 26 msec
