                         Program Version 5.0.3 -  RELEASE  -
|  1> ! EnGrad PBEh-3c
|  2> %output
|  3> xyzfile=True
|  4> end
|  5> %scf
|  6> maxiter 250
|  7> end
|  8> %output
|  9> Print[P_Hirshfeld] = 1
| 10> end
| 11> % maxcore
| 12> 4000
| 13> *xyz 0 1
| 14> Pd   0.34770230   0.20259058  -0.07245235
| 15> O    1.91524347   1.32185467   0.63511575
| 16> C    1.76022902   2.58235220   0.42388092
| 17> O    0.66280620   3.03043357  -0.08730677
| 18> C    2.94969819   3.50736580   0.69109271
| 19> H    2.58905726   4.43740009   1.13248508
| 20> H    3.40626076   3.77166180  -0.26449816
| 21> H    3.70114524   3.06276449   1.32381336
| 22> N   -1.28761124  -0.96254441  -0.93647072
| 23> C   -0.89594981  -2.32829611  -1.31145470
| 24> H   -0.11257475  -2.31085157  -2.03833379
| 25> H   -1.75904938  -2.83012144  -1.74556980
| 26> H   -0.55635100  -2.86142091  -0.42774385
| 27> C   -1.80873767  -0.27149511  -2.12729129
| 28> H   -1.94737131   0.78287677  -1.93243033
| 29> H   -2.75546580  -0.72602950  -2.41142344
| 30> H   -1.11554662  -0.39515851  -2.95130420
| 31> C   -1.85014929  -1.08056066   1.50902621
| 32> C   -2.40261845  -1.93412401   2.47401958
| 33> C   -2.02376164  -1.82468458   3.80595322
| 34> C   -1.08438327  -0.88569697   4.16881094
| 35> C   -0.56101274  -0.01781048   3.21167865
| 36> C   -0.83720962  -0.16034687   1.82116487
| 37> H   -0.79328885  -0.77534239   5.21226952
| 38> H    0.07545420   0.73824159   3.59231284
| 39> H   -3.19593419  -2.61352381   2.22927516
| 40> H   -2.50097383  -2.42004119   4.56320700
| 41> H   -0.76345036   3.85884995   0.74725414
| 42> C   -2.36738518  -1.03011565   0.12242471
| 43> H   -2.97065279  -0.12783742   0.03668560
| 44> H   -3.03303990  -1.86219065  -0.10013062
| 45> O    1.39126830   0.63624612  -1.93457344
| 46> C    2.16399621  -0.28582990  -2.43233215
| 47> O    2.15926465  -1.46759398  -2.14653132
| 48> C    3.16152848   0.22198049  -3.51723264
| 49> H    3.52901745  -0.60504835  -4.11792712
| 50> H    4.01952190   0.62800609  -2.97434170
| 51> H    2.79122357   0.99968355  -4.17242664
| 52> *
| 53>
| 54>                          ****END OF INPUT****

CARTESIAN COORDINATES (ANGSTROEM)
---------------------------------
  Pd     0.347702    0.202591   -0.072452
  O      1.915243    1.321855    0.635116
  C      1.760229    2.582352    0.423881
  O      0.662806    3.030434   -0.087307
  C      2.949698    3.507366    0.691093
  H      2.589057    4.437400    1.132485
  H      3.406261    3.771662   -0.264498
  H      3.701145    3.062764    1.323813
  N     -1.287611   -0.962544   -0.936471
  C     -0.895950   -2.328296   -1.311455
  H     -0.112575   -2.310852   -2.038334
  H     -1.759049   -2.830121   -1.745570
  H     -0.556351   -2.861421   -0.427744
  C     -1.808738   -0.271495   -2.127291
  H     -1.947371    0.782877   -1.932430
  H     -2.755466   -0.726029   -2.411423
  H     -1.115547   -0.395159   -2.951304
  C     -1.850149   -1.080561    1.509026
  C     -2.402618   -1.934124    2.474020
  C     -2.023762   -1.824685    3.805953
  C     -1.084383   -0.885697    4.168811
  C     -0.561013   -0.017810    3.211679
  C     -0.837210   -0.160347    1.821165
  H     -0.793289   -0.775342    5.212270
  H      0.075454    0.738242    3.592313
  H     -3.195934   -2.613524    2.229275
  H     -2.500974   -2.420041    4.563207
  H     -0.763450    3.858850    0.747254
  C     -2.367385   -1.030116    0.122425
  H     -2.970653   -0.127837    0.036686
  H     -3.033040   -1.862191   -0.100131
  O      1.391268    0.636246   -1.934573
  C      2.163996   -0.285830   -2.432332
  O      2.159265   -1.467594   -2.146531
  C      3.161528    0.221980   -3.517233
  H      3.529017   -0.605048   -4.117927
  H      4.019522    0.628006   -2.974342
  H      2.791224    0.999684   -4.172427

 Total Charge           Charge          ....    0
 Multiplicity           Mult            ....    1
 Number of Electrons    NEL             ....  154
 Basis Dimension        Dim             ....  339

ORBITAL ENERGIES
----------------

  NO   OCC          E(Eh)            E(eV)
   0   2.0000     -19.546664      -531.8918
   1   2.0000     -19.541136      -531.7413
   2   2.0000     -19.442913      -529.0686
   3   2.0000     -19.412586      -528.2433
   4   2.0000     -14.710248      -400.2862
   5   2.0000     -10.607351      -288.6407
   6   2.0000     -10.513652      -286.0910
   7   2.0000     -10.484525      -285.2984
   8   2.0000     -10.471452      -284.9427
   9   2.0000     -10.461335      -284.6674
  10   2.0000     -10.458496      -284.5901
  11   2.0000     -10.455766      -284.5159
  12   2.0000     -10.453293      -284.4486
  13   2.0000     -10.445356      -284.2326
  14   2.0000     -10.442193      -284.1465
  15   2.0000     -10.441446      -284.1262
  16   2.0000     -10.440700      -284.1059
  17   2.0000     -10.400790      -283.0199
  18   2.0000      -3.649315       -99.3029
  19   2.0000      -2.296111       -62.4804
  20   2.0000      -2.288283       -62.2673
  21   2.0000      -2.261794       -61.5465
  22   2.0000      -1.205138       -32.7935
  23   2.0000      -1.119729       -30.4694
  24   2.0000      -1.107561       -30.1383
  25   2.0000      -1.059766       -28.8377
  26   2.0000      -1.025153       -27.8958
  27   2.0000      -0.950044       -25.8520
  28   2.0000      -0.868135       -23.6231
  29   2.0000      -0.843874       -22.9630
  30   2.0000      -0.822989       -22.3947
  31   2.0000      -0.808289       -21.9947
  32   2.0000      -0.780952       -21.2508
  33   2.0000      -0.772084       -21.0095
  34   2.0000      -0.703767       -19.1505
  35   2.0000      -0.676582       -18.4107
  36   2.0000      -0.644594       -17.5403
  37   2.0000      -0.642781       -17.4910
  38   2.0000      -0.582943       -15.8627
  39   2.0000      -0.570487       -15.5238
  40   2.0000      -0.560399       -15.2492
  41   2.0000      -0.558224       -15.1901
  42   2.0000      -0.556448       -15.1417
  43   2.0000      -0.552323       -15.0295
  44   2.0000      -0.536925       -14.6105
  45   2.0000      -0.533921       -14.5287
  46   2.0000      -0.512724       -13.9519
  47   2.0000      -0.499230       -13.5847
  48   2.0000      -0.484475       -13.1832
  49   2.0000      -0.481365       -13.0986
  50   2.0000      -0.474087       -12.9006
  51   2.0000      -0.467662       -12.7257
  52   2.0000      -0.466318       -12.6892
  53   2.0000      -0.462881       -12.5956
  54   2.0000      -0.457556       -12.4507
  55   2.0000      -0.450779       -12.2663
  56   2.0000      -0.445034       -12.1100
  57   2.0000      -0.435375       -11.8472
  58   2.0000      -0.426576       -11.6077
  59   2.0000      -0.418041       -11.3755
  60   2.0000      -0.413292       -11.2462
  61   2.0000      -0.405058       -11.0222
  62   2.0000      -0.402175       -10.9438
  63   2.0000      -0.390066       -10.6142
  64   2.0000      -0.383248       -10.4287
  65   2.0000      -0.374076       -10.1791
  66   2.0000      -0.352624        -9.5954
  67   2.0000      -0.351776        -9.5723
  68   2.0000      -0.341051        -9.2805
  69   2.0000      -0.332824        -9.0566
  70   2.0000      -0.327987        -8.9250
  71   2.0000      -0.287363        -7.8195
  72   2.0000      -0.285217        -7.7611
  73   2.0000      -0.282268        -7.6809
  74   2.0000      -0.280262        -7.6263
  75   2.0000      -0.265038        -7.2121
  76   2.0000      -0.258227        -7.0267
  77   0.0000      -0.181402        -4.9362
  78   0.0000      -0.044978        -1.2239
  79   0.0000       0.016744         0.4556
  80   0.0000       0.021283         0.5791
  81   0.0000       0.023633         0.6431

MULLIKEN ATOMIC CHARGES
-----------------------
   0 Pd:    0.386761
   1 O :   -0.424448
   2 C :    0.631539
   3 O :   -0.430999
   4 C :   -0.739290
   5 H :    0.238409
   6 H :    0.273720
   7 H :    0.268352
   8 N :   -0.469431
   9 C :   -0.532870
  10 H :    0.309572
  11 H :    0.207312
  12 H :    0.269923
  13 C :   -0.515907
  14 H :    0.267105
  15 H :    0.220481
  16 H :    0.277958
  17 C :    0.069341
  18 C :   -0.252642
  19 C :   -0.231376
  20 C :   -0.199853
  21 C :   -0.314179
  22 C :   -0.096571
  23 H :    0.216403
  24 H :    0.217236
  25 H :    0.206506
  26 H :    0.218674
  27 H :    0.300213
  28 C :   -0.329630
  29 H :    0.263090
  30 H :    0.229756
  31 O :   -0.544407
  32 C :    0.537739
  33 O :   -0.465991
  34 C :   -0.742215
  35 H :    0.231132
  36 H :    0.223545
  37 H :    0.225042
Sum of atomic charges:   -0.0000000

LOEWDIN ATOMIC CHARGES
----------------------
   0 Pd:   -0.374196
   1 O :   -0.073879
   2 C :    0.210539
   3 O :   -0.202332
   4 C :   -0.375949
   5 H :    0.148024
   6 H :    0.168991
   7 H :    0.156147
   8 N :   -0.047759
   9 C :   -0.237017
  10 H :    0.166379
  11 H :    0.114650
  12 H :    0.154052
  13 C :   -0.230905
  14 H :    0.150458
  15 H :    0.119996
  16 H :    0.156954
  17 C :   -0.062645
  18 C :   -0.138188
  19 C :   -0.136785
  20 C :   -0.138477
  21 C :   -0.124308
  22 C :   -0.024190
  23 H :    0.135157
  24 H :    0.136833
  25 H :    0.133562
  26 H :    0.134833
  27 H :    0.306772
  28 C :   -0.104786
  29 H :    0.150535
  30 H :    0.128431
  31 O :   -0.251333
  32 C :    0.117269
  33 O :   -0.279450
  34 C :   -0.397495
  35 H :    0.135846
  36 H :    0.141624
  37 H :    0.132643

  Mayer bond orders larger than 0.100000
B(  0-Pd,  1-O ) :   0.4734 B(  0-Pd,  8-N ) :   0.4414 B(  0-Pd, 22-C ) :   0.7408
B(  0-Pd, 27-H ) :   0.1478 B(  0-Pd, 31-O ) :   0.5150 B(  1-O ,  2-C ) :   1.5115
B(  1-O , 27-H ) :   0.1175 B(  2-C ,  3-O ) :   1.4008 B(  2-C ,  4-C ) :   0.9524
B(  3-O , 27-H ) :   0.5037 B(  4-C ,  5-H ) :   0.9104 B(  4-C ,  6-H ) :   0.8956
B(  4-C ,  7-H ) :   0.9032 B(  8-N ,  9-C ) :   0.9201 B(  8-N , 13-C ) :   0.9220
B(  8-N , 28-C ) :   0.8824 B(  9-C , 10-H ) :   0.8699 B(  9-C , 11-H ) :   0.9052
B(  9-C , 12-H ) :   0.9032 B( 13-C , 14-H ) :   0.9044 B( 13-C , 15-H ) :   0.9025
B( 13-C , 16-H ) :   0.8983 B( 17-C , 18-C ) :   1.4006 B( 17-C , 22-C ) :   1.3198
B( 17-C , 28-C ) :   0.9752 B( 18-C , 19-C ) :   1.4347 B( 18-C , 25-H ) :   0.9216
B( 19-C , 20-C ) :   1.4293 B( 19-C , 26-H ) :   0.9165 B( 20-C , 21-C ) :   1.4280
B( 20-C , 23-H ) :   0.9172 B( 21-C , 22-C ) :   1.3917 B( 21-C , 24-H ) :   0.9181
B( 28-C , 29-H ) :   0.8962 B( 28-C , 30-H ) :   0.9064 B( 31-O , 32-C ) :   1.3298
B( 31-O , 33-O ) :   0.1055 B( 32-C , 33-O ) :   1.8596 B( 32-C , 34-C ) :   0.9157
B( 34-C , 35-H ) :   0.9215 B( 34-C , 36-H ) :   0.9214 B( 34-C , 37-H ) :   0.9192

Dispersion correction           -0.026090127
FINAL SINGLE POINT ENERGY      -988.317412015577
Dispersion correction            ... done

DIPOLE MOMENT
-------------
                                X             Y             Z
Electronic contribution:     13.09436      11.42461      -3.18438
Nuclear contribution   :    -14.87114      -9.59661       4.02627
                        -----------------------------------------
Total Dipole Moment    :     -1.77678       1.82800       0.84189
                        -----------------------------------------
Magnitude (a.u.)       :      2.68464
Magnitude (Debye)      :      6.82382

Rotational constants in cm-1:     0.014643     0.008369     0.006277
Rotational constants in MHz :   438.994427   250.907985   188.193382

                             ****ORCA TERMINATED NORMALLY****
TOTAL RUN TIME: 0 days 0 hours 22 minutes 28 seconds 351 msec
