                         Program Version 5.0.3 -  RELEASE  -
|  1> ! EnGrad PBEh-3c
|  2> %output
|  3> xyzfile=True
|  4> end
|  5> %scf
|  6> maxiter 250
|  7> end
|  8> %output
|  9> Print[P_Hirshfeld] = 1
| 10> end
| 11> % maxcore
| 12> 4000
| 13> *xyz 0 1
| 14> Pd   0.26681999   0.32011141   0.12161896
| 15> O    1.82143660   1.39012195   0.58719180
| 16> C    1.65736960   2.60512341   0.43842535
| 17> O    0.42017241   3.08793853   0.01258111
| 18> C    2.89041185   3.52969344   0.66742567
| 19> H    2.51800982   4.45553211   1.10481724
| 20> H    3.35993556   3.81407123  -0.28583420
| 21> H    3.68583412   3.10859949   1.32652701
| 22> N   -1.34603694  -0.94686806  -0.95971140
| 23> C   -0.93936514  -2.28840364  -1.46076999
| 24> H   -0.14445160  -2.15617289  -2.20792125
| 25> H   -1.88425238  -2.69725023  -1.83405675
| 26> H   -0.60313863  -2.87019862  -0.60522882
| 27> C   -1.87294918  -0.13492083  -2.09115767
| 28> H   -1.99480515   0.91862965  -1.80061220
| 29> H   -2.84033882  -0.57007657  -2.34027221
| 30> H   -1.15471055  -0.18154365  -2.90990150
| 31> C   -1.83298378  -1.01079247   1.53368008
| 32> C   -2.25171672  -2.01381281   2.44058637
| 33> C   -1.85232625  -1.94730806   3.76507400
| 34> C   -1.09020971  -0.83341354   4.14556941
| 35> C   -0.69863739   0.14903886   3.19831262
| 36> C   -0.68159529  -0.16921554   1.75217006
| 37> H   -0.77151445  -0.75365924   5.19187512
| 38> H   -0.14062610   0.99200722   3.59567245
| 39> H   -2.94683426  -2.82032343   2.15351224
| 40> H   -2.26328851  -2.61066555   4.51761529
| 41> H   -0.62226861   3.59293349   0.72645223
| 42> C   -2.37410193  -1.06649550   0.12874579
| 43> H   -2.99106800  -0.17416712   0.07674470
| 44> H   -2.97359475  -1.94117079  -0.14149291
| 45> O    1.39660801   0.57269155  -1.95324114
| 46> C    2.22510967  -0.38827247  -2.31683315
| 47> O    2.17410063  -1.60056318  -2.11637312
| 48> C    3.24930639   0.08206901  -3.43194793
| 49> H    3.61154481  -0.78311209  -4.00369568
| 50> H    4.09804152   0.48992133  -2.89808432
| 51> H    2.89736806   0.86566320  -4.13247028
| 52> *
| 53>
| 54>                          ****END OF INPUT****

CARTESIAN COORDINATES (ANGSTROEM)
---------------------------------
  Pd     0.266820    0.320111    0.121619
  O      1.821437    1.390122    0.587192
  C      1.657370    2.605123    0.438425
  O      0.420172    3.087939    0.012581
  C      2.890412    3.529693    0.667426
  H      2.518010    4.455532    1.104817
  H      3.359936    3.814071   -0.285834
  H      3.685834    3.108599    1.326527
  N     -1.346037   -0.946868   -0.959711
  C     -0.939365   -2.288404   -1.460770
  H     -0.144452   -2.156173   -2.207921
  H     -1.884252   -2.697250   -1.834057
  H     -0.603139   -2.870199   -0.605229
  C     -1.872949   -0.134921   -2.091158
  H     -1.994805    0.918630   -1.800612
  H     -2.840339   -0.570077   -2.340272
  H     -1.154711   -0.181544   -2.909901
  C     -1.832984   -1.010792    1.533680
  C     -2.251717   -2.013813    2.440586
  C     -1.852326   -1.947308    3.765074
  C     -1.090210   -0.833414    4.145569
  C     -0.698637    0.149039    3.198313
  C     -0.681595   -0.169216    1.752170
  H     -0.771514   -0.753659    5.191875
  H     -0.140626    0.992007    3.595672
  H     -2.946834   -2.820323    2.153512
  H     -2.263289   -2.610666    4.517615
  H     -0.622269    3.592933    0.726452
  C     -2.374102   -1.066496    0.128746
  H     -2.991068   -0.174167    0.076745
  H     -2.973595   -1.941171   -0.141493
  O      1.396608    0.572692   -1.953241
  C      2.225110   -0.388272   -2.316833
  O      2.174101   -1.600563   -2.116373
  C      3.249306    0.082069   -3.431948
  H      3.611545   -0.783112   -4.003696
  H      4.098042    0.489921   -2.898084
  H      2.897368    0.865663   -4.132470

 Total Charge           Charge          ....    0
 Multiplicity           Mult            ....    1
 Number of Electrons    NEL             ....  154
 Basis Dimension        Dim             ....  339

ORBITAL ENERGIES
----------------

  NO   OCC          E(Eh)            E(eV)
   0   2.0000     -19.583172      -532.8852
   1   2.0000     -19.577806      -532.7392
   2   2.0000     -19.425948      -528.6069
   3   2.0000     -19.405197      -528.0423
   4   2.0000     -14.693879      -399.8408
   5   2.0000     -10.650390      -289.8118
   6   2.0000     -10.507382      -285.9204
   7   2.0000     -10.492205      -285.5074
   8   2.0000     -10.478182      -285.1258
   9   2.0000     -10.468670      -284.8670
  10   2.0000     -10.467218      -284.8275
  11   2.0000     -10.457051      -284.5508
  12   2.0000     -10.456451      -284.5345
  13   2.0000     -10.451424      -284.3977
  14   2.0000     -10.443903      -284.1930
  15   2.0000     -10.442805      -284.1632
  16   2.0000     -10.435446      -283.9629
  17   2.0000     -10.391979      -282.7801
  18   2.0000      -3.652201       -99.3814
  19   2.0000      -2.301018       -62.6139
  20   2.0000      -2.294119       -62.4262
  21   2.0000      -2.263840       -61.6022
  22   2.0000      -1.246155       -33.9096
  23   2.0000      -1.133598       -30.8468
  24   2.0000      -1.094655       -29.7871
  25   2.0000      -1.042891       -28.3785
  26   2.0000      -1.006404       -27.3856
  27   2.0000      -0.938679       -25.5428
  28   2.0000      -0.862872       -23.4799
  29   2.0000      -0.853681       -23.2299
  30   2.0000      -0.816520       -22.2187
  31   2.0000      -0.796590       -21.6763
  32   2.0000      -0.770687       -20.9715
  33   2.0000      -0.752812       -20.4851
  34   2.0000      -0.694499       -18.8983
  35   2.0000      -0.687935       -18.7197
  36   2.0000      -0.666286       -18.1306
  37   2.0000      -0.635908       -17.3039
  38   2.0000      -0.630943       -17.1688
  39   2.0000      -0.581622       -15.8268
  40   2.0000      -0.572764       -15.5857
  41   2.0000      -0.565703       -15.3936
  42   2.0000      -0.546903       -14.8820
  43   2.0000      -0.544434       -14.8148
  44   2.0000      -0.538012       -14.6400
  45   2.0000      -0.523912       -14.2564
  46   2.0000      -0.503129       -13.6908
  47   2.0000      -0.500497       -13.6192
  48   2.0000      -0.494732       -13.4623
  49   2.0000      -0.485649       -13.2152
  50   2.0000      -0.470182       -12.7943
  51   2.0000      -0.462831       -12.5943
  52   2.0000      -0.457302       -12.4438
  53   2.0000      -0.453841       -12.3497
  54   2.0000      -0.449888       -12.2421
  55   2.0000      -0.447006       -12.1637
  56   2.0000      -0.444579       -12.0976
  57   2.0000      -0.440025       -11.9737
  58   2.0000      -0.430920       -11.7259
  59   2.0000      -0.428411       -11.6577
  60   2.0000      -0.422682       -11.5018
  61   2.0000      -0.416284       -11.3277
  62   2.0000      -0.403153       -10.9704
  63   2.0000      -0.398939       -10.8557
  64   2.0000      -0.385178       -10.4812
  65   2.0000      -0.380075       -10.3424
  66   2.0000      -0.374497       -10.1906
  67   2.0000      -0.347967        -9.4687
  68   2.0000      -0.346260        -9.4222
  69   2.0000      -0.330946        -9.0055
  70   2.0000      -0.326037        -8.8719
  71   2.0000      -0.288995        -7.8639
  72   2.0000      -0.275147        -7.4871
  73   2.0000      -0.269729        -7.3397
  74   2.0000      -0.267192        -7.2707
  75   2.0000      -0.253665        -6.9026
  76   2.0000      -0.246825        -6.7164
  77   0.0000      -0.099971        -2.7203
  78   0.0000      -0.041927        -1.1409
  79   0.0000      -0.009908        -0.2696
  80   0.0000       0.004437         0.1207
  81   0.0000       0.021996         0.5985

MULLIKEN ATOMIC CHARGES
-----------------------
   0 Pd:    0.371822
   1 O :   -0.374034
   2 C :    0.662962
   3 O :   -0.565568
   4 C :   -0.735010
   5 H :    0.244856
   6 H :    0.288882
   7 H :    0.279142
   8 N :   -0.449338
   9 C :   -0.506303
  10 H :    0.301947
  11 H :    0.193632
  12 H :    0.263812
  13 C :   -0.507588
  14 H :    0.250429
  15 H :    0.214365
  16 H :    0.278736
  17 C :    0.051145
  18 C :   -0.246879
  19 C :   -0.213427
  20 C :   -0.221737
  21 C :   -0.291436
  22 C :   -0.119465
  23 H :    0.217880
  24 H :    0.197530
  25 H :    0.211508
  26 H :    0.215843
  27 H :    0.443011
  28 C :   -0.333174
  29 H :    0.253566
  30 H :    0.223111
  31 O :   -0.565920
  32 C :    0.533449
  33 O :   -0.478589
  34 C :   -0.735492
  35 H :    0.223525
  36 H :    0.209880
  37 H :    0.212924
Sum of atomic charges:   -0.0000000

LOEWDIN ATOMIC CHARGES
----------------------
   0 Pd:   -0.381807
   1 O :   -0.000344
   2 C :    0.274630
   3 O :   -0.297643
   4 C :   -0.368495
   5 H :    0.150119
   6 H :    0.175627
   7 H :    0.168038
   8 N :   -0.079254
   9 C :   -0.231177
  10 H :    0.171555
  11 H :    0.110875
  12 H :    0.150521
  13 C :   -0.232380
  14 H :    0.144433
  15 H :    0.118082
  16 H :    0.158631
  17 C :   -0.051508
  18 C :   -0.141543
  19 C :   -0.152676
  20 C :   -0.144886
  21 C :   -0.134462
  22 C :    0.005660
  23 H :    0.134683
  24 H :    0.129861
  25 H :    0.135531
  26 H :    0.135124
  27 H :    0.405237
  28 C :   -0.114425
  29 H :    0.147353
  30 H :    0.126424
  31 O :   -0.318700
  32 C :    0.124855
  33 O :   -0.300739
  34 C :   -0.407925
  35 H :    0.131795
  36 H :    0.130874
  37 H :    0.128055

  Mayer bond orders larger than 0.100000
B(  0-Pd,  1-O ) :   0.4114 B(  0-Pd,  8-N ) :   0.4110 B(  0-Pd, 22-C ) :   0.9203
B(  0-Pd, 31-O ) :   0.4264 B(  1-O ,  2-C ) :   1.6932 B(  2-C ,  3-O ) :   1.1060
B(  2-C ,  4-C ) :   0.9457 B(  3-O , 27-H ) :   0.6952 B(  4-C ,  5-H ) :   0.9039
B(  4-C ,  6-H ) :   0.8866 B(  4-C ,  7-H ) :   0.8982 B(  8-N ,  9-C ) :   0.9172
B(  8-N , 13-C ) :   0.9244 B(  8-N , 28-C ) :   0.8887 B(  9-C , 10-H ) :   0.8740
B(  9-C , 11-H ) :   0.9056 B(  9-C , 12-H ) :   0.9060 B( 13-C , 14-H ) :   0.9091
B( 13-C , 15-H ) :   0.9048 B( 13-C , 16-H ) :   0.8967 B( 17-C , 18-C ) :   1.3724
B( 17-C , 22-C ) :   1.3012 B( 17-C , 28-C ) :   0.9796 B( 18-C , 19-C ) :   1.4373
B( 18-C , 25-H ) :   0.9209 B( 19-C , 20-C ) :   1.4201 B( 19-C , 26-H ) :   0.9168
B( 20-C , 21-C ) :   1.4282 B( 20-C , 23-H ) :   0.9186 B( 21-C , 22-C ) :   1.3309
B( 21-C , 24-H ) :   0.9226 B( 28-C , 29-H ) :   0.8985 B( 28-C , 30-H ) :   0.9043
B( 31-O , 32-C ) :   1.3706 B( 31-O , 33-O ) :   0.1133 B( 32-C , 33-O ) :   1.8475
B( 32-C , 34-C ) :   0.9023 B( 34-C , 35-H ) :   0.9241 B( 34-C , 36-H ) :   0.9250
B( 34-C , 37-H ) :   0.9251

Dispersion correction           -0.026199714
FINAL SINGLE POINT ENERGY      -988.341098071080
Dispersion correction            ... done

DIPOLE MOMENT
-------------
                                X             Y             Z
Electronic contribution:      9.39126      18.62252       7.54917
Nuclear contribution   :    -10.84565     -15.88488      -6.27913
                        -----------------------------------------
Total Dipole Moment    :     -1.45438       2.73763       1.27004
                        -----------------------------------------
Magnitude (a.u.)       :      3.35006
Magnitude (Debye)      :      8.51517

Rotational constants in cm-1:     0.014112     0.008522     0.006402
Rotational constants in MHz :   423.066096   255.493080   191.926302

                             ****ORCA TERMINATED NORMALLY****
TOTAL RUN TIME: 0 days 0 hours 10 minutes 13 seconds 665 msec
