                         Program Version 5.0.3 -  RELEASE  -
|  1> ! EnGrad PBEh-3c
|  2> %output
|  3> xyzfile=True
|  4> end
|  5> %scf
|  6> maxiter 250
|  7> end
|  8> %output
|  9> Print[P_Hirshfeld] = 1
| 10> end
| 11> % maxcore
| 12> 4000
| 13> *xyz 0 1
| 14> Pd   0.32169853   0.24037368  -0.01005817
| 15> O    1.88508444   1.34380269   0.61970814
| 16> C    1.72715959   2.58967317   0.42855697
| 17> O    0.58479912   3.04892149  -0.05519268
| 18> C    2.93063755   3.51454416   0.68348373
| 19> H    2.56621541   4.44322956   1.12358984
| 20> H    3.39136714   3.78529649  -0.27135772
| 21> H    3.69622270   3.07750050   1.32468580
| 22> N   -1.30639518  -0.95750444  -0.94394263
| 23> C   -0.90990790  -2.31547063  -1.35945976
| 24> H   -0.12282320  -2.26112217  -2.09285638
| 25> H   -1.79930231  -2.78740317  -1.77401847
| 26> H   -0.57139328  -2.86424295  -0.48480550
| 27> C   -1.82938175  -0.22758630  -2.11567429
| 28> H   -1.96262135   0.82652150  -1.89005063
| 29> H   -2.78275259  -0.67589043  -2.38854822
| 30> H   -1.12813787  -0.32648105  -2.93799318
| 31> C   -1.84463055  -1.05813009   1.51695246
| 32> C   -2.35410335  -1.95974406   2.46327076
| 33> C   -1.96864494  -1.86410819   3.79281050
| 34> C   -1.08625648  -0.86888777   4.16133876
| 35> C   -0.60525925   0.03583180   3.20738146
| 36> C   -0.78717941  -0.16319816   1.79898295
| 37> H   -0.78628835  -0.76837123   5.20571269
| 38> H    0.00598410   0.81982757   3.59339296
| 39> H   -3.11584824  -2.68001016   2.20491728
| 40> H   -2.42455769  -2.48132718   4.54854921
| 41> H   -0.71806024   3.77335746   0.74056630
| 42> C   -2.36954462  -1.04181182   0.12445694
| 43> H   -2.97721630  -0.14273248   0.04956465
| 44> H   -3.01392820  -1.88758287  -0.11342865
| 45> O    1.39298502   0.61581324  -1.94057513
| 46> C    2.18364427  -0.31876532  -2.39519907
| 47> O    2.16403443  -1.51034375  -2.13683542
| 48> C    3.18974919   0.17699876  -3.48981349
| 49> H    3.55555010  -0.66229607  -4.08120156
| 50> H    4.04476606   0.58361166  -2.94982485
| 51> H    2.82534916   0.95659583  -4.15958062
| 52> *
| 53>
| 54>                          ****END OF INPUT****

CARTESIAN COORDINATES (ANGSTROEM)
---------------------------------
  Pd     0.321699    0.240374   -0.010058
  O      1.885084    1.343803    0.619708
  C      1.727160    2.589673    0.428557
  O      0.584799    3.048921   -0.055193
  C      2.930638    3.514544    0.683484
  H      2.566215    4.443230    1.123590
  H      3.391367    3.785296   -0.271358
  H      3.696223    3.077501    1.324686
  N     -1.306395   -0.957504   -0.943943
  C     -0.909908   -2.315471   -1.359460
  H     -0.122823   -2.261122   -2.092856
  H     -1.799302   -2.787403   -1.774018
  H     -0.571393   -2.864243   -0.484806
  C     -1.829382   -0.227586   -2.115674
  H     -1.962621    0.826522   -1.890051
  H     -2.782753   -0.675890   -2.388548
  H     -1.128138   -0.326481   -2.937993
  C     -1.844631   -1.058130    1.516952
  C     -2.354103   -1.959744    2.463271
  C     -1.968645   -1.864108    3.792810
  C     -1.086256   -0.868888    4.161339
  C     -0.605259    0.035832    3.207381
  C     -0.787179   -0.163198    1.798983
  H     -0.786288   -0.768371    5.205713
  H      0.005984    0.819828    3.593393
  H     -3.115848   -2.680010    2.204917
  H     -2.424558   -2.481327    4.548549
  H     -0.718060    3.773357    0.740566
  C     -2.369545   -1.041812    0.124457
  H     -2.977216   -0.142732    0.049565
  H     -3.013928   -1.887583   -0.113429
  O      1.392985    0.615813   -1.940575
  C      2.183644   -0.318765   -2.395199
  O      2.164034   -1.510344   -2.136835
  C      3.189749    0.176999   -3.489813
  H      3.555550   -0.662296   -4.081202
  H      4.044766    0.583612   -2.949825
  H      2.825349    0.956596   -4.159581

 Total Charge           Charge          ....    0
 Multiplicity           Mult            ....    1
 Number of Electrons    NEL             ....  154
 Basis Dimension        Dim             ....  339

ORBITAL ENERGIES
----------------

  NO   OCC          E(Eh)            E(eV)
   0   2.0000     -19.566271      -532.4253
   1   2.0000     -19.555496      -532.1321
   2   2.0000     -19.436480      -528.8935
   3   2.0000     -19.408777      -528.1397
   4   2.0000     -14.703129      -400.0925
   5   2.0000     -10.624453      -289.1061
   6   2.0000     -10.510388      -286.0022
   7   2.0000     -10.480225      -285.1814
   8   2.0000     -10.473344      -284.9942
   9   2.0000     -10.469030      -284.8768
  10   2.0000     -10.455947      -284.5208
  11   2.0000     -10.453279      -284.4482
  12   2.0000     -10.450258      -284.3660
  13   2.0000     -10.441422      -284.1255
  14   2.0000     -10.440828      -284.1094
  15   2.0000     -10.438541      -284.0472
  16   2.0000     -10.436054      -283.9795
  17   2.0000     -10.397044      -282.9179
  18   2.0000      -3.645705       -99.2047
  19   2.0000      -2.292696       -62.3874
  20   2.0000      -2.286047       -62.2065
  21   2.0000      -2.257522       -61.4303
  22   2.0000      -1.218680       -33.1620
  23   2.0000      -1.120567       -30.4922
  24   2.0000      -1.110699       -30.2237
  25   2.0000      -1.052968       -28.6527
  26   2.0000      -1.018854       -27.7244
  27   2.0000      -0.944542       -25.7023
  28   2.0000      -0.861682       -23.4476
  29   2.0000      -0.852038       -23.1851
  30   2.0000      -0.818855       -22.2822
  31   2.0000      -0.803286       -21.8585
  32   2.0000      -0.775997       -21.1160
  33   2.0000      -0.765051       -20.8181
  34   2.0000      -0.697166       -18.9709
  35   2.0000      -0.671184       -18.2639
  36   2.0000      -0.660550       -17.9745
  37   2.0000      -0.639409       -17.3992
  38   2.0000      -0.592658       -16.1271
  39   2.0000      -0.576117       -15.6770
  40   2.0000      -0.565429       -15.3861
  41   2.0000      -0.555408       -15.1134
  42   2.0000      -0.552503       -15.0344
  43   2.0000      -0.550846       -14.9893
  44   2.0000      -0.541689       -14.7401
  45   2.0000      -0.530485       -14.4352
  46   2.0000      -0.506858       -13.7923
  47   2.0000      -0.495257       -13.4766
  48   2.0000      -0.490038       -13.3346
  49   2.0000      -0.479646       -13.0518
  50   2.0000      -0.471021       -12.8171
  51   2.0000      -0.466270       -12.6878
  52   2.0000      -0.461091       -12.5469
  53   2.0000      -0.459093       -12.4925
  54   2.0000      -0.456753       -12.4289
  55   2.0000      -0.447490       -12.1768
  56   2.0000      -0.442881       -12.0514
  57   2.0000      -0.431693       -11.7470
  58   2.0000      -0.428120       -11.6497
  59   2.0000      -0.422723       -11.5029
  60   2.0000      -0.412250       -11.2179
  61   2.0000      -0.409791       -11.1510
  62   2.0000      -0.400669       -10.9027
  63   2.0000      -0.391973       -10.6661
  64   2.0000      -0.385238       -10.4828
  65   2.0000      -0.382936       -10.4202
  66   2.0000      -0.356228        -9.6934
  67   2.0000      -0.347488        -9.4556
  68   2.0000      -0.338381        -9.2078
  69   2.0000      -0.333747        -9.0817
  70   2.0000      -0.325345        -8.8531
  71   2.0000      -0.285425        -7.7668
  72   2.0000      -0.280616        -7.6360
  73   2.0000      -0.278235        -7.5712
  74   2.0000      -0.275774        -7.5042
  75   2.0000      -0.260557        -7.0901
  76   2.0000      -0.253493        -6.8979
  77   0.0000      -0.167762        -4.5650
  78   0.0000      -0.040068        -1.0903
  79   0.0000       0.007592         0.2066
  80   0.0000       0.018028         0.4906
  81   0.0000       0.025010         0.6806

MULLIKEN ATOMIC CHARGES
-----------------------
   0 Pd:    0.371350
   1 O :   -0.404411
   2 C :    0.645260
   3 O :   -0.463883
   4 C :   -0.737685
   5 H :    0.239921
   6 H :    0.279573
   7 H :    0.273412
   8 N :   -0.462130
   9 C :   -0.523520
  10 H :    0.306181
  11 H :    0.202239
  12 H :    0.267616
  13 C :   -0.511519
  14 H :    0.260644
  15 H :    0.217607
  16 H :    0.277546
  17 C :    0.070058
  18 C :   -0.253250
  19 C :   -0.228098
  20 C :   -0.204752
  21 C :   -0.314271
  22 C :   -0.108441
  23 H :    0.214754
  24 H :    0.208035
  25 H :    0.206203
  26 H :    0.216057
  27 H :    0.357646
  28 C :   -0.329969
  29 H :    0.258155
  30 H :    0.226748
  31 O :   -0.550312
  32 C :    0.537038
  33 O :   -0.470398
  34 C :   -0.740606
  35 H :    0.228540
  36 H :    0.218188
  37 H :    0.220474
Sum of atomic charges:   -0.0000000

LOEWDIN ATOMIC CHARGES
----------------------
   0 Pd:   -0.390028
   1 O :   -0.044273
   2 C :    0.232214
   3 O :   -0.224995
   4 C :   -0.373173
   5 H :    0.148550
   6 H :    0.171595
   7 H :    0.160675
   8 N :   -0.056790
   9 C :   -0.234836
  10 H :    0.167383
  11 H :    0.112847
  12 H :    0.152887
  13 C :   -0.231068
  14 H :    0.148005
  15 H :    0.118896
  16 H :    0.157129
  17 C :   -0.058597
  18 C :   -0.140435
  19 C :   -0.142382
  20 C :   -0.141325
  21 C :   -0.128597
  22 C :   -0.023455
  23 H :    0.134131
  24 H :    0.132906
  25 H :    0.133331
  26 H :    0.133938
  27 H :    0.356823
  28 C :   -0.107159
  29 H :    0.148616
  30 H :    0.127016
  31 O :   -0.272682
  32 C :    0.118253
  33 O :   -0.286760
  34 C :   -0.401449
  35 H :    0.134374
  36 H :    0.137657
  37 H :    0.130777

  Mayer bond orders larger than 0.100000
B(  0-Pd,  1-O ) :   0.4464 B(  0-Pd,  8-N ) :   0.4343 B(  0-Pd, 22-C ) :   0.8020
B(  0-Pd, 31-O ) :   0.4871 B(  1-O ,  2-C ) :   1.5835 B(  2-C ,  3-O ) :   1.2863
B(  2-C ,  4-C ) :   0.9509 B(  3-O , 27-H ) :   0.6021 B(  4-C ,  5-H ) :   0.9081
B(  4-C ,  6-H ) :   0.8920 B(  4-C ,  7-H ) :   0.9010 B(  8-N ,  9-C ) :   0.9204
B(  8-N , 13-C ) :   0.9235 B(  8-N , 28-C ) :   0.8843 B(  9-C , 10-H ) :   0.8715
B(  9-C , 11-H ) :   0.9056 B(  9-C , 12-H ) :   0.9044 B( 13-C , 14-H ) :   0.9066
B( 13-C , 15-H ) :   0.9035 B( 13-C , 16-H ) :   0.8983 B( 17-C , 18-C ) :   1.3984
B( 17-C , 22-C ) :   1.3106 B( 17-C , 28-C ) :   0.9770 B( 18-C , 19-C ) :   1.4315
B( 18-C , 25-H ) :   0.9224 B( 19-C , 20-C ) :   1.4329 B( 19-C , 26-H ) :   0.9170
B( 20-C , 21-C ) :   1.4265 B( 20-C , 23-H ) :   0.9184 B( 21-C , 22-C ) :   1.3837
B( 21-C , 24-H ) :   0.9208 B( 28-C , 29-H ) :   0.8975 B( 28-C , 30-H ) :   0.9061
B( 31-O , 32-C ) :   1.3445 B( 31-O , 33-O ) :   0.1079 B( 32-C , 33-O ) :   1.8577
B( 32-C , 34-C ) :   0.9109 B( 34-C , 35-H ) :   0.9226 B( 34-C , 36-H ) :   0.9230
B( 34-C , 37-H ) :   0.9214

Dispersion correction           -0.026151020
FINAL SINGLE POINT ENERGY      -988.334374392704
Dispersion correction            ... done

DIPOLE MOMENT
-------------
                                X             Y             Z
Electronic contribution:     11.92997      13.95233       0.25322
Nuclear contribution   :    -13.57694     -11.61830       0.71307
                        -----------------------------------------
Total Dipole Moment    :     -1.64697       2.33403       0.96629
                        -----------------------------------------
Magnitude (a.u.)       :      3.01562
Magnitude (Debye)      :      7.66509

Rotational constants in cm-1:     0.014488     0.008424     0.006321
Rotational constants in MHz :   434.348906   252.530408   189.491097

                             ****ORCA TERMINATED NORMALLY****
TOTAL RUN TIME: 0 days 0 hours 14 minutes 3 seconds 520 msec
