                         Program Version 5.0.3 -  RELEASE  -
|  1> ! EnGrad PBEh-3c
|  2> %output
|  3> xyzfile=True
|  4> end
|  5> %scf
|  6> maxiter 250
|  7> end
|  8> %output
|  9> Print[P_Hirshfeld] = 1
| 10> end
| 11> % maxcore
| 12> 4000
| 13> *xyz 1 1
| 14> Ir   0.46899650  -0.74387759   0.79568958
| 15> C   -0.08631597  -2.79056686   1.49926827
| 16> C    0.59547941  -2.10129971   2.56101679
| 17> C    1.99777365  -2.21989910   0.71196108
| 18> C    0.76637247  -2.85085389   0.36856913
| 19> C    1.88723081  -1.81468903   2.07933818
| 20> N   -1.00934145  -0.02457146  -0.43661274
| 21> C   -2.42136663   0.01492282  -0.00159895
| 22> C   -2.88429320   1.38342766   0.47568401
| 23> H   -3.91433764   1.37768658   0.83309288
| 24> H   -2.81605030   2.10792935  -0.33447327
| 25> H   -2.30224283   1.73373994   1.31928208
| 26> C   -3.45158504  -0.53514977  -0.98542392
| 27> H   -2.47980112  -0.62237622   0.88058261
| 28> H   -4.42417006  -0.65406260  -0.50918037
| 29> H   -3.59593153   0.12370813  -1.84224195
| 30> H   -3.15472958  -1.51514338  -1.35629237
| 31> C   -0.74763518   0.25612094  -1.65748329
| 32> C    0.53387875   0.22860215  -2.28638842
| 33> H   -1.56281275   0.54730764  -2.31409046
| 34> C    1.73769006  -0.00902691  -1.68671163
| 35> C    2.83852343  -0.02979274  -2.56549094
| 36> S    0.76026677   0.16607464  -3.98227813
| 37> C    2.43487060  -0.01120755  -3.87014879
| 38> H    2.25229091   1.12213318  -0.81932898
| 39> H    3.89121506  -0.06243945  -2.31972099
| 40> H    3.06190361  -0.11094698  -4.74308659
| 41> H   -0.92574928  -3.45411668   1.64527465
| 42> H    0.22271843  -2.01138232   3.57015157
| 43> H    2.70369797  -1.40916064   2.65959614
| 44> O    1.81050214   1.84210359   0.62496173
| 45> O    0.18812389   1.09698275   1.78250024
| 46> C    0.88269930   2.06825200   1.45394466
| 47> C    0.81286245   3.40993521   2.06913152
| 48> H    0.84123076   4.18111502   1.30054186
| 49> H    1.66438252   3.59724284   2.72441729
| 50> H   -0.09234197   3.52333209   2.65779217
| 51> H    2.93732248  -2.34532396   0.19869472
| 52> H    0.57867377  -3.46471093  -0.50093407
| 53> *
| 54>
| 55>                          ****END OF INPUT****

CARTESIAN COORDINATES (ANGSTROEM)
---------------------------------
  Ir     0.468996   -0.743878    0.795690
  C     -0.086316   -2.790567    1.499268
  C      0.595479   -2.101300    2.561017
  C      1.997774   -2.219899    0.711961
  C      0.766372   -2.850854    0.368569
  C      1.887231   -1.814689    2.079338
  N     -1.009341   -0.024571   -0.436613
  C     -2.421367    0.014923   -0.001599
  C     -2.884293    1.383428    0.475684
  H     -3.914338    1.377687    0.833093
  H     -2.816050    2.107929   -0.334473
  H     -2.302243    1.733740    1.319282
  C     -3.451585   -0.535150   -0.985424
  H     -2.479801   -0.622376    0.880583
  H     -4.424170   -0.654063   -0.509180
  H     -3.595932    0.123708   -1.842242
  H     -3.154730   -1.515143   -1.356292
  C     -0.747635    0.256121   -1.657483
  C      0.533879    0.228602   -2.286388
  H     -1.562813    0.547308   -2.314090
  C      1.737690   -0.009027   -1.686712
  C      2.838523   -0.029793   -2.565491
  S      0.760267    0.166075   -3.982278
  C      2.434871   -0.011208   -3.870149
  H      2.252291    1.122133   -0.819329
  H      3.891215   -0.062439   -2.319721
  H      3.061904   -0.110947   -4.743087
  H     -0.925749   -3.454117    1.645275
  H      0.222718   -2.011382    3.570152
  H      2.703698   -1.409161    2.659596
  O      1.810502    1.842104    0.624962
  O      0.188124    1.096983    1.782500
  C      0.882699    2.068252    1.453945
  C      0.812862    3.409935    2.069132
  H      0.841231    4.181115    1.300542
  H      1.664383    3.597243    2.724417
  H     -0.092342    3.523332    2.657792
  H      2.937322   -2.345324    0.198695
  H      0.578674   -3.464711   -0.500934

 Total Charge           Charge          ....    1
 Multiplicity           Mult            ....    1
 Number of Electrons    NEL             ....  164
 Basis Dimension        Dim             ....  358

ORBITAL ENERGIES
----------------

  NO   OCC          E(Eh)            E(eV)
   0   2.0000     -89.755812     -2442.3798
   1   2.0000     -19.611102      -533.6452
   2   2.0000     -19.556188      -532.1509
   3   2.0000     -14.833896      -403.6508
   4   2.0000     -10.664724      -290.2019
   5   2.0000     -10.655586      -289.9532
   6   2.0000     -10.643878      -289.6346
   7   2.0000     -10.642556      -289.5987
   8   2.0000     -10.639154      -289.5061
   9   2.0000     -10.621322      -289.0209
  10   2.0000     -10.619022      -288.9583
  11   2.0000     -10.616533      -288.8905
  12   2.0000     -10.609963      -288.7118
  13   2.0000     -10.604855      -288.5728
  14   2.0000     -10.585767      -288.0534
  15   2.0000     -10.580357      -287.9062
  16   2.0000     -10.548980      -287.0524
  17   2.0000     -10.536411      -286.7103
  18   2.0000     -10.530067      -286.5377
  19   2.0000      -8.395612      -228.4562
  20   2.0000      -6.285309      -171.0320
  21   2.0000      -6.281904      -170.9393
  22   2.0000      -6.280792      -170.9091
  23   2.0000      -4.030475      -109.6748
  24   2.0000      -2.350584       -63.9626
  25   2.0000      -2.313027       -62.9407
  26   2.0000      -2.312411       -62.9239
  27   2.0000      -1.301766       -35.4229
  28   2.0000      -1.203296       -32.7434
  29   2.0000      -1.173718       -31.9385
  30   2.0000      -1.169361       -31.8199
  31   2.0000      -1.126849       -30.6631
  32   2.0000      -1.015797       -27.6413
  33   2.0000      -0.982675       -26.7400
  34   2.0000      -0.978492       -26.6261
  35   2.0000      -0.966271       -26.2936
  36   2.0000      -0.948173       -25.8011
  37   2.0000      -0.926084       -25.2000
  38   2.0000      -0.890391       -24.2288
  39   2.0000      -0.868996       -23.6466
  40   2.0000      -0.796419       -21.6717
  41   2.0000      -0.786780       -21.4094
  42   2.0000      -0.785900       -21.3854
  43   2.0000      -0.776173       -21.1207
  44   2.0000      -0.771503       -20.9937
  45   2.0000      -0.735078       -20.0025
  46   2.0000      -0.730385       -19.8748
  47   2.0000      -0.696373       -18.9493
  48   2.0000      -0.681804       -18.5528
  49   2.0000      -0.661865       -18.0103
  50   2.0000      -0.655533       -17.8380
  51   2.0000      -0.647984       -17.6325
  52   2.0000      -0.643904       -17.5215
  53   2.0000      -0.638810       -17.3829
  54   2.0000      -0.636182       -17.3114
  55   2.0000      -0.628242       -17.0953
  56   2.0000      -0.619010       -16.8441
  57   2.0000      -0.608103       -16.5473
  58   2.0000      -0.607494       -16.5308
  59   2.0000      -0.605275       -16.4704
  60   2.0000      -0.593095       -16.1389
  61   2.0000      -0.585110       -15.9216
  62   2.0000      -0.571066       -15.5395
  63   2.0000      -0.559343       -15.2205
  64   2.0000      -0.551085       -14.9958
  65   2.0000      -0.549074       -14.9411
  66   2.0000      -0.541775       -14.7424
  67   2.0000      -0.534831       -14.5535
  68   2.0000      -0.532432       -14.4882
  69   2.0000      -0.518242       -14.1021
  70   2.0000      -0.508721       -13.8430
  71   2.0000      -0.505692       -13.7606
  72   2.0000      -0.502750       -13.6805
  73   2.0000      -0.488199       -13.2846
  74   2.0000      -0.468735       -12.7549
  75   2.0000      -0.463790       -12.6204
  76   2.0000      -0.450763       -12.2659
  77   2.0000      -0.444023       -12.0825
  78   2.0000      -0.422834       -11.5059
  79   2.0000      -0.413193       -11.2436
  80   2.0000      -0.405217       -11.0265
  81   2.0000      -0.390416       -10.6238
  82   0.0000      -0.224394        -6.1061
  83   0.0000      -0.184690        -5.0257
  84   0.0000      -0.153289        -4.1712
  85   0.0000      -0.085107        -2.3159
  86   0.0000      -0.079729        -2.1695

MULLIKEN ATOMIC CHARGES
-----------------------
   0 Ir:    0.651789
   1 C :   -0.254054
   2 C :   -0.204497
   3 C :   -0.234629
   4 C :   -0.234864
   5 C :   -0.184004
   6 N :   -0.494308
   7 C :   -0.133716
   8 C :   -0.635298
   9 H :    0.249945
  10 H :    0.221416
  11 H :    0.269148
  12 C :   -0.668706
  13 H :    0.257991
  14 H :    0.268591
  15 H :    0.227083
  16 H :    0.242913
  17 C :    0.110368
  18 C :   -0.147031
  19 H :    0.271120
  20 C :   -0.347017
  21 C :   -0.155975
  22 S :    0.327336
  23 C :   -0.417408
  24 H :    0.372418
  25 H :    0.272247
  26 H :    0.300020
  27 H :    0.289450
  28 H :    0.297860
  29 H :    0.293430
  30 O :   -0.553773
  31 O :   -0.501340
  32 C :    0.632681
  33 C :   -0.752633
  34 H :    0.268025
  35 H :    0.277221
  36 H :    0.244892
  37 H :    0.289224
  38 H :    0.284086
Sum of atomic charges:    1.0000000

LOEWDIN ATOMIC CHARGES
----------------------
   0 Ir:   -0.158461
   1 C :   -0.020868
   2 C :   -0.010083
   3 C :    0.000285
   4 C :   -0.087360
   5 C :   -0.076712
   6 N :   -0.028115
   7 C :   -0.064864
   8 C :   -0.353717
   9 H :    0.147722
  10 H :    0.133531
  11 H :    0.148350
  12 C :   -0.359038
  13 H :    0.145464
  14 H :    0.156552
  15 H :    0.132562
  16 H :    0.136798
  17 C :    0.039980
  18 C :   -0.227194
  19 H :    0.154749
  20 C :   -0.204610
  21 C :   -0.166011
  22 S :    0.491889
  23 C :   -0.263145
  24 H :    0.342365
  25 H :    0.159961
  26 H :    0.170445
  27 H :    0.184953
  28 H :    0.191077
  29 H :    0.186069
  30 O :   -0.342017
  31 O :   -0.179361
  32 C :    0.136665
  33 C :   -0.374125
  34 H :    0.165659
  35 H :    0.172075
  36 H :    0.146187
  37 H :    0.189914
  38 H :    0.182430

  Mayer bond orders larger than 0.100000
B(  0-Ir,  1-C ) :   0.4893 B(  0-Ir,  2-C ) :   0.4644 B(  0-Ir,  3-C ) :   0.5289
B(  0-Ir,  4-C ) :   0.4511 B(  0-Ir,  5-C ) :   0.4332 B(  0-Ir,  6-N ) :   0.4889
B(  0-Ir, 20-C ) :   0.1887 B(  0-Ir, 30-O ) :   0.1336 B(  0-Ir, 31-O ) :   0.5429
B(  1-C ,  2-C ) :   1.1436 B(  1-C ,  4-C ) :   1.1802 B(  1-C , 27-H ) :   0.9176
B(  2-C ,  5-C ) :   1.1790 B(  2-C , 28-H ) :   0.9092 B(  3-C ,  4-C ) :   1.1362
B(  3-C ,  5-C ) :   1.1452 B(  3-C , 37-H ) :   0.9192 B(  4-C , 38-H ) :   0.9157
B(  5-C , 29-H ) :   0.9082 B(  6-N ,  7-C ) :   0.8905 B(  6-N , 17-C ) :   1.6135
B(  7-C ,  8-C ) :   0.9768 B(  7-C , 12-C ) :   0.9880 B(  7-C , 13-H ) :   0.8922
B(  8-C ,  9-H ) :   0.9068 B(  8-C , 10-H ) :   0.9190 B(  8-C , 11-H ) :   0.9006
B( 12-C , 14-H ) :   0.9045 B( 12-C , 15-H ) :   0.9130 B( 12-C , 16-H ) :   0.9167
B( 17-C , 18-C ) :   1.1136 B( 17-C , 19-H ) :   0.8802 B( 18-C , 20-C ) :   1.2868
B( 18-C , 22-S ) :   1.1841 B( 20-C , 21-C ) :   1.3095 B( 20-C , 24-H ) :   0.6111
B( 21-C , 23-C ) :   1.4689 B( 21-C , 25-H ) :   0.8985 B( 22-S , 23-C ) :   1.2806
B( 23-C , 26-H ) :   0.8869 B( 24-H , 30-O ) :   0.1207 B( 30-O , 32-C ) :   1.5833
B( 31-O , 32-C ) :   1.3723 B( 32-C , 33-C ) :   0.9510 B( 33-C , 34-H ) :   0.9030
B( 33-C , 35-H ) :   0.8968 B( 33-C , 36-H ) :   0.9096

Dispersion correction           -0.029779474
FINAL SINGLE POINT ENERGY     -1288.269362359155
Dispersion correction            ... done

DIPOLE MOMENT
-------------
                                X             Y             Z
Electronic contribution:     24.85479     -73.45737     104.56549
Nuclear contribution   :    -25.18443      72.07495    -104.96804
                        -----------------------------------------
Total Dipole Moment    :     -0.32964      -1.38242      -0.40255
                        -----------------------------------------
Magnitude (a.u.)       :      1.47709
Magnitude (Debye)      :      3.75445

Rotational constants in cm-1:     0.010642     0.007797     0.007238
Rotational constants in MHz :   319.042032   233.756336   216.988861

                             ****ORCA TERMINATED NORMALLY****
TOTAL RUN TIME: 0 days 0 hours 20 minutes 39 seconds 581 msec
