                         Program Version 5.0.3 -  RELEASE  -
|  1> ! EnGrad PBEh-3c
|  2> %output
|  3> xyzfile=True
|  4> end
|  5> %scf
|  6> maxiter 250
|  7> end
|  8> %output
|  9> Print[P_Hirshfeld] = 1
| 10> end
| 11> % maxcore
| 12> 4000
| 13> *xyz 1 1
| 14> Ir   0.48476968  -0.74790326   0.85791976
| 15> C   -0.06005068  -2.82264264   1.43791864
| 16> C    0.55853673  -2.11574839   2.51674793
| 17> C    2.04787288  -2.28846340   0.81817928
| 18> C    0.84759629  -2.89067270   0.36446347
| 19> C    1.88049254  -1.78176214   2.13610530
| 20> N   -1.04027690  -0.06150242  -0.48301701
| 21> C   -2.46665827  -0.00458243   0.03244963
| 22> C   -2.86283559   1.38051753   0.52612393
| 23> H   -3.90393577   1.32470584   0.85137232
| 24> H   -2.80446446   2.12119003  -0.27259566
| 25> H   -2.25861565   1.69231635   1.37324506
| 26> C   -3.45035690  -0.52750757  -1.00801754
| 27> H   -2.47056038  -0.69333670   0.87863558
| 28> H   -4.41411132  -0.63398325  -0.51193951
| 29> H   -3.61445046   0.16717727  -1.83375191
| 30> H   -3.17430630  -1.50421837  -1.40500975
| 31> C   -0.76180214   0.27678922  -1.69356517
| 32> C    0.58201383   0.20518352  -2.23863688
| 33> H   -1.60248273   0.55583796  -2.33537208
| 34> C    1.82849551   0.26714477  -1.64478239
| 35> C    2.83395693  -0.06613079  -2.55528299
| 36> S    0.72000286   0.14758402  -3.98245479
| 37> C    2.41490235  -0.03681042  -3.85515328
| 38> H    2.04132884   0.85117873  -0.79287297
| 39> H    3.86982761  -0.10446593  -2.27950617
| 40> H    3.04886265  -0.08473290  -4.73315861
| 41> H   -0.98362890  -3.38613082   1.52090740
| 42> H    0.12231207  -1.97863165   3.49715772
| 43> H    2.64204460  -1.35118377   2.76030216
| 44> O    1.88148038   1.93810154   0.57226523
| 45> O    0.16410086   1.06034051   1.75693286
| 46> C    1.02829587   2.03225342   1.36378810
| 47> C    0.80418603   3.40548259   2.04805087
| 48> H    0.83883810   4.18639290   1.27992112
| 49> H    1.67617720   3.59193518   2.68308928
| 50> H   -0.09270448   3.52747791   2.64859594
| 51> H    2.96338112  -2.22139812   0.24873311
| 52> H    0.68164366  -3.43228621  -0.55141724
| 53> *
| 54>
| 55>                          ****END OF INPUT****

CARTESIAN COORDINATES (ANGSTROEM)
---------------------------------
  Ir     0.484770   -0.747903    0.857920
  C     -0.060051   -2.822643    1.437919
  C      0.558537   -2.115748    2.516748
  C      2.047873   -2.288463    0.818179
  C      0.847596   -2.890673    0.364463
  C      1.880493   -1.781762    2.136105
  N     -1.040277   -0.061502   -0.483017
  C     -2.466658   -0.004582    0.032450
  C     -2.862836    1.380518    0.526124
  H     -3.903936    1.324706    0.851372
  H     -2.804464    2.121190   -0.272596
  H     -2.258616    1.692316    1.373245
  C     -3.450357   -0.527508   -1.008018
  H     -2.470560   -0.693337    0.878636
  H     -4.414111   -0.633983   -0.511940
  H     -3.614450    0.167177   -1.833752
  H     -3.174306   -1.504218   -1.405010
  C     -0.761802    0.276789   -1.693565
  C      0.582014    0.205184   -2.238637
  H     -1.602483    0.555838   -2.335372
  C      1.828496    0.267145   -1.644782
  C      2.833957   -0.066131   -2.555283
  S      0.720003    0.147584   -3.982455
  C      2.414902   -0.036810   -3.855153
  H      2.041329    0.851179   -0.792873
  H      3.869828   -0.104466   -2.279506
  H      3.048863   -0.084733   -4.733159
  H     -0.983629   -3.386131    1.520907
  H      0.122312   -1.978632    3.497158
  H      2.642045   -1.351184    2.760302
  O      1.881480    1.938102    0.572265
  O      0.164101    1.060341    1.756933
  C      1.028296    2.032253    1.363788
  C      0.804186    3.405483    2.048051
  H      0.838838    4.186393    1.279921
  H      1.676177    3.591935    2.683089
  H     -0.092704    3.527478    2.648596
  H      2.963381   -2.221398    0.248733
  H      0.681644   -3.432286   -0.551417

 Total Charge           Charge          ....    1
 Multiplicity           Mult            ....    1
 Number of Electrons    NEL             ....  164
 Basis Dimension        Dim             ....  358

ORBITAL ENERGIES
----------------

  NO   OCC          E(Eh)            E(eV)
   0   2.0000     -89.749468     -2442.2072
   1   2.0000     -19.616367      -533.7885
   2   2.0000     -19.586985      -532.9890
   3   2.0000     -14.828417      -403.5017
   4   2.0000     -10.674004      -290.4544
   5   2.0000     -10.656648      -289.9821
   6   2.0000     -10.653488      -289.8961
   7   2.0000     -10.649764      -289.7948
   8   2.0000     -10.646198      -289.6978
   9   2.0000     -10.631235      -289.2906
  10   2.0000     -10.627019      -289.1759
  11   2.0000     -10.618207      -288.9361
  12   2.0000     -10.614458      -288.8341
  13   2.0000     -10.604701      -288.5686
  14   2.0000     -10.575557      -287.7755
  15   2.0000     -10.571961      -287.6777
  16   2.0000     -10.550452      -287.0924
  17   2.0000     -10.538618      -286.7704
  18   2.0000     -10.527014      -286.4546
  19   2.0000      -8.388515      -228.2631
  20   2.0000      -6.278605      -170.8495
  21   2.0000      -6.275186      -170.7565
  22   2.0000      -6.272969      -170.6962
  23   2.0000      -4.035128      -109.8014
  24   2.0000      -2.355230       -64.0891
  25   2.0000      -2.318200       -63.0814
  26   2.0000      -2.316686       -63.0402
  27   2.0000      -1.307313       -35.5738
  28   2.0000      -1.199178       -32.6313
  29   2.0000      -1.187964       -32.3261
  30   2.0000      -1.182587       -32.1798
  31   2.0000      -1.115250       -30.3475
  32   2.0000      -1.011950       -27.5366
  33   2.0000      -0.992501       -27.0073
  34   2.0000      -0.988914       -26.9097
  35   2.0000      -0.959690       -26.1145
  36   2.0000      -0.952396       -25.9160
  37   2.0000      -0.905469       -24.6391
  38   2.0000      -0.891087       -24.2477
  39   2.0000      -0.861349       -23.4385
  40   2.0000      -0.796262       -21.6674
  41   2.0000      -0.794983       -21.6326
  42   2.0000      -0.788371       -21.4527
  43   2.0000      -0.782590       -21.2954
  44   2.0000      -0.768863       -20.9218
  45   2.0000      -0.742504       -20.2046
  46   2.0000      -0.729158       -19.8414
  47   2.0000      -0.714813       -19.4511
  48   2.0000      -0.681220       -18.5369
  49   2.0000      -0.660703       -17.9786
  50   2.0000      -0.657826       -17.9004
  51   2.0000      -0.654956       -17.8223
  52   2.0000      -0.643974       -17.5234
  53   2.0000      -0.640105       -17.4181
  54   2.0000      -0.630348       -17.1526
  55   2.0000      -0.627603       -17.0780
  56   2.0000      -0.618099       -16.8193
  57   2.0000      -0.615993       -16.7620
  58   2.0000      -0.613917       -16.7055
  59   2.0000      -0.602444       -16.3933
  60   2.0000      -0.589928       -16.0527
  61   2.0000      -0.587085       -15.9754
  62   2.0000      -0.570844       -15.5334
  63   2.0000      -0.563820       -15.3423
  64   2.0000      -0.557030       -15.1575
  65   2.0000      -0.550233       -14.9726
  66   2.0000      -0.542228       -14.7548
  67   2.0000      -0.538987       -14.6666
  68   2.0000      -0.529797       -14.4165
  69   2.0000      -0.527618       -14.3572
  70   2.0000      -0.521627       -14.1942
  71   2.0000      -0.518247       -14.1022
  72   2.0000      -0.508415       -13.8347
  73   2.0000      -0.507900       -13.8207
  74   2.0000      -0.488349       -13.2887
  75   2.0000      -0.477048       -12.9811
  76   2.0000      -0.460276       -12.5247
  77   2.0000      -0.449321       -12.2267
  78   2.0000      -0.430341       -11.7102
  79   2.0000      -0.426816       -11.6143
  80   2.0000      -0.415767       -11.3136
  81   2.0000      -0.396931       -10.8010
  82   0.0000      -0.230937        -6.2841
  83   0.0000      -0.175461        -4.7745
  84   0.0000      -0.148480        -4.0404
  85   0.0000      -0.087064        -2.3691
  86   0.0000      -0.083521        -2.2727

MULLIKEN ATOMIC CHARGES
-----------------------
   0 Ir:    0.619367
   1 C :   -0.218587
   2 C :   -0.220710
   3 C :   -0.181207
   4 C :   -0.243824
   5 C :   -0.236756
   6 N :   -0.465667
   7 C :   -0.122239
   8 C :   -0.629808
   9 H :    0.243333
  10 H :    0.224847
  11 H :    0.277450
  12 C :   -0.674656
  13 H :    0.251484
  14 H :    0.265589
  15 H :    0.231013
  16 H :    0.246281
  17 C :    0.071480
  18 C :   -0.254011
  19 H :    0.275423
  20 C :   -0.276811
  21 C :   -0.162958
  22 S :    0.304931
  23 C :   -0.412719
  24 H :    0.404883
  25 H :    0.262380
  26 H :    0.296268
  27 H :    0.295257
  28 H :    0.304346
  29 H :    0.298404
  30 O :   -0.399557
  31 O :   -0.576948
  32 C :    0.589582
  33 C :   -0.748308
  34 H :    0.258703
  35 H :    0.260731
  36 H :    0.250841
  37 H :    0.299536
  38 H :    0.292634
Sum of atomic charges:    1.0000000

LOEWDIN ATOMIC CHARGES
----------------------
   0 Ir:   -0.136558
   1 C :   -0.006092
   2 C :   -0.012783
   3 C :    0.013058
   4 C :   -0.087804
   5 C :   -0.084105
   6 N :   -0.051872
   7 C :   -0.053662
   8 C :   -0.351342
   9 H :    0.146010
  10 H :    0.136508
  11 H :    0.154803
  12 C :   -0.362563
  13 H :    0.141590
  14 H :    0.154644
  15 H :    0.134943
  16 H :    0.139464
  17 C :    0.028395
  18 C :   -0.209008
  19 H :    0.156549
  20 C :   -0.146090
  21 C :   -0.160084
  22 S :    0.451288
  23 C :   -0.247227
  24 H :    0.212320
  25 H :    0.156699
  26 H :    0.168954
  27 H :    0.188235
  28 H :    0.192629
  29 H :    0.191519
  30 O :   -0.195304
  31 O :   -0.262030
  32 C :    0.146632
  33 C :   -0.387459
  34 H :    0.157948
  35 H :    0.161599
  36 H :    0.144661
  37 H :    0.188160
  38 H :    0.187375

  Mayer bond orders larger than 0.100000
B(  0-Ir,  1-C ) :   0.4918 B(  0-Ir,  2-C ) :   0.5234 B(  0-Ir,  3-C ) :   0.4986
B(  0-Ir,  4-C ) :   0.3956 B(  0-Ir,  5-C ) :   0.4565 B(  0-Ir,  6-N ) :   0.4800
B(  0-Ir, 31-O ) :   0.6715 B(  1-C ,  2-C ) :   1.1132 B(  1-C ,  4-C ) :   1.1970
B(  1-C , 27-H ) :   0.9118 B(  2-C ,  5-C ) :   1.1736 B(  2-C , 28-H ) :   0.9048
B(  3-C ,  4-C ) :   1.1751 B(  3-C ,  5-C ) :   1.1407 B(  3-C , 37-H ) :   0.9010
B(  4-C , 38-H ) :   0.9115 B(  5-C , 29-H ) :   0.9098 B(  6-N ,  7-C ) :   0.8658
B(  6-N , 17-C ) :   1.6624 B(  7-C ,  8-C ) :   0.9799 B(  7-C , 12-C ) :   0.9866
B(  7-C , 13-H ) :   0.8944 B(  8-C ,  9-H ) :   0.9056 B(  8-C , 10-H ) :   0.9180
B(  8-C , 11-H ) :   0.8959 B( 12-C , 14-H ) :   0.9042 B( 12-C , 15-H ) :   0.9115
B( 12-C , 16-H ) :   0.9160 B( 17-C , 18-C ) :   1.0960 B( 17-C , 19-H ) :   0.8768
B( 18-C , 20-C ) :   1.4116 B( 18-C , 22-S ) :   1.1681 B( 20-C , 21-C ) :   1.3119
B( 20-C , 24-H ) :   0.7209 B( 21-C , 23-C ) :   1.5042 B( 21-C , 25-H ) :   0.9054
B( 22-S , 23-C ) :   1.2447 B( 23-C , 26-H ) :   0.8928 B( 24-H , 30-O ) :   0.1027
B( 30-O , 32-C ) :   1.8666 B( 31-O , 32-C ) :   1.1378 B( 32-C , 33-C ) :   0.9310
B( 33-C , 34-H ) :   0.9071 B( 33-C , 35-H ) :   0.9034 B( 33-C , 36-H ) :   0.9106

Dispersion correction           -0.029167220
FINAL SINGLE POINT ENERGY     -1288.357800760802
Dispersion correction            ... done

DIPOLE MOMENT
-------------
                                X             Y             Z
Electronic contribution:     25.83464     -74.19018     110.91242
Nuclear contribution   :    -26.24755      72.48620    -111.19767
                        -----------------------------------------
Total Dipole Moment    :     -0.41291      -1.70399      -0.28525
                        -----------------------------------------
Magnitude (a.u.)       :      1.77635
Magnitude (Debye)      :      4.51513

Rotational constants in cm-1:     0.010518     0.007717     0.007193
Rotational constants in MHz :   315.313396   231.363807   215.635411

                             ****ORCA TERMINATED NORMALLY****
TOTAL RUN TIME: 0 days 0 hours 20 minutes 42 seconds 474 msec
