                         Program Version 5.0.3 -  RELEASE  -
|  1> ! EnGrad PBEh-3c
|  2> %output
|  3> xyzfile=True
|  4> end
|  5> %scf
|  6> maxiter 250
|  7> end
|  8> %output
|  9> Print[P_Hirshfeld] = 1
| 10> end
| 11> % maxcore
| 12> 4000
| 13> *xyz 1 1
| 14> Ir   0.43812849  -0.79493827   0.92914825
| 15> C   -0.04845300  -2.84044097   1.39389120
| 16> C    0.54259056  -2.11463353   2.50341945
| 17> C    2.10455539  -2.32256569   0.87599637
| 18> C    0.92027002  -2.94259534   0.37363888
| 19> C    1.88612669  -1.77620058   2.18534401
| 20> N   -1.05642542  -0.09090999  -0.49249414
| 21> C   -2.45603253  -0.02735713   0.02872761
| 22> C   -2.84392538   1.36882087   0.55873568
| 23> H   -3.89260395   1.29142297   0.85991126
| 24> H   -2.79244220   2.13705695  -0.22648761
| 25> H   -2.22011556   1.67692794   1.40671874
| 26> C   -3.45475671  -0.52192471  -1.01693698
| 27> H   -2.46316292  -0.74410118   0.87860346
| 28> H   -4.40754923  -0.62322584  -0.51730645
| 29> H   -3.62351831   0.19445124  -1.82824536
| 30> H   -3.18317562  -1.49752633  -1.44318514
| 31> C   -0.75591227   0.28613346  -1.68678025
| 32> C    0.56026986   0.24729203  -2.23910191
| 33> H   -1.60744470   0.56466281  -2.36074744
| 34> C    1.82713419   0.39292860  -1.76766094
| 35> C    2.86858870  -0.02662828  -2.58902042
| 36> S    0.70877063   0.08980545  -3.93450099
| 37> C    2.39390849  -0.08703223  -3.84989846
| 38> H    1.87579659   0.63330850  -0.62400380
| 39> H    3.87681339  -0.13373261  -2.25020530
| 40> H    3.01860283  -0.07484069  -4.72122499
| 41> H   -1.05981011  -3.27566931   1.41191287
| 42> H    0.04741496  -1.92730484   3.43715788
| 43> H    2.61297439  -1.28727464   2.83859028
| 44> O    1.99043396   1.98230353   0.51562348
| 45> O    0.25172125   1.06270932   1.68985006
| 46> C    0.99667073   2.03935928   1.40582093
| 47> C    0.80592612   3.37305557   2.02763851
| 48> H    0.82858109   4.16851033   1.27366915
| 49> H    1.67239305   3.58092281   2.65471834
| 50> H   -0.09623418   3.51583158   2.63961220
| 51> H    2.97850265  -2.10860917   0.26061732
| 52> H    0.75556819  -3.39230703  -0.61217095
| 53> *
| 54>
| 55>                          ****END OF INPUT****

CARTESIAN COORDINATES (ANGSTROEM)
---------------------------------
  Ir     0.438128   -0.794938    0.929148
  C     -0.048453   -2.840441    1.393891
  C      0.542591   -2.114634    2.503419
  C      2.104555   -2.322566    0.875996
  C      0.920270   -2.942595    0.373639
  C      1.886127   -1.776201    2.185344
  N     -1.056425   -0.090910   -0.492494
  C     -2.456033   -0.027357    0.028728
  C     -2.843925    1.368821    0.558736
  H     -3.892604    1.291423    0.859911
  H     -2.792442    2.137057   -0.226488
  H     -2.220116    1.676928    1.406719
  C     -3.454757   -0.521925   -1.016937
  H     -2.463163   -0.744101    0.878603
  H     -4.407549   -0.623226   -0.517306
  H     -3.623518    0.194451   -1.828245
  H     -3.183176   -1.497526   -1.443185
  C     -0.755912    0.286133   -1.686780
  C      0.560270    0.247292   -2.239102
  H     -1.607445    0.564663   -2.360747
  C      1.827134    0.392929   -1.767661
  C      2.868589   -0.026628   -2.589020
  S      0.708771    0.089805   -3.934501
  C      2.393908   -0.087032   -3.849898
  H      1.875797    0.633309   -0.624004
  H      3.876813   -0.133733   -2.250205
  H      3.018603   -0.074841   -4.721225
  H     -1.059810   -3.275669    1.411913
  H      0.047415   -1.927305    3.437158
  H      2.612974   -1.287275    2.838590
  O      1.990434    1.982304    0.515623
  O      0.251721    1.062709    1.689850
  C      0.996671    2.039359    1.405821
  C      0.805926    3.373056    2.027639
  H      0.828581    4.168510    1.273669
  H      1.672393    3.580923    2.654718
  H     -0.096234    3.515832    2.639612
  H      2.978503   -2.108609    0.260617
  H      0.755568   -3.392307   -0.612171

 Total Charge           Charge          ....    1
 Multiplicity           Mult            ....    1
 Number of Electrons    NEL             ....  164
 Basis Dimension        Dim             ....  358

ORBITAL ENERGIES
----------------

  NO   OCC          E(Eh)            E(eV)
   0   2.0000     -89.734503     -2441.8000
   1   2.0000     -19.640982      -534.4583
   2   2.0000     -19.551947      -532.0355
   3   2.0000     -14.829164      -403.5221
   4   2.0000     -10.676816      -290.5309
   5   2.0000     -10.672658      -290.4178
   6   2.0000     -10.661924      -290.1257
   7   2.0000     -10.660783      -290.0946
   8   2.0000     -10.654437      -289.9220
   9   2.0000     -10.653502      -289.8965
  10   2.0000     -10.645478      -289.6782
  11   2.0000     -10.621407      -289.0232
  12   2.0000     -10.599603      -288.4299
  13   2.0000     -10.594304      -288.2857
  14   2.0000     -10.571010      -287.6518
  15   2.0000     -10.563986      -287.4607
  16   2.0000     -10.553781      -287.1830
  17   2.0000     -10.547958      -287.0245
  18   2.0000     -10.529853      -286.5319
  19   2.0000      -8.375002      -227.8954
  20   2.0000      -6.265019      -170.4798
  21   2.0000      -6.261623      -170.3874
  22   2.0000      -6.259513      -170.3300
  23   2.0000      -4.048185      -110.1567
  24   2.0000      -2.369592       -64.4799
  25   2.0000      -2.330722       -63.4222
  26   2.0000      -2.330045       -63.4038
  27   2.0000      -1.297821       -35.3155
  28   2.0000      -1.196220       -32.5508
  29   2.0000      -1.188355       -32.3368
  30   2.0000      -1.150316       -31.3017
  31   2.0000      -1.120289       -30.4846
  32   2.0000      -1.014040       -27.5934
  33   2.0000      -1.005350       -27.3570
  34   2.0000      -0.997805       -27.1517
  35   2.0000      -0.962070       -26.1793
  36   2.0000      -0.938786       -25.5457
  37   2.0000      -0.920816       -25.0567
  38   2.0000      -0.892939       -24.2981
  39   2.0000      -0.865788       -23.5593
  40   2.0000      -0.807051       -21.9610
  41   2.0000      -0.804343       -21.8873
  42   2.0000      -0.791471       -21.5370
  43   2.0000      -0.788719       -21.4621
  44   2.0000      -0.765450       -20.8290
  45   2.0000      -0.758302       -20.6345
  46   2.0000      -0.727571       -19.7982
  47   2.0000      -0.704310       -19.1653
  48   2.0000      -0.684270       -18.6199
  49   2.0000      -0.668560       -18.1924
  50   2.0000      -0.663857       -18.0645
  51   2.0000      -0.650288       -17.6952
  52   2.0000      -0.643976       -17.5235
  53   2.0000      -0.638191       -17.3661
  54   2.0000      -0.635232       -17.2856
  55   2.0000      -0.629686       -17.1346
  56   2.0000      -0.626066       -17.0361
  57   2.0000      -0.622708       -16.9447
  58   2.0000      -0.618097       -16.8193
  59   2.0000      -0.605801       -16.4847
  60   2.0000      -0.590608       -16.0713
  61   2.0000      -0.577984       -15.7277
  62   2.0000      -0.569210       -15.4890
  63   2.0000      -0.560273       -15.2458
  64   2.0000      -0.559669       -15.2294
  65   2.0000      -0.550176       -14.9710
  66   2.0000      -0.548040       -14.9129
  67   2.0000      -0.540066       -14.6959
  68   2.0000      -0.536490       -14.5986
  69   2.0000      -0.533132       -14.5073
  70   2.0000      -0.527351       -14.3500
  71   2.0000      -0.513299       -13.9676
  72   2.0000      -0.508176       -13.8282
  73   2.0000      -0.501028       -13.6337
  74   2.0000      -0.480875       -13.0853
  75   2.0000      -0.473801       -12.8928
  76   2.0000      -0.469401       -12.7730
  77   2.0000      -0.449762       -12.2386
  78   2.0000      -0.419586       -11.4175
  79   2.0000      -0.410231       -11.1629
  80   2.0000      -0.399512       -10.8713
  81   2.0000      -0.395140       -10.7523
  82   0.0000      -0.237405        -6.4601
  83   0.0000      -0.170284        -4.6337
  84   0.0000      -0.158389        -4.3100
  85   0.0000      -0.096460        -2.6248
  86   0.0000      -0.089083        -2.4241

MULLIKEN ATOMIC CHARGES
-----------------------
   0 Ir:    0.607131
   1 C :   -0.231005
   2 C :   -0.242545
   3 C :   -0.150926
   4 C :   -0.221487
   5 C :   -0.244089
   6 N :   -0.458612
   7 C :   -0.127254
   8 C :   -0.625004
   9 H :    0.244780
  10 H :    0.231004
  11 H :    0.265745
  12 C :   -0.671429
  13 H :    0.241160
  14 H :    0.266354
  15 H :    0.233595
  16 H :    0.244536
  17 C :    0.067855
  18 C :   -0.181229
  19 H :    0.274228
  20 C :   -0.232106
  21 C :   -0.142879
  22 S :    0.287719
  23 C :   -0.428742
  24 H :    0.289136
  25 H :    0.265508
  26 H :    0.292374
  27 H :    0.304983
  28 H :    0.313895
  29 H :    0.312415
  30 O :   -0.533779
  31 O :   -0.527840
  32 C :    0.606487
  33 C :   -0.750252
  34 H :    0.279068
  35 H :    0.275649
  36 H :    0.237862
  37 H :    0.316493
  38 H :    0.311199
Sum of atomic charges:    1.0000000

LOEWDIN ATOMIC CHARGES
----------------------
   0 Ir:   -0.124065
   1 C :   -0.022851
   2 C :   -0.020166
   3 C :    0.036743
   4 C :   -0.062835
   5 C :   -0.072566
   6 N :   -0.065213
   7 C :   -0.058959
   8 C :   -0.350031
   9 H :    0.146705
  10 H :    0.139242
  11 H :    0.151006
  12 C :   -0.362694
  13 H :    0.138082
  14 H :    0.153452
  15 H :    0.136801
  16 H :    0.140116
  17 C :    0.038780
  18 C :   -0.251662
  19 H :    0.158534
  20 C :   -0.115672
  21 C :   -0.172068
  22 S :    0.448181
  23 C :   -0.246780
  24 H :    0.203474
  25 H :    0.159266
  26 H :    0.166407
  27 H :    0.193977
  28 H :    0.193917
  29 H :    0.201157
  30 O :   -0.375506
  31 O :   -0.175523
  32 C :    0.175919
  33 C :   -0.380414
  34 H :    0.170346
  35 H :    0.171497
  36 H :    0.140797
  37 H :    0.195630
  38 H :    0.196973

  Mayer bond orders larger than 0.100000
B(  0-Ir,  1-C ) :   0.5151 B(  0-Ir,  2-C ) :   0.5943 B(  0-Ir,  3-C ) :   0.4781
B(  0-Ir,  4-C ) :   0.4056 B(  0-Ir,  5-C ) :   0.4560 B(  0-Ir,  6-N ) :   0.4807
B(  0-Ir, 31-O ) :   0.6024 B(  1-C ,  2-C ) :   1.0760 B(  1-C ,  4-C ) :   1.2039
B(  1-C , 27-H ) :   0.8997 B(  2-C ,  5-C ) :   1.1529 B(  2-C , 28-H ) :   0.8951
B(  3-C ,  4-C ) :   1.1677 B(  3-C ,  5-C ) :   1.1581 B(  3-C , 37-H ) :   0.8831
B(  4-C , 38-H ) :   0.8962 B(  5-C , 29-H ) :   0.9012 B(  6-N ,  7-C ) :   0.8774
B(  6-N , 17-C ) :   1.6575 B(  7-C ,  8-C ) :   0.9725 B(  7-C , 12-C ) :   0.9833
B(  7-C , 13-H ) :   0.8958 B(  8-C ,  9-H ) :   0.9052 B(  8-C , 10-H ) :   0.9156
B(  8-C , 11-H ) :   0.9016 B( 12-C , 14-H ) :   0.9034 B( 12-C , 15-H ) :   0.9110
B( 12-C , 16-H ) :   0.9170 B( 17-C , 18-C ) :   1.0917 B( 17-C , 19-H ) :   0.8756
B( 18-C , 20-C ) :   1.3678 B( 18-C , 22-S ) :   1.1282 B( 20-C , 21-C ) :   1.3135
B( 20-C , 24-H ) :   0.7718 B( 21-C , 23-C ) :   1.4555 B( 21-C , 25-H ) :   0.9047
B( 22-S , 23-C ) :   1.2792 B( 23-C , 26-H ) :   0.8945 B( 24-H , 30-O ) :   0.1171
B( 30-O , 32-C ) :   1.6904 B( 31-O , 32-C ) :   1.2826 B( 32-C , 33-C ) :   0.9511
B( 33-C , 34-H ) :   0.8983 B( 33-C , 35-H ) :   0.8938 B( 33-C , 36-H ) :   0.9086

Dispersion correction           -0.029012767
FINAL SINGLE POINT ENERGY     -1288.331670027784
Dispersion correction            ... done

DIPOLE MOMENT
-------------
                                X             Y             Z
Electronic contribution:     20.21010     -78.72021     118.49982
Nuclear contribution   :    -20.96057      76.69226    -118.25148
                        -----------------------------------------
Total Dipole Moment    :     -0.75047      -2.02795       0.24834
                        -----------------------------------------
Magnitude (a.u.)       :      2.17657
Magnitude (Debye)      :      5.53240

Rotational constants in cm-1:     0.010441     0.007611     0.007137
Rotational constants in MHz :   313.024749   228.178764   213.970568

                             ****ORCA TERMINATED NORMALLY****
TOTAL RUN TIME: 0 days 0 hours 20 minutes 34 seconds 214 msec
