                         Program Version 5.0.3 -  RELEASE  -
|  1> ! EnGrad PBEh-3c
|  2> %output
|  3> xyzfile=True
|  4> end
|  5> %scf
|  6> maxiter 250
|  7> end
|  8> %output
|  9> Print[P_Hirshfeld] = 1
| 10> end
| 11> % maxcore
| 12> 4000
| 13> *xyz 1 1
| 14> Ir   0.47028575  -0.76250949   0.88003903
| 15> C   -0.05644914  -2.82816973   1.42424638
| 16> C    0.55358481  -2.11540218   2.51260891
| 17> C    2.06547504  -2.29905351   0.83613377
| 18> C    0.87016436  -2.90679674   0.36731280
| 19> C    1.88224217  -1.78003506   2.15139587
| 20> N   -1.04529166  -0.07063464  -0.48596003
| 21> C   -2.46335856  -0.01165487   0.03129379
| 22> C   -2.85696322   1.37688525   0.53625116
| 23> H   -3.90041679   1.31437019   0.85402400
| 24> H   -2.80073108   2.12611734  -0.25827729
| 25> H   -2.24665985   1.68753764   1.38363996
| 26> C   -3.45172321  -0.52577387  -1.01078738
| 27> H   -2.46826318  -0.70910108   0.87862560
| 28> H   -4.41207353  -0.63064265  -0.51360616
| 29> H   -3.61726638   0.17564692  -1.83204191
| 30> H   -3.17706057  -1.50214023  -1.41686472
| 31> C   -0.75997310   0.27969098  -1.69145818
| 32> C    0.57526147   0.21825988  -2.23878129
| 33> H   -1.60402362   0.55857843  -2.34325213
| 34> C    1.82807277   0.30620562  -1.68294104
| 35> C    2.84471147  -0.05386370  -2.56575980
| 36> S    0.71651481   0.12964149  -3.96756324
| 37> C    2.40838292  -0.05240628  -3.85352145
| 38> H    1.98992453   0.78352141  -0.74043242
| 39> H    3.87199697  -0.11355439  -2.27040709
| 40> H    3.03946578  -0.08166098  -4.72945275
| 41> H   -1.00728618  -3.35182816   1.48706029
| 42> H    0.09905356  -1.96269264   3.47852540
| 43> H    2.63301715  -1.33133746   2.78461372
| 44> O    1.91531478   1.95182800   0.55467573
| 45> O    0.19131046   1.06107612   1.73610099
| 46> C    1.01847501   2.03446007   1.37684096
| 47> C    0.80472639   3.39541272   2.04171203
| 48> H    0.83565290   4.18083966   1.27797963
| 49> H    1.67500207   3.58851540   2.67427898
| 50> H   -0.09380059   3.52386127   2.64580614
| 51> H    2.96807696  -2.18637269   0.25242363
| 52> H    0.70460015  -3.41987110  -0.57028367
| 53> *
| 54>
| 55>                          ****END OF INPUT****

CARTESIAN COORDINATES (ANGSTROEM)
---------------------------------
  Ir     0.470286   -0.762509    0.880039
  C     -0.056449   -2.828170    1.424246
  C      0.553585   -2.115402    2.512609
  C      2.065475   -2.299054    0.836134
  C      0.870164   -2.906797    0.367313
  C      1.882242   -1.780035    2.151396
  N     -1.045292   -0.070635   -0.485960
  C     -2.463359   -0.011655    0.031294
  C     -2.856963    1.376885    0.536251
  H     -3.900417    1.314370    0.854024
  H     -2.800731    2.126117   -0.258277
  H     -2.246660    1.687538    1.383640
  C     -3.451723   -0.525774   -1.010787
  H     -2.468263   -0.709101    0.878626
  H     -4.412074   -0.630643   -0.513606
  H     -3.617266    0.175647   -1.832042
  H     -3.177061   -1.502140   -1.416865
  C     -0.759973    0.279691   -1.691458
  C      0.575261    0.218260   -2.238781
  H     -1.604024    0.558578   -2.343252
  C      1.828073    0.306206   -1.682941
  C      2.844711   -0.053864   -2.565760
  S      0.716515    0.129641   -3.967563
  C      2.408383   -0.052406   -3.853521
  H      1.989925    0.783521   -0.740432
  H      3.871997   -0.113554   -2.270407
  H      3.039466   -0.081661   -4.729453
  H     -1.007286   -3.351828    1.487060
  H      0.099054   -1.962693    3.478525
  H      2.633017   -1.331337    2.784614
  O      1.915315    1.951828    0.554676
  O      0.191310    1.061076    1.736101
  C      1.018475    2.034460    1.376841
  C      0.804726    3.395413    2.041712
  H      0.835653    4.180840    1.277980
  H      1.675002    3.588515    2.674279
  H     -0.093801    3.523861    2.645806
  H      2.968077   -2.186373    0.252424
  H      0.704600   -3.419871   -0.570284

 Total Charge           Charge          ....    1
 Multiplicity           Mult            ....    1
 Number of Electrons    NEL             ....  164
 Basis Dimension        Dim             ....  358

ORBITAL ENERGIES
----------------

  NO   OCC          E(Eh)            E(eV)
   0   2.0000     -89.743865     -2442.0547
   1   2.0000     -19.625033      -534.0243
   2   2.0000     -19.576671      -532.7083
   3   2.0000     -14.828120      -403.4937
   4   2.0000     -10.676102      -290.5115
   5   2.0000     -10.657691      -290.0105
   6   2.0000     -10.657022      -289.9923
   7   2.0000     -10.656456      -289.9769
   8   2.0000     -10.649002      -289.7741
   9   2.0000     -10.638254      -289.4816
  10   2.0000     -10.632969      -289.3378
  11   2.0000     -10.616437      -288.8879
  12   2.0000     -10.610809      -288.7348
  13   2.0000     -10.600999      -288.4678
  14   2.0000     -10.572050      -287.6801
  15   2.0000     -10.568322      -287.5787
  16   2.0000     -10.551340      -287.1166
  17   2.0000     -10.541403      -286.8461
  18   2.0000     -10.528446      -286.4936
  19   2.0000      -8.383363      -228.1229
  20   2.0000      -6.273447      -170.7092
  21   2.0000      -6.270036      -170.6163
  22   2.0000      -6.267815      -170.5559
  23   2.0000      -4.039612      -109.9234
  24   2.0000      -2.360101       -64.2216
  25   2.0000      -2.322260       -63.1919
  26   2.0000      -2.321411       -63.1688
  27   2.0000      -1.287863       -35.0445
  28   2.0000      -1.199821       -32.6488
  29   2.0000      -1.190084       -32.3838
  30   2.0000      -1.184728       -32.2381
  31   2.0000      -1.116270       -30.3752
  32   2.0000      -1.012325       -27.5468
  33   2.0000      -0.996945       -27.1282
  34   2.0000      -0.992219       -26.9997
  35   2.0000      -0.958771       -26.0895
  36   2.0000      -0.949485       -25.8368
  37   2.0000      -0.910519       -24.7765
  38   2.0000      -0.891555       -24.2605
  39   2.0000      -0.862415       -23.4675
  40   2.0000      -0.800195       -21.7744
  41   2.0000      -0.798418       -21.7261
  42   2.0000      -0.789019       -21.4703
  43   2.0000      -0.785260       -21.3680
  44   2.0000      -0.767272       -20.8785
  45   2.0000      -0.739918       -20.1342
  46   2.0000      -0.733218       -19.9519
  47   2.0000      -0.716734       -19.5033
  48   2.0000      -0.682220       -18.5642
  49   2.0000      -0.660666       -17.9776
  50   2.0000      -0.659872       -17.9560
  51   2.0000      -0.654595       -17.8124
  52   2.0000      -0.644311       -17.5326
  53   2.0000      -0.638710       -17.3802
  54   2.0000      -0.629759       -17.1366
  55   2.0000      -0.625495       -17.0206
  56   2.0000      -0.622127       -16.9289
  57   2.0000      -0.619364       -16.8538
  58   2.0000      -0.613360       -16.6904
  59   2.0000      -0.602747       -16.4016
  60   2.0000      -0.588742       -16.0205
  61   2.0000      -0.584127       -15.8949
  62   2.0000      -0.571624       -15.5547
  63   2.0000      -0.563357       -15.3297
  64   2.0000      -0.557925       -15.1819
  65   2.0000      -0.548114       -14.9149
  66   2.0000      -0.543925       -14.8009
  67   2.0000      -0.542205       -14.7541
  68   2.0000      -0.531903       -14.4738
  69   2.0000      -0.527044       -14.3416
  70   2.0000      -0.522520       -14.2185
  71   2.0000      -0.519918       -14.1477
  72   2.0000      -0.511373       -13.9152
  73   2.0000      -0.504618       -13.7314
  74   2.0000      -0.483377       -13.1534
  75   2.0000      -0.478865       -13.0306
  76   2.0000      -0.461427       -12.5561
  77   2.0000      -0.454694       -12.3729
  78   2.0000      -0.430835       -11.7236
  79   2.0000      -0.423630       -11.5276
  80   2.0000      -0.414010       -11.2658
  81   2.0000      -0.396576       -10.7914
  82   0.0000      -0.232467        -6.3258
  83   0.0000      -0.172516        -4.6944
  84   0.0000      -0.150487        -4.0950
  85   0.0000      -0.087311        -2.3758
  86   0.0000      -0.085182        -2.3179

MULLIKEN ATOMIC CHARGES
-----------------------
   0 Ir:    0.616366
   1 C :   -0.221488
   2 C :   -0.226762
   3 C :   -0.169086
   4 C :   -0.237325
   5 C :   -0.240017
   6 N :   -0.464595
   7 C :   -0.123856
   8 C :   -0.628207
   9 H :    0.243680
  10 H :    0.226808
  11 H :    0.273552
  12 C :   -0.673567
  13 H :    0.248078
  14 H :    0.265717
  15 H :    0.231837
  16 H :    0.245679
  17 C :    0.060065
  18 C :   -0.234237
  19 H :    0.274769
  20 C :   -0.270163
  21 C :   -0.150296
  22 S :    0.300621
  23 C :   -0.424172
  24 H :    0.387683
  25 H :    0.262468
  26 H :    0.295356
  27 H :    0.297899
  28 H :    0.307256
  29 H :    0.302642
  30 O :   -0.449732
  31 O :   -0.565003
  32 C :    0.604352
  33 C :   -0.747779
  34 H :    0.265352
  35 H :    0.265471
  36 H :    0.247389
  37 H :    0.304849
  38 H :    0.298397
Sum of atomic charges:    1.0000000

LOEWDIN ATOMIC CHARGES
----------------------
   0 Ir:   -0.127482
   1 C :   -0.010047
   2 C :   -0.014215
   3 C :    0.021559
   4 C :   -0.080773
   5 C :   -0.080675
   6 N :   -0.057638
   7 C :   -0.055354
   8 C :   -0.350935
   9 H :    0.146125
  10 H :    0.137351
  11 H :    0.153486
  12 C :   -0.362587
  13 H :    0.140400
  14 H :    0.154215
  15 H :    0.135518
  16 H :    0.139637
  17 C :    0.032201
  18 C :   -0.224651
  19 H :    0.157138
  20 C :   -0.134438
  21 C :   -0.165306
  22 S :    0.449107
  23 C :   -0.245589
  24 H :    0.206219
  25 H :    0.157293
  26 H :    0.168011
  27 H :    0.189683
  28 H :    0.193059
  29 H :    0.194435
  30 O :   -0.256931
  31 O :   -0.235467
  32 C :    0.160312
  33 C :   -0.384307
  34 H :    0.161922
  35 H :    0.164668
  36 H :    0.143750
  37 H :    0.190073
  38 H :    0.190234

  Mayer bond orders larger than 0.100000
B(  0-Ir,  1-C ) :   0.5007 B(  0-Ir,  2-C ) :   0.5480 B(  0-Ir,  3-C ) :   0.4937
B(  0-Ir,  4-C ) :   0.3987 B(  0-Ir,  5-C ) :   0.4558 B(  0-Ir,  6-N ) :   0.4810
B(  0-Ir, 31-O ) :   0.6499 B(  1-C ,  2-C ) :   1.1001 B(  1-C ,  4-C ) :   1.1988
B(  1-C , 27-H ) :   0.9089 B(  2-C ,  5-C ) :   1.1674 B(  2-C , 28-H ) :   0.9022
B(  3-C ,  4-C ) :   1.1732 B(  3-C ,  5-C ) :   1.1459 B(  3-C , 37-H ) :   0.8955
B(  4-C , 38-H ) :   0.9070 B(  5-C , 29-H ) :   0.9075 B(  6-N ,  7-C ) :   0.8697
B(  6-N , 17-C ) :   1.6616 B(  7-C ,  8-C ) :   0.9777 B(  7-C , 12-C ) :   0.9857
B(  7-C , 13-H ) :   0.8950 B(  8-C ,  9-H ) :   0.9056 B(  8-C , 10-H ) :   0.9173
B(  8-C , 11-H ) :   0.8979 B( 12-C , 14-H ) :   0.9040 B( 12-C , 15-H ) :   0.9114
B( 12-C , 16-H ) :   0.9163 B( 17-C , 18-C ) :   1.0991 B( 17-C , 19-H ) :   0.8767
B( 18-C , 20-C ) :   1.4042 B( 18-C , 22-S ) :   1.1549 B( 20-C , 21-C ) :   1.3219
B( 20-C , 24-H ) :   0.7192 B( 21-C , 23-C ) :   1.4831 B( 21-C , 25-H ) :   0.9059
B( 22-S , 23-C ) :   1.2585 B( 23-C , 26-H ) :   0.8939 B( 24-H , 30-O ) :   0.1217
B( 30-O , 32-C ) :   1.8046 B( 31-O , 32-C ) :   1.1827 B( 32-C , 33-C ) :   0.9381
B( 33-C , 34-H ) :   0.9044 B( 33-C , 35-H ) :   0.9004 B( 33-C , 36-H ) :   0.9101

Dispersion correction           -0.029127675
FINAL SINGLE POINT ENERGY     -1288.368931411563
Dispersion correction            ... done

DIPOLE MOMENT
-------------
                                X             Y             Z
Electronic contribution:     24.08704     -75.60243     113.30397
Nuclear contribution   :    -24.60573      73.79235    -113.38816
                        -----------------------------------------
Total Dipole Moment    :     -0.51869      -1.81009      -0.08419
                        -----------------------------------------
Magnitude (a.u.)       :      1.88482
Magnitude (Debye)      :      4.79083

Rotational constants in cm-1:     0.010495     0.007686     0.007177
Rotational constants in MHz :   314.640524   230.419439   215.161945

                             ****ORCA TERMINATED NORMALLY****
TOTAL RUN TIME: 0 days 0 hours 20 minutes 5 seconds 740 msec
