                         Program Version 5.0.3 -  RELEASE  -
|  1> ! EnGrad PBEh-3c
|  2> %output
|  3> xyzfile=True
|  4> end
|  5> %scf
|  6> maxiter 250
|  7> end
|  8> %output
|  9> Print[P_Hirshfeld] = 1
| 10> end
| 11> % maxcore
| 12> 4000
| 13> *xyz 1 1
| 14> Ir   0.42634488  -0.81714178   0.91281577
| 15> C   -0.05222617  -2.84115411   1.39008007
| 16> C    0.53487865  -2.11901301   2.50725098
| 17> C    2.11269810  -2.29558775   0.87745774
| 18> C    0.93254210  -2.94856294   0.37873750
| 19> C    1.88523053  -1.78817474   2.19834851
| 20> N   -1.04172490  -0.09630281  -0.47804810
| 21> C   -2.44255128  -0.03532634   0.02355116
| 22> C   -2.83650628   1.35420120   0.56115062
| 23> H   -3.88425411   1.28823248   0.86816591
| 24> H   -2.78655905   2.13387260  -0.20925968
| 25> H   -2.21814884   1.66997465   1.40966756
| 26> C   -3.45555862  -0.51965733  -1.01818525
| 27> H   -2.46543625  -0.74561796   0.86646414
| 28> H   -4.41385914  -0.62438934  -0.51811132
| 29> H   -3.62266557   0.19944478  -1.82418032
| 30> H   -3.18682816  -1.48802278  -1.45052549
| 31> C   -0.78047962   0.28409754  -1.67487764
| 32> C    0.55542170   0.27276647  -2.27693564
| 33> H   -1.58661802   0.56265982  -2.35465508
| 34> C    1.82064476   0.41317100  -1.67788975
| 35> C    2.86224601   0.01094454  -2.57910954
| 36> S    0.70169360   0.06762088  -3.95994404
| 37> C    2.38887530  -0.09634901  -3.87642953
| 38> H    1.84545166   0.55270802  -0.62488769
| 39> H    3.89280409  -0.13673531  -2.24768507
| 40> H    3.00915043  -0.08503756  -4.73202484
| 41> H   -1.06892351  -3.23981109   1.37789517
| 42> H    0.02319047  -1.91343834   3.43002019
| 43> H    2.59707544  -1.27461627   2.85053276
| 44> O    1.90797512   1.98491498   0.61175986
| 45> O    0.27770053   1.05734370   1.67882601
| 46> C    1.09711071   2.05890484   1.30934201
| 47> C    0.80018546   3.37198000   2.02925144
| 48> H    0.82418502   4.15643520   1.27149623
| 49> H    1.67177244   3.57751137   2.65106337
| 50> H   -0.09186951   3.50359004   2.63241623
| 51> H    2.98450239  -2.08366223   0.26872102
| 52> H    0.78305979  -3.37523482  -0.61688902
| 53> *
| 54>
| 55>                          ****END OF INPUT****

CARTESIAN COORDINATES (ANGSTROEM)
---------------------------------
  Ir     0.426345   -0.817142    0.912816
  C     -0.052226   -2.841154    1.390080
  C      0.534879   -2.119013    2.507251
  C      2.112698   -2.295588    0.877458
  C      0.932542   -2.948563    0.378738
  C      1.885231   -1.788175    2.198349
  N     -1.041725   -0.096303   -0.478048
  C     -2.442551   -0.035326    0.023551
  C     -2.836506    1.354201    0.561151
  H     -3.884254    1.288232    0.868166
  H     -2.786559    2.133873   -0.209260
  H     -2.218149    1.669975    1.409668
  C     -3.455559   -0.519657   -1.018185
  H     -2.465436   -0.745618    0.866464
  H     -4.413859   -0.624389   -0.518111
  H     -3.622666    0.199445   -1.824180
  H     -3.186828   -1.488023   -1.450525
  C     -0.780480    0.284098   -1.674878
  C      0.555422    0.272766   -2.276936
  H     -1.586618    0.562660   -2.354655
  C      1.820645    0.413171   -1.677890
  C      2.862246    0.010945   -2.579110
  S      0.701694    0.067621   -3.959944
  C      2.388875   -0.096349   -3.876430
  H      1.845452    0.552708   -0.624888
  H      3.892804   -0.136735   -2.247685
  H      3.009150   -0.085038   -4.732025
  H     -1.068924   -3.239811    1.377895
  H      0.023190   -1.913438    3.430020
  H      2.597075   -1.274616    2.850533
  O      1.907975    1.984915    0.611760
  O      0.277701    1.057344    1.678826
  C      1.097111    2.058905    1.309342
  C      0.800185    3.371980    2.029251
  H      0.824185    4.156435    1.271496
  H      1.671772    3.577511    2.651063
  H     -0.091870    3.503590    2.632416
  H      2.984502   -2.083662    0.268721
  H      0.783060   -3.375235   -0.616889

 Total Charge           Charge          ....    1
 Multiplicity           Mult            ....    1
 Number of Electrons    NEL             ....  164
 Basis Dimension        Dim             ....  358

ORBITAL ENERGIES
----------------

  NO   OCC          E(Eh)            E(eV)
   0   2.0000     -89.746582     -2442.1286
   1   2.0000     -19.604390      -533.4626
   2   2.0000     -19.581494      -532.8395
   3   2.0000     -14.832772      -403.6202
   4   2.0000     -10.666225      -290.2427
   5   2.0000     -10.660646      -290.0909
   6   2.0000     -10.656854      -289.9877
   7   2.0000     -10.653235      -289.8893
   8   2.0000     -10.649506      -289.7878
   9   2.0000     -10.646998      -289.7195
  10   2.0000     -10.642362      -289.5934
  11   2.0000     -10.618688      -288.9492
  12   2.0000     -10.611994      -288.7670
  13   2.0000     -10.600019      -288.4412
  14   2.0000     -10.583710      -287.9974
  15   2.0000     -10.580010      -287.8967
  16   2.0000     -10.552936      -287.1600
  17   2.0000     -10.543569      -286.9051
  18   2.0000     -10.518509      -286.2232
  19   2.0000      -8.386512      -228.2086
  20   2.0000      -6.276516      -170.7927
  21   2.0000      -6.273021      -170.6976
  22   2.0000      -6.271262      -170.6497
  23   2.0000      -4.040893      -109.9583
  24   2.0000      -2.361875       -64.2699
  25   2.0000      -2.323983       -63.2388
  26   2.0000      -2.322630       -63.2020
  27   2.0000      -1.359785       -37.0016
  28   2.0000      -1.203368       -32.7453
  29   2.0000      -1.194245       -32.4971
  30   2.0000      -1.182991       -32.1908
  31   2.0000      -1.113379       -30.2966
  32   2.0000      -1.010507       -27.4973
  33   2.0000      -0.998146       -27.1609
  34   2.0000      -0.992594       -27.0098
  35   2.0000      -0.956763       -26.0348
  36   2.0000      -0.948499       -25.8100
  37   2.0000      -0.908029       -24.7087
  38   2.0000      -0.891052       -24.2467
  39   2.0000      -0.864955       -23.5366
  40   2.0000      -0.802028       -21.8243
  41   2.0000      -0.799843       -21.7648
  42   2.0000      -0.792977       -21.5780
  43   2.0000      -0.783386       -21.3170
  44   2.0000      -0.766984       -20.8707
  45   2.0000      -0.740365       -20.1463
  46   2.0000      -0.728868       -19.8335
  47   2.0000      -0.713587       -19.4177
  48   2.0000      -0.685513       -18.6538
  49   2.0000      -0.666763       -18.1436
  50   2.0000      -0.662056       -18.0155
  51   2.0000      -0.659359       -17.9421
  52   2.0000      -0.647741       -17.6259
  53   2.0000      -0.646025       -17.5792
  54   2.0000      -0.642310       -17.4781
  55   2.0000      -0.630017       -17.1436
  56   2.0000      -0.623797       -16.9744
  57   2.0000      -0.623014       -16.9531
  58   2.0000      -0.620699       -16.8901
  59   2.0000      -0.603137       -16.4122
  60   2.0000      -0.593268       -16.1437
  61   2.0000      -0.581324       -15.8186
  62   2.0000      -0.574292       -15.6273
  63   2.0000      -0.565266       -15.3817
  64   2.0000      -0.558163       -15.1884
  65   2.0000      -0.552527       -15.0350
  66   2.0000      -0.544725       -14.8227
  67   2.0000      -0.540629       -14.7113
  68   2.0000      -0.530694       -14.4409
  69   2.0000      -0.529017       -14.3953
  70   2.0000      -0.525876       -14.3098
  71   2.0000      -0.520240       -14.1564
  72   2.0000      -0.515864       -14.0374
  73   2.0000      -0.509971       -13.8770
  74   2.0000      -0.490031       -13.3344
  75   2.0000      -0.473843       -12.8939
  76   2.0000      -0.468868       -12.7586
  77   2.0000      -0.449318       -12.2266
  78   2.0000      -0.428662       -11.6645
  79   2.0000      -0.427467       -11.6320
  80   2.0000      -0.414628       -11.2826
  81   2.0000      -0.397387       -10.8135
  82   0.0000      -0.229901        -6.2559
  83   0.0000      -0.173875        -4.7314
  84   0.0000      -0.146823        -3.9953
  85   0.0000      -0.090555        -2.4641
  86   0.0000      -0.089567        -2.4373

MULLIKEN ATOMIC CHARGES
-----------------------
   0 Ir:    0.569652
   1 C :   -0.241825
   2 C :   -0.238287
   3 C :   -0.182420
   4 C :   -0.217499
   5 C :   -0.217692
   6 N :   -0.456374
   7 C :   -0.130417
   8 C :   -0.630166
   9 H :    0.243441
  10 H :    0.227804
  11 H :    0.276307
  12 C :   -0.672435
  13 H :    0.244455
  14 H :    0.266758
  15 H :    0.233156
  16 H :    0.244521
  17 C :    0.074654
  18 C :   -0.242279
  19 H :    0.276533
  20 C :   -0.166945
  21 C :   -0.182660
  22 S :    0.315242
  23 C :   -0.408309
  24 H :    0.270513
  25 H :    0.261042
  26 H :    0.295726
  27 H :    0.302759
  28 H :    0.314432
  29 H :    0.309517
  30 O :   -0.289574
  31 O :   -0.603053
  32 C :    0.536992
  33 C :   -0.762805
  34 H :    0.253414
  35 H :    0.258007
  36 H :    0.250035
  37 H :    0.310848
  38 H :    0.306930
Sum of atomic charges:    1.0000000

LOEWDIN ATOMIC CHARGES
----------------------
   0 Ir:   -0.150659
   1 C :   -0.031449
   2 C :   -0.015207
   3 C :    0.023785
   4 C :   -0.067045
   5 C :   -0.068284
   6 N :   -0.051040
   7 C :   -0.059460
   8 C :   -0.351601
   9 H :    0.145683
  10 H :    0.137165
  11 H :    0.155175
  12 C :   -0.362192
  13 H :    0.139654
  14 H :    0.154433
  15 H :    0.136185
  16 H :    0.139186
  17 C :    0.036613
  18 C :   -0.245336
  19 H :    0.156461
  20 C :   -0.112795
  21 C :   -0.162747
  22 S :    0.468927
  23 C :   -0.263460
  24 H :    0.177254
  25 H :    0.157589
  26 H :    0.167390
  27 H :    0.191933
  28 H :    0.194846
  29 H :    0.199225
  30 O :   -0.081098
  31 O :   -0.269370
  32 C :    0.058380
  33 C :   -0.392705
  34 H :    0.155217
  35 H :    0.160028
  36 H :    0.143024
  37 H :    0.192417
  38 H :    0.193877

  Mayer bond orders larger than 0.100000
B(  0-Ir,  1-C ) :   0.5073 B(  0-Ir,  2-C ) :   0.5887 B(  0-Ir,  3-C ) :   0.4991
B(  0-Ir,  4-C ) :   0.3968 B(  0-Ir,  5-C ) :   0.4415 B(  0-Ir,  6-N ) :   0.4644
B(  0-Ir, 31-O ) :   0.7185 B(  1-C ,  2-C ) :   1.0710 B(  1-C ,  4-C ) :   1.2201
B(  1-C , 27-H ) :   0.8988 B(  2-C ,  5-C ) :   1.1651 B(  2-C , 28-H ) :   0.8941
B(  3-C ,  4-C ) :   1.1610 B(  3-C ,  5-C ) :   1.1540 B(  3-C , 37-H ) :   0.8868
B(  4-C , 38-H ) :   0.8963 B(  5-C , 29-H ) :   0.9011 B(  6-N ,  7-C ) :   0.8808
B(  6-N , 17-C ) :   1.6828 B(  7-C ,  8-C ) :   0.9731 B(  7-C , 12-C ) :   0.9839
B(  7-C , 13-H ) :   0.8952 B(  8-C ,  9-H ) :   0.9054 B(  8-C , 10-H ) :   0.9165
B(  8-C , 11-H ) :   0.8966 B( 12-C , 14-H ) :   0.9042 B( 12-C , 15-H ) :   0.9115
B( 12-C , 16-H ) :   0.9166 B( 17-C , 18-C ) :   1.0818 B( 17-C , 19-H ) :   0.8746
B( 18-C , 20-C ) :   1.3818 B( 18-C , 22-S ) :   1.1719 B( 20-C , 21-C ) :   1.3207
B( 20-C , 24-H ) :   0.8385 B( 21-C , 23-C ) :   1.4817 B( 21-C , 25-H ) :   0.9058
B( 22-S , 23-C ) :   1.2575 B( 23-C , 26-H ) :   0.8933 B( 30-O , 32-C ) :   2.0668
B( 31-O , 32-C ) :   1.0633 B( 32-C , 33-C ) :   0.9243 B( 33-C , 34-H ) :   0.9092
B( 33-C , 35-H ) :   0.9059 B( 33-C , 36-H ) :   0.9123

Dispersion correction           -0.029237751
FINAL SINGLE POINT ENERGY     -1288.322440644080
Dispersion correction            ... done

DIPOLE MOMENT
-------------
                                X             Y             Z
Electronic contribution:     19.44515     -80.55335     116.40844
Nuclear contribution   :    -19.85831      78.80450    -116.62415
                        -----------------------------------------
Total Dipole Moment    :     -0.41316      -1.74885      -0.21571
                        -----------------------------------------
Magnitude (a.u.)       :      1.80990
Magnitude (Debye)      :      4.60039

Rotational constants in cm-1:     0.010447     0.007599     0.007155
Rotational constants in MHz :   313.189089   227.824585   214.508015

                             ****ORCA TERMINATED NORMALLY****
TOTAL RUN TIME: 0 days 0 hours 13 minutes 13 seconds 507 msec
