                         Program Version 5.0.3 -  RELEASE  -
|  1> ! EnGrad PBEh-3c
|  2> %output
|  3> xyzfile=True
|  4> end
|  5> %scf
|  6> maxiter 250
|  7> end
|  8> %output
|  9> Print[P_Hirshfeld] = 1
| 10> end
| 11> % maxcore
| 12> 4000
| 13> *xyz 1 1
| 14> Ir   0.45848476  -0.77718182   0.88884172
| 15> C   -0.05531500  -2.83165688   1.41507049
| 16> C    0.54856099  -2.11637193   2.51116996
| 17> C    2.07815751  -2.29812273   0.84723195
| 18> C    0.88691685  -2.91801369   0.37038107
| 19> C    1.88304474  -1.78222109   2.16400572
| 20> N   -1.04433375  -0.07752822  -0.48383516
| 21> C   -2.45777044  -0.01801221   0.02921439
| 22> C   -2.85146920   1.37079310   0.54293829
| 23> H   -3.89607606   1.30735051   0.85782202
| 24> H   -2.79692496   2.12820013  -0.24511286
| 25> H   -2.23900278   1.68282083   1.39063007
| 26> C   -3.45275327  -0.52413118  -1.01277419
| 27> H   -2.46750396  -0.71890824   0.87535946
| 28> H   -4.41255308  -0.62896323  -0.51481609
| 29> H   -3.61871642   0.18203820  -1.82993056
| 30> H   -3.17968381  -1.49834878  -1.42590483
| 31> C   -0.76548044   0.28087443  -1.68700523
| 32> C    0.56993320   0.23289846  -2.24902823
| 33> H   -1.59934908   0.55967455  -2.34631457
| 34> C    1.82607786   0.33493281  -1.68158444
| 35> C    2.84942064  -0.03645846  -2.56934507
| 36> S    0.71253435   0.11298491  -3.96551699
| 37> C    2.40314385  -0.06420777  -3.85967377
| 38> H    1.95112414   0.72153295  -0.70940112
| 39> H    3.87758504  -0.11977998  -2.26430475
| 40> H    3.03132413  -0.08256781  -4.73014352
| 41> H   -1.02383982  -3.32174426   1.45774233
| 42> H    0.07867937  -1.94946465   3.46549859
| 43> H    2.62336446  -1.31610412   2.80231728
| 44> O    1.91334360   1.96071402   0.57000654
| 45> O    0.21451183   1.06007372   1.72071892
| 46> C    1.03959383   2.04102509   1.35871309
| 47> C    0.80350686   3.38911950   2.03836555
| 48> H    0.83257302   4.17428547   1.27623842
| 49> H    1.67413470   3.58556010   2.66804407
| 50> H   -0.09328197   3.51841712   2.64221007
| 51> H    2.97248826  -2.15878823   0.25680054
| 52> H    0.72567168  -3.40788334  -0.58280025
| 53> *
| 54>
| 55>                          ****END OF INPUT****

CARTESIAN COORDINATES (ANGSTROEM)
---------------------------------
  Ir     0.458485   -0.777182    0.888842
  C     -0.055315   -2.831657    1.415070
  C      0.548561   -2.116372    2.511170
  C      2.078158   -2.298123    0.847232
  C      0.886917   -2.918014    0.370381
  C      1.883045   -1.782221    2.164006
  N     -1.044334   -0.077528   -0.483835
  C     -2.457770   -0.018012    0.029214
  C     -2.851469    1.370793    0.542938
  H     -3.896076    1.307351    0.857822
  H     -2.796925    2.128200   -0.245113
  H     -2.239003    1.682821    1.390630
  C     -3.452753   -0.524131   -1.012774
  H     -2.467504   -0.718908    0.875359
  H     -4.412553   -0.628963   -0.514816
  H     -3.618716    0.182038   -1.829931
  H     -3.179684   -1.498349   -1.425905
  C     -0.765480    0.280874   -1.687005
  C      0.569933    0.232898   -2.249028
  H     -1.599349    0.559675   -2.346315
  C      1.826078    0.334933   -1.681584
  C      2.849421   -0.036458   -2.569345
  S      0.712534    0.112985   -3.965517
  C      2.403144   -0.064208   -3.859674
  H      1.951124    0.721533   -0.709401
  H      3.877585   -0.119780   -2.264305
  H      3.031324   -0.082568   -4.730144
  H     -1.023840   -3.321744    1.457742
  H      0.078679   -1.949465    3.465499
  H      2.623364   -1.316104    2.802317
  O      1.913344    1.960714    0.570007
  O      0.214512    1.060074    1.720719
  C      1.039594    2.041025    1.358713
  C      0.803507    3.389119    2.038366
  H      0.832573    4.174285    1.276238
  H      1.674135    3.585560    2.668044
  H     -0.093282    3.518417    2.642210
  H      2.972488   -2.158788    0.256801
  H      0.725672   -3.407883   -0.582800

 Total Charge           Charge          ....    1
 Multiplicity           Mult            ....    1
 Number of Electrons    NEL             ....  164
 Basis Dimension        Dim             ....  358

ORBITAL ENERGIES
----------------

  NO   OCC          E(Eh)            E(eV)
   0   2.0000     -89.744322     -2442.0672
   1   2.0000     -19.619546      -533.8750
   2   2.0000     -19.577422      -532.7287
   3   2.0000     -14.829344      -403.5270
   4   2.0000     -10.670557      -290.3606
   5   2.0000     -10.659666      -290.0643
   6   2.0000     -10.658481      -290.0320
   7   2.0000     -10.655858      -289.9606
   8   2.0000     -10.649437      -289.7859
   9   2.0000     -10.640532      -289.5436
  10   2.0000     -10.635647      -289.4107
  11   2.0000     -10.617007      -288.9035
  12   2.0000     -10.610742      -288.7330
  13   2.0000     -10.600578      -288.4564
  14   2.0000     -10.574352      -287.7428
  15   2.0000     -10.571114      -287.6546
  16   2.0000     -10.551746      -287.1276
  17   2.0000     -10.541928      -286.8605
  18   2.0000     -10.525666      -286.4179
  19   2.0000      -8.383942      -228.1387
  20   2.0000      -6.274010      -170.7245
  21   2.0000      -6.270576      -170.6310
  22   2.0000      -6.268471      -170.5738
  23   2.0000      -4.040296      -109.9421
  24   2.0000      -2.360955       -64.2448
  25   2.0000      -2.323022       -63.2126
  26   2.0000      -2.322018       -63.1853
  27   2.0000      -1.301493       -35.4154
  28   2.0000      -1.203859       -32.7587
  29   2.0000      -1.191347       -32.4182
  30   2.0000      -1.185156       -32.2497
  31   2.0000      -1.115459       -30.3532
  32   2.0000      -1.011843       -27.5336
  33   2.0000      -0.997667       -27.1479
  34   2.0000      -0.992694       -27.0126
  35   2.0000      -0.958326       -26.0774
  36   2.0000      -0.949561       -25.8389
  37   2.0000      -0.909651       -24.7529
  38   2.0000      -0.891399       -24.2562
  39   2.0000      -0.863189       -23.4886
  40   2.0000      -0.801091       -21.7988
  41   2.0000      -0.799275       -21.7494
  42   2.0000      -0.790202       -21.5025
  43   2.0000      -0.785321       -21.3697
  44   2.0000      -0.767038       -20.8722
  45   2.0000      -0.740026       -20.1371
  46   2.0000      -0.733551       -19.9609
  47   2.0000      -0.716547       -19.4982
  48   2.0000      -0.683139       -18.5892
  49   2.0000      -0.661194       -17.9920
  50   2.0000      -0.660275       -17.9670
  51   2.0000      -0.656183       -17.8556
  52   2.0000      -0.644702       -17.5432
  53   2.0000      -0.639016       -17.3885
  54   2.0000      -0.631900       -17.1949
  55   2.0000      -0.626921       -17.0594
  56   2.0000      -0.622925       -16.9506
  57   2.0000      -0.620061       -16.8727
  58   2.0000      -0.615632       -16.7522
  59   2.0000      -0.602930       -16.4065
  60   2.0000      -0.589873       -16.0513
  61   2.0000      -0.582749       -15.8574
  62   2.0000      -0.573546       -15.6070
  63   2.0000      -0.564670       -15.3655
  64   2.0000      -0.558285       -15.1917
  65   2.0000      -0.549512       -14.9530
  66   2.0000      -0.544562       -14.8183
  67   2.0000      -0.541567       -14.7368
  68   2.0000      -0.531553       -14.4643
  69   2.0000      -0.526974       -14.3397
  70   2.0000      -0.524595       -14.2750
  71   2.0000      -0.520354       -14.1596
  72   2.0000      -0.512020       -13.9328
  73   2.0000      -0.506301       -13.7772
  74   2.0000      -0.486749       -13.2451
  75   2.0000      -0.477947       -13.0056
  76   2.0000      -0.463469       -12.6116
  77   2.0000      -0.453997       -12.3539
  78   2.0000      -0.430476       -11.7138
  79   2.0000      -0.425436       -11.5767
  80   2.0000      -0.414612       -11.2822
  81   2.0000      -0.397000       -10.8029
  82   0.0000      -0.231926        -6.3110
  83   0.0000      -0.172492        -4.6938
  84   0.0000      -0.148825        -4.0497
  85   0.0000      -0.087632        -2.3846
  86   0.0000      -0.086133        -2.3438

MULLIKEN ATOMIC CHARGES
-----------------------
   0 Ir:    0.603556
   1 C :   -0.225428
   2 C :   -0.229256
   3 C :   -0.171573
   4 C :   -0.232164
   5 C :   -0.234289
   6 N :   -0.462853
   7 C :   -0.125508
   8 C :   -0.628767
   9 H :    0.243586
  10 H :    0.227092
  11 H :    0.274291
  12 C :   -0.673253
  13 H :    0.247042
  14 H :    0.265985
  15 H :    0.232205
  16 H :    0.245331
  17 C :    0.060616
  18 C :   -0.234344
  19 H :    0.275063
  20 C :   -0.244477
  21 C :   -0.156541
  22 S :    0.305329
  23 C :   -0.421976
  24 H :    0.359072
  25 H :    0.261909
  26 H :    0.295622
  27 H :    0.298868
  28 H :    0.309118
  29 H :    0.304558
  30 O :   -0.411657
  31 O :   -0.576277
  32 C :    0.589297
  33 C :   -0.751565
  34 H :    0.262336
  35 H :    0.263611
  36 H :    0.248106
  37 H :    0.306551
  38 H :    0.300785
Sum of atomic charges:    1.0000000

LOEWDIN ATOMIC CHARGES
----------------------
   0 Ir:   -0.131086
   1 C :   -0.014695
   2 C :   -0.013945
   3 C :    0.022932
   4 C :   -0.077489
   5 C :   -0.077342
   6 N :   -0.056317
   7 C :   -0.056439
   8 C :   -0.351127
   9 H :    0.145987
  10 H :    0.137285
  11 H :    0.153933
  12 C :   -0.362476
  13 H :    0.140169
  14 H :    0.154275
  15 H :    0.135701
  16 H :    0.139493
  17 C :    0.033739
  18 C :   -0.230853
  19 H :    0.156825
  20 C :   -0.126179
  21 C :   -0.164634
  22 S :    0.454199
  23 C :   -0.249872
  24 H :    0.194924
  25 H :    0.157289
  26 H :    0.167900
  27 H :    0.189988
  28 H :    0.193489
  29 H :    0.195705
  30 O :   -0.213838
  31 O :   -0.244929
  32 C :    0.134828
  33 C :   -0.386421
  34 H :    0.160198
  35 H :    0.163495
  36 H :    0.143559
  37 H :    0.190600
  38 H :    0.191132

  Mayer bond orders larger than 0.100000
B(  0-Ir,  1-C ) :   0.5034 B(  0-Ir,  2-C ) :   0.5609 B(  0-Ir,  3-C ) :   0.4970
B(  0-Ir,  4-C ) :   0.3979 B(  0-Ir,  5-C ) :   0.4518 B(  0-Ir,  6-N ) :   0.4767
B(  0-Ir, 31-O ) :   0.6685 B(  1-C ,  2-C ) :   1.0907 B(  1-C ,  4-C ) :   1.2055
B(  1-C , 27-H ) :   0.9069 B(  2-C ,  5-C ) :   1.1671 B(  2-C , 28-H ) :   0.9003
B(  3-C ,  4-C ) :   1.1694 B(  3-C ,  5-C ) :   1.1480 B(  3-C , 37-H ) :   0.8932
B(  4-C , 38-H ) :   0.9043 B(  5-C , 29-H ) :   0.9059 B(  6-N ,  7-C ) :   0.8727
B(  6-N , 17-C ) :   1.6675 B(  7-C ,  8-C ) :   0.9765 B(  7-C , 12-C ) :   0.9853
B(  7-C , 13-H ) :   0.8952 B(  8-C ,  9-H ) :   0.9056 B(  8-C , 10-H ) :   0.9171
B(  8-C , 11-H ) :   0.8976 B( 12-C , 14-H ) :   0.9041 B( 12-C , 15-H ) :   0.9114
B( 12-C , 16-H ) :   0.9164 B( 17-C , 18-C ) :   1.0959 B( 17-C , 19-H ) :   0.8762
B( 18-C , 20-C ) :   1.3951 B( 18-C , 22-S ) :   1.1593 B( 20-C , 21-C ) :   1.3246
B( 20-C , 24-H ) :   0.7514 B( 21-C , 23-C ) :   1.4803 B( 21-C , 25-H ) :   0.9061
B( 22-S , 23-C ) :   1.2593 B( 23-C , 26-H ) :   0.8940 B( 24-H , 30-O ) :   0.1081
B( 30-O , 32-C ) :   1.8745 B( 31-O , 32-C ) :   1.1507 B( 32-C , 33-C ) :   0.9349
B( 33-C , 34-H ) :   0.9057 B( 33-C , 35-H ) :   0.9019 B( 33-C , 36-H ) :   0.9108

Dispersion correction           -0.029159503
FINAL SINGLE POINT ENERGY     -1288.369812770668
Dispersion correction            ... done

DIPOLE MOMENT
-------------
                                X             Y             Z
Electronic contribution:     22.83694     -76.94797     114.14458
Nuclear contribution   :    -23.33074      75.13844    -114.25724
                        -----------------------------------------
Total Dipole Moment    :     -0.49380      -1.80953      -0.11266
                        -----------------------------------------
Magnitude (a.u.)       :      1.87908
Magnitude (Debye)      :      4.77624

Rotational constants in cm-1:     0.010484     0.007664     0.007172
Rotational constants in MHz :   314.292326   229.749847   215.006037

                             ****ORCA TERMINATED NORMALLY****
TOTAL RUN TIME: 0 days 0 hours 21 minutes 3 seconds 151 msec
