                         Program Version 5.0.3 -  RELEASE  -
|  1> ! EnGrad PBEh-3c
|  2> %output
|  3> xyzfile=True
|  4> end
|  5> %scf
|  6> maxiter 250
|  7> end
|  8> %output
|  9> Print[P_Hirshfeld] = 1
| 10> end
| 11> % maxcore
| 12> 4000
| 13> *xyz 1 1
| 14> Ir   0.50250480  -0.73205001   0.81635498
| 15> C   -0.06253966  -2.79792847   1.47724976
| 16> C    0.56773274  -2.12371548   2.51230023
| 17> C    1.99794099  -2.25344294   0.78412816
| 18> C    0.79997407  -2.86502939   0.35823879
| 19> C    1.89865702  -1.78938412   2.10530571
| 20> N   -1.02460667  -0.04418786  -0.46160009
| 21> C   -2.46969705   0.00238755   0.04101445
| 22> C   -2.86535616   1.38674222   0.49734887
| 23> H   -3.91277648   1.34954749   0.84507347
| 24> H   -2.81225563   2.10982539  -0.30142969
| 25> H   -2.28675318   1.70728878   1.34504092
| 26> C   -3.43769743  -0.53400305  -1.00898985
| 27> H   -2.47495658  -0.64961843   0.86858015
| 28> H   -4.42538536  -0.64381621  -0.50553820
| 29> H   -3.60669891   0.14441100  -1.83579518
| 30> H   -3.16830227  -1.50465774  -1.37740256
| 31> C   -0.76954385   0.27713979  -1.69307823
| 32> C    0.53438580   0.19116554  -2.29988736
| 33> H   -1.57673105   0.54638531  -2.31336252
| 34> C    1.83587335   0.14414305  -1.54039714
| 35> C    2.82514625  -0.07557750  -2.58464308
| 36> S    0.72847156   0.17388927  -4.01788680
| 37> C    2.43352006  -0.00992972  -3.86564652
| 38> H    2.15873748   1.00957764  -0.83518680
| 39> H    3.87690344  -0.08153653  -2.29442400
| 40> H    3.05952990  -0.09692710  -4.73929056
| 41> H   -0.94288880  -3.44123385   1.58990989
| 42> H    0.17121938  -2.00208369   3.54701568
| 43> H    2.65843166  -1.39330946   2.69975513
| 44> O    1.81902632   1.90234276   0.61069708
| 45> O    0.09873200   1.03423214   1.81249555
| 46> C    1.05666746   2.05362116   1.33209386
| 47> C    0.78809979   3.43440911   2.07224438
| 48> H    0.84329012   4.18682993   1.28798136
| 49> H    1.67681337   3.59551761   2.70460716
| 50> H   -0.08383471   3.53005572   2.65015629
| 51> H    2.95752979  -2.29244616   0.22818044
| 52> H    0.63070642  -3.45009931  -0.51217376
| 53> *
| 54>
| 55>                          ****END OF INPUT****

CARTESIAN COORDINATES (ANGSTROEM)
---------------------------------
  Ir     0.502505   -0.732050    0.816355
  C     -0.062540   -2.797928    1.477250
  C      0.567733   -2.123715    2.512300
  C      1.997941   -2.253443    0.784128
  C      0.799974   -2.865029    0.358239
  C      1.898657   -1.789384    2.105306
  N     -1.024607   -0.044188   -0.461600
  C     -2.469697    0.002388    0.041014
  C     -2.865356    1.386742    0.497349
  H     -3.912776    1.349547    0.845073
  H     -2.812256    2.109825   -0.301430
  H     -2.286753    1.707289    1.345041
  C     -3.437697   -0.534003   -1.008990
  H     -2.474957   -0.649618    0.868580
  H     -4.425385   -0.643816   -0.505538
  H     -3.606699    0.144411   -1.835795
  H     -3.168302   -1.504658   -1.377403
  C     -0.769544    0.277140   -1.693078
  C      0.534386    0.191166   -2.299887
  H     -1.576731    0.546385   -2.313363
  C      1.835873    0.144143   -1.540397
  C      2.825146   -0.075578   -2.584643
  S      0.728472    0.173889   -4.017887
  C      2.433520   -0.009930   -3.865647
  H      2.158737    1.009578   -0.835187
  H      3.876903   -0.081537   -2.294424
  H      3.059530   -0.096927   -4.739291
  H     -0.942889   -3.441234    1.589910
  H      0.171219   -2.002084    3.547016
  H      2.658432   -1.393309    2.699755
  O      1.819026    1.902343    0.610697
  O      0.098732    1.034232    1.812496
  C      1.056667    2.053621    1.332094
  C      0.788100    3.434409    2.072244
  H      0.843290    4.186830    1.287981
  H      1.676813    3.595518    2.704607
  H     -0.083835    3.530056    2.650156
  H      2.957530   -2.292446    0.228180
  H      0.630706   -3.450099   -0.512174

 Total Charge           Charge          ....    1
 Multiplicity           Mult            ....    1
 Number of Electrons    NEL             ....  164
 Basis Dimension        Dim             ....  358

ORBITAL ENERGIES
----------------

  NO   OCC          E(Eh)            E(eV)
   0   2.0000     -89.767949     -2442.7101
   1   2.0000     -19.617708      -533.8250
   2   2.0000     -19.589943      -533.0695
   3   2.0000     -14.831092      -403.5745
   4   2.0000     -10.674342      -290.4636
   5   2.0000     -10.651323      -289.8372
   6   2.0000     -10.640746      -289.5494
   7   2.0000     -10.639315      -289.5105
   8   2.0000     -10.634730      -289.3857
   9   2.0000     -10.630430      -289.2687
  10   2.0000     -10.612083      -288.7695
  11   2.0000     -10.609854      -288.7088
  12   2.0000     -10.609176      -288.6903
  13   2.0000     -10.607845      -288.6541
  14   2.0000     -10.602683      -288.5137
  15   2.0000     -10.585920      -288.0575
  16   2.0000     -10.548060      -287.0273
  17   2.0000     -10.531935      -286.5885
  18   2.0000     -10.528271      -286.4888
  19   2.0000      -8.406438      -228.7508
  20   2.0000      -6.296382      -171.3333
  21   2.0000      -6.292939      -171.2396
  22   2.0000      -6.291226      -171.1930
  23   2.0000      -4.022218      -109.4501
  24   2.0000      -2.341806       -63.7238
  25   2.0000      -2.306301       -62.7576
  26   2.0000      -2.303244       -62.6745
  27   2.0000      -1.385327       -37.6967
  28   2.0000      -1.186398       -32.2835
  29   2.0000      -1.175966       -31.9997
  30   2.0000      -1.144871       -31.1535
  31   2.0000      -1.112280       -30.2667
  32   2.0000      -1.012563       -27.5532
  33   2.0000      -0.981652       -26.7121
  34   2.0000      -0.974996       -26.5310
  35   2.0000      -0.966586       -26.3022
  36   2.0000      -0.947486       -25.7824
  37   2.0000      -0.905519       -24.6404
  38   2.0000      -0.889543       -24.2057
  39   2.0000      -0.864196       -23.5160
  40   2.0000      -0.793208       -21.5843
  41   2.0000      -0.784486       -21.3470
  42   2.0000      -0.779452       -21.2100
  43   2.0000      -0.771211       -20.9857
  44   2.0000      -0.766527       -20.8583
  45   2.0000      -0.749287       -20.3891
  46   2.0000      -0.723555       -19.6889
  47   2.0000      -0.701085       -19.0775
  48   2.0000      -0.679770       -18.4975
  49   2.0000      -0.673978       -18.3399
  50   2.0000      -0.658491       -17.9185
  51   2.0000      -0.654356       -17.8059
  52   2.0000      -0.651691       -17.7334
  53   2.0000      -0.642374       -17.4799
  54   2.0000      -0.635447       -17.2914
  55   2.0000      -0.631125       -17.1738
  56   2.0000      -0.617994       -16.8165
  57   2.0000      -0.603504       -16.4222
  58   2.0000      -0.602528       -16.3956
  59   2.0000      -0.599568       -16.3151
  60   2.0000      -0.590746       -16.0750
  61   2.0000      -0.586180       -15.9508
  62   2.0000      -0.567395       -15.4396
  63   2.0000      -0.560922       -15.2635
  64   2.0000      -0.553989       -15.0748
  65   2.0000      -0.551827       -15.0160
  66   2.0000      -0.538511       -14.6536
  67   2.0000      -0.538104       -14.6426
  68   2.0000      -0.530431       -14.4338
  69   2.0000      -0.527229       -14.3466
  70   2.0000      -0.518942       -14.1211
  71   2.0000      -0.513963       -13.9856
  72   2.0000      -0.510492       -13.8912
  73   2.0000      -0.498219       -13.5572
  74   2.0000      -0.483683       -13.1617
  75   2.0000      -0.467661       -12.7257
  76   2.0000      -0.459741       -12.5102
  77   2.0000      -0.430026       -11.7016
  78   2.0000      -0.428483       -11.6596
  79   2.0000      -0.418592       -11.3905
  80   2.0000      -0.411349       -11.1934
  81   2.0000      -0.393271       -10.7015
  82   0.0000      -0.227888        -6.2011
  83   0.0000      -0.187371        -5.0986
  84   0.0000      -0.136896        -3.7251
  85   0.0000      -0.085735        -2.3330
  86   0.0000      -0.079081        -2.1519

MULLIKEN ATOMIC CHARGES
-----------------------
   0 Ir:    0.627820
   1 C :   -0.222007
   2 C :   -0.223200
   3 C :   -0.238229
   4 C :   -0.243204
   5 C :   -0.201376
   6 N :   -0.472145
   7 C :   -0.115596
   8 C :   -0.638256
   9 H :    0.239014
  10 H :    0.222856
  11 H :    0.286987
  12 C :   -0.679833
  13 H :    0.265290
  14 H :    0.260072
  15 H :    0.232487
  16 H :    0.250979
  17 C :    0.103527
  18 C :   -0.242836
  19 H :    0.271257
  20 C :   -0.327655
  21 C :   -0.155946
  22 S :    0.341182
  23 C :   -0.396187
  24 H :    0.371676
  25 H :    0.263843
  26 H :    0.299329
  27 H :    0.288806
  28 H :    0.297664
  29 H :    0.286828
  30 O :   -0.256262
  31 O :   -0.608674
  32 C :    0.520784
  33 C :   -0.744490
  34 H :    0.247108
  35 H :    0.252933
  36 H :    0.270035
  37 H :    0.285761
  38 H :    0.279656
Sum of atomic charges:    1.0000000

LOEWDIN ATOMIC CHARGES
----------------------
   0 Ir:   -0.178455
   1 C :   -0.010981
   2 C :   -0.017191
   3 C :   -0.012427
   4 C :   -0.099642
   5 C :   -0.086322
   6 N :   -0.032401
   7 C :   -0.049362
   8 C :   -0.353039
   9 H :    0.145168
  10 H :    0.134548
  11 H :    0.157172
  12 C :   -0.362565
  13 H :    0.145860
  14 H :    0.155426
  15 H :    0.134689
  16 H :    0.139178
  17 C :    0.016280
  18 C :   -0.187184
  19 H :    0.151915
  20 C :   -0.184688
  21 C :   -0.144506
  22 S :    0.487204
  23 C :   -0.262380
  24 H :    0.250253
  25 H :    0.157458
  26 H :    0.171623
  27 H :    0.186040
  28 H :    0.192902
  29 H :    0.182984
  30 O :   -0.046423
  31 O :   -0.345355
  32 C :    0.127170
  33 C :   -0.389148
  34 H :    0.151784
  35 H :    0.158807
  36 H :    0.150219
  37 H :    0.184750
  38 H :    0.180638

  Mayer bond orders larger than 0.100000
B(  0-Ir,  1-C ) :   0.4666 B(  0-Ir,  2-C ) :   0.4686 B(  0-Ir,  3-C ) :   0.5039
B(  0-Ir,  4-C ) :   0.3961 B(  0-Ir,  5-C ) :   0.4593 B(  0-Ir,  6-N ) :   0.4808
B(  0-Ir, 20-C ) :   0.1466 B(  0-Ir, 31-O ) :   0.7337 B(  1-C ,  2-C ) :   1.1478
B(  1-C ,  4-C ) :   1.1899 B(  1-C , 27-H ) :   0.9145 B(  2-C ,  5-C ) :   1.1784
B(  2-C , 28-H ) :   0.9071 B(  3-C ,  4-C ) :   1.1746 B(  3-C ,  5-C ) :   1.1338
B(  3-C , 37-H ) :   0.9109 B(  4-C , 38-H ) :   0.9189 B(  5-C , 29-H ) :   0.9149
B(  6-N ,  7-C ) :   0.8587 B(  6-N , 17-C ) :   1.6425 B(  7-C ,  8-C ) :   0.9849
B(  7-C , 12-C ) :   0.9901 B(  7-C , 13-H ) :   0.8918 B(  8-C ,  9-H ) :   0.9074
B(  8-C , 10-H ) :   0.9191 B(  8-C , 11-H ) :   0.8899 B( 12-C , 14-H ) :   0.9070
B( 12-C , 15-H ) :   0.9116 B( 12-C , 16-H ) :   0.9133 B( 17-C , 18-C ) :   1.1142
B( 17-C , 19-H ) :   0.8810 B( 18-C , 20-C ) :   1.3054 B( 18-C , 22-S ) :   1.2367
B( 20-C , 21-C ) :   1.2660 B( 20-C , 24-H ) :   0.7454 B( 21-C , 23-C ) :   1.5526
B( 21-C , 25-H ) :   0.9019 B( 22-S , 23-C ) :   1.1988 B( 23-C , 26-H ) :   0.8895
B( 30-O , 32-C ) :   2.0445 B( 31-O , 32-C ) :   1.0002 B( 32-C , 33-C ) :   0.9209
B( 33-C , 34-H ) :   0.9092 B( 33-C , 35-H ) :   0.9078 B( 33-C , 36-H ) :   0.9059

Dispersion correction           -0.029226638
FINAL SINGLE POINT ENERGY     -1288.255318660276
Dispersion correction            ... done

DIPOLE MOMENT
-------------
                                X             Y             Z
Electronic contribution:     28.35549     -72.19195     106.33039
Nuclear contribution   :    -28.46969      71.01780    -107.21308
                        -----------------------------------------
Total Dipole Moment    :     -0.11420      -1.17415      -0.88270
                        -----------------------------------------
Magnitude (a.u.)       :      1.47337
Magnitude (Debye)      :      3.74502

Rotational constants in cm-1:     0.010558     0.007742     0.007193
Rotational constants in MHz :   316.527539   232.101731   215.652722

                             ****ORCA TERMINATED NORMALLY****
TOTAL RUN TIME: 0 days 0 hours 15 minutes 34 seconds 556 msec
