                         Program Version 5.0.3 -  RELEASE  -
|  1> ! EnGrad PBEh-3c
|  2> %output
|  3> xyzfile=True
|  4> end
|  5> %scf
|  6> maxiter 250
|  7> end
|  8> %output
|  9> Print[P_Hirshfeld] = 1
| 10> end
| 11> % maxcore
| 12> 4000
| 13> *xyz 1 1
| 14> Ir   0.48215728  -0.73923217   0.80380616
| 15> C   -0.07697754  -2.79345822   1.49062025
| 16> C    0.58458158  -2.11010376   2.54188279
| 17> C    1.99783938  -2.23307383   0.74030554
| 18> C    0.77956989  -2.85642148   0.36451177
| 19> C    1.89171859  -1.80475023   2.08953724
| 20> N   -1.01533705  -0.03227603  -0.44642681
| 21> C   -2.44034897   0.00999945   0.01513796
| 22> C   -2.87685546   1.38472949   0.48419314
| 23> H   -3.91372447   1.36663462   0.83779840
| 24> H   -2.81455990   2.10867404  -0.32149502
| 25> H   -2.29615908   1.72335094   1.32939917
| 26> C   -3.44613052  -0.53469938  -0.99467971
| 27> H   -2.47789837  -0.63307592   0.87586850
| 28> H   -4.42464738  -0.65003821  -0.50774987
| 29> H   -3.60016055   0.13183943  -1.83970991
| 30> H   -3.16006041  -1.51102502  -1.36458365
| 31> C   -0.75624007   0.26437634  -1.67146362
| 32> C    0.53407790   0.21389848  -2.29169029
| 33> H   -1.56827933   0.54694539  -2.31380455
| 34> C    1.77625270   0.05113239  -1.62924490
| 35> C    2.83326938  -0.04777524  -2.57301317
| 36> S    0.74777883   0.16914393  -3.99626385
| 37> C    2.43434016  -0.01070567  -3.86838047
| 38> H    2.21554671   1.07792567  -0.82555732
| 39> H    3.88559400  -0.06994005  -2.30978530
| 40> H    3.06097131  -0.10544050  -4.74159566
| 41> H   -0.93248103  -3.44905680   1.62352949
| 42> H    0.20249157  -2.00773017   3.56106468
| 43> H    2.68591910  -1.40293490   2.67536905
| 44> O    1.81385011   1.86576323   0.61935912
| 45> O    0.15301418   1.07233671   1.79428125
| 46> C    0.95102734   2.06250557   1.40608633
| 47> C    0.80313662   3.41954762   2.07035413
| 48> H    0.84203959   4.18335962   1.29560857
| 49> H    1.66926488   3.59656524   2.71663663
| 50> H   -0.08900064   3.52597288   2.65479309
| 51> H    2.94525914  -2.32455559   0.21027558
| 52> H    0.59911020  -3.45897204  -0.50534859
| 53> *
| 54>
| 55>                          ****END OF INPUT****

CARTESIAN COORDINATES (ANGSTROEM)
---------------------------------
  Ir     0.482157   -0.739232    0.803806
  C     -0.076978   -2.793458    1.490620
  C      0.584582   -2.110104    2.541883
  C      1.997839   -2.233074    0.740306
  C      0.779570   -2.856421    0.364512
  C      1.891719   -1.804750    2.089537
  N     -1.015337   -0.032276   -0.446427
  C     -2.440349    0.009999    0.015138
  C     -2.876855    1.384729    0.484193
  H     -3.913724    1.366635    0.837798
  H     -2.814560    2.108674   -0.321495
  H     -2.296159    1.723351    1.329399
  C     -3.446131   -0.534699   -0.994680
  H     -2.477898   -0.633076    0.875868
  H     -4.424647   -0.650038   -0.507750
  H     -3.600161    0.131839   -1.839710
  H     -3.160060   -1.511025   -1.364584
  C     -0.756240    0.264376   -1.671464
  C      0.534078    0.213898   -2.291690
  H     -1.568279    0.546945   -2.313805
  C      1.776253    0.051132   -1.629245
  C      2.833269   -0.047775   -2.573013
  S      0.747779    0.169144   -3.996264
  C      2.434340   -0.010706   -3.868380
  H      2.215547    1.077926   -0.825557
  H      3.885594   -0.069940   -2.309785
  H      3.060971   -0.105441   -4.741596
  H     -0.932481   -3.449057    1.623529
  H      0.202492   -2.007730    3.561065
  H      2.685919   -1.402935    2.675369
  O      1.813850    1.865763    0.619359
  O      0.153014    1.072337    1.794281
  C      0.951027    2.062506    1.406086
  C      0.803137    3.419548    2.070354
  H      0.842040    4.183360    1.295609
  H      1.669265    3.596565    2.716637
  H     -0.089001    3.525973    2.654793
  H      2.945259   -2.324556    0.210276
  H      0.599110   -3.458972   -0.505349

 Total Charge           Charge          ....    1
 Multiplicity           Mult            ....    1
 Number of Electrons    NEL             ....  164
 Basis Dimension        Dim             ....  358

ORBITAL ENERGIES
----------------

  NO   OCC          E(Eh)            E(eV)
   0   2.0000     -89.760855     -2442.5170
   1   2.0000     -19.603076      -533.4268
   2   2.0000     -19.578306      -532.7528
   3   2.0000     -14.832958      -403.6253
   4   2.0000     -10.667539      -290.2785
   5   2.0000     -10.654151      -289.9142
   6   2.0000     -10.643091      -289.6132
   7   2.0000     -10.640591      -289.5452
   8   2.0000     -10.636487      -289.4335
   9   2.0000     -10.625753      -289.1414
  10   2.0000     -10.618329      -288.9394
  11   2.0000     -10.616085      -288.8783
  12   2.0000     -10.609007      -288.6858
  13   2.0000     -10.606243      -288.6105
  14   2.0000     -10.592670      -288.2412
  15   2.0000     -10.581373      -287.9338
  16   2.0000     -10.548588      -287.0417
  17   2.0000     -10.534389      -286.6553
  18   2.0000     -10.528108      -286.4844
  19   2.0000      -8.400105      -228.5785
  20   2.0000      -6.289917      -171.1574
  21   2.0000      -6.286467      -171.0635
  22   2.0000      -6.285139      -171.0273
  23   2.0000      -4.028501      -109.6211
  24   2.0000      -2.348356       -63.9020
  25   2.0000      -2.311268       -62.8928
  26   2.0000      -2.310344       -62.8677
  27   2.0000      -1.300454       -35.3872
  28   2.0000      -1.196813       -32.5669
  29   2.0000      -1.184395       -32.2290
  30   2.0000      -1.173917       -31.9439
  31   2.0000      -1.120775       -30.4979
  32   2.0000      -1.014552       -27.6074
  33   2.0000      -0.981923       -26.7195
  34   2.0000      -0.979288       -26.6478
  35   2.0000      -0.965619       -26.2758
  36   2.0000      -0.948916       -25.8213
  37   2.0000      -0.916533       -24.9401
  38   2.0000      -0.889971       -24.2173
  39   2.0000      -0.866460       -23.5776
  40   2.0000      -0.794438       -21.6178
  41   2.0000      -0.785389       -21.3715
  42   2.0000      -0.784379       -21.3440
  43   2.0000      -0.775864       -21.1123
  44   2.0000      -0.770813       -20.9749
  45   2.0000      -0.731528       -19.9059
  46   2.0000      -0.726794       -19.7771
  47   2.0000      -0.700084       -19.0502
  48   2.0000      -0.681698       -18.5499
  49   2.0000      -0.662693       -18.0328
  50   2.0000      -0.655732       -17.8434
  51   2.0000      -0.646711       -17.5979
  52   2.0000      -0.641833       -17.4652
  53   2.0000      -0.636644       -17.3240
  54   2.0000      -0.632567       -17.2130
  55   2.0000      -0.627117       -17.0647
  56   2.0000      -0.616198       -16.7676
  57   2.0000      -0.607027       -16.5180
  58   2.0000      -0.606920       -16.5151
  59   2.0000      -0.604636       -16.4530
  60   2.0000      -0.591808       -16.1039
  61   2.0000      -0.584124       -15.8948
  62   2.0000      -0.567397       -15.4396
  63   2.0000      -0.557493       -15.1702
  64   2.0000      -0.554746       -15.0954
  65   2.0000      -0.544936       -14.8285
  66   2.0000      -0.541390       -14.7320
  67   2.0000      -0.537987       -14.6394
  68   2.0000      -0.529969       -14.4212
  69   2.0000      -0.519253       -14.1296
  70   2.0000      -0.510760       -13.8985
  71   2.0000      -0.509826       -13.8731
  72   2.0000      -0.503335       -13.6964
  73   2.0000      -0.499760       -13.5992
  74   2.0000      -0.477449       -12.9921
  75   2.0000      -0.469935       -12.7876
  76   2.0000      -0.454906       -12.3786
  77   2.0000      -0.441721       -12.0198
  78   2.0000      -0.426036       -11.5930
  79   2.0000      -0.419824       -11.4240
  80   2.0000      -0.414348       -11.2750
  81   2.0000      -0.396683       -10.7943
  82   0.0000      -0.226001        -6.1498
  83   0.0000      -0.185744        -5.0544
  84   0.0000      -0.147326        -4.0089
  85   0.0000      -0.082451        -2.2436
  86   0.0000      -0.077598        -2.1115

MULLIKEN ATOMIC CHARGES
-----------------------
   0 Ir:    0.652091
   1 C :   -0.241717
   2 C :   -0.210775
   3 C :   -0.237585
   4 C :   -0.237502
   5 C :   -0.189963
   6 N :   -0.487829
   7 C :   -0.126441
   8 C :   -0.636618
   9 H :    0.245483
  10 H :    0.221862
  11 H :    0.276958
  12 C :   -0.673045
  13 H :    0.260474
  14 H :    0.265379
  15 H :    0.229184
  16 H :    0.245896
  17 C :    0.109449
  18 C :   -0.189964
  19 H :    0.271482
  20 C :   -0.342145
  21 C :   -0.153346
  22 S :    0.335330
  23 C :   -0.409190
  24 H :    0.370291
  25 H :    0.269630
  26 H :    0.298922
  27 H :    0.289798
  28 H :    0.298626
  29 H :    0.291935
  30 O :   -0.451068
  31 O :   -0.563724
  32 C :    0.612497
  33 C :   -0.748616
  34 H :    0.259370
  35 H :    0.267123
  36 H :    0.255988
  37 H :    0.288897
  38 H :    0.282865
Sum of atomic charges:    1.0000000

LOEWDIN ATOMIC CHARGES
----------------------
   0 Ir:   -0.157975
   1 C :   -0.016122
   2 C :   -0.011378
   3 C :   -0.003973
   4 C :   -0.092668
   5 C :   -0.080459
   6 N :   -0.030355
   7 C :   -0.059005
   8 C :   -0.353501
   9 H :    0.146623
  10 H :    0.133936
  11 H :    0.152207
  12 C :   -0.360414
  13 H :    0.145487
  14 H :    0.156202
  15 H :    0.133401
  16 H :    0.137672
  17 C :    0.031140
  18 C :   -0.212229
  19 H :    0.153854
  20 C :   -0.203527
  21 C :   -0.155899
  22 S :    0.491340
  23 C :   -0.263198
  24 H :    0.309904
  25 H :    0.158957
  26 H :    0.170736
  27 H :    0.185657
  28 H :    0.192212
  29 H :    0.185315
  30 O :   -0.234988
  31 O :   -0.255827
  32 C :    0.141684
  33 C :   -0.379952
  34 H :    0.160094
  35 H :    0.166645
  36 H :    0.147994
  37 H :    0.188454
  38 H :    0.181954

  Mayer bond orders larger than 0.100000
B(  0-Ir,  1-C ) :   0.4823 B(  0-Ir,  2-C ) :   0.4697 B(  0-Ir,  3-C ) :   0.5223
B(  0-Ir,  4-C ) :   0.4278 B(  0-Ir,  5-C ) :   0.4421 B(  0-Ir,  6-N ) :   0.4861
B(  0-Ir, 20-C ) :   0.1599 B(  0-Ir, 30-O ) :   0.1042 B(  0-Ir, 31-O ) :   0.6230
B(  1-C ,  2-C ) :   1.1433 B(  1-C ,  4-C ) :   1.1854 B(  1-C , 27-H ) :   0.9163
B(  2-C ,  5-C ) :   1.1790 B(  2-C , 28-H ) :   0.9080 B(  3-C ,  4-C ) :   1.1503
B(  3-C ,  5-C ) :   1.1410 B(  3-C , 37-H ) :   0.9159 B(  4-C , 38-H ) :   0.9169
B(  5-C , 29-H ) :   0.9105 B(  6-N ,  7-C ) :   0.8781 B(  6-N , 17-C ) :   1.6232
B(  7-C ,  8-C ) :   0.9803 B(  7-C , 12-C ) :   0.9891 B(  7-C , 13-H ) :   0.8923
B(  8-C ,  9-H ) :   0.9072 B(  8-C , 10-H ) :   0.9191 B(  8-C , 11-H ) :   0.8963
B( 12-C , 14-H ) :   0.9055 B( 12-C , 15-H ) :   0.9125 B( 12-C , 16-H ) :   0.9155
B( 17-C , 18-C ) :   1.1168 B( 17-C , 19-H ) :   0.8808 B( 18-C , 20-C ) :   1.2895
B( 18-C , 22-S ) :   1.2086 B( 20-C , 21-C ) :   1.2918 B( 20-C , 24-H ) :   0.6855
B( 21-C , 23-C ) :   1.5038 B( 21-C , 25-H ) :   0.8997 B( 22-S , 23-C ) :   1.2468
B( 23-C , 26-H ) :   0.8889 B( 30-O , 32-C ) :   1.7689 B( 31-O , 32-C ) :   1.2078
B( 32-C , 33-C ) :   0.9419 B( 33-C , 34-H ) :   0.9061 B( 33-C , 35-H ) :   0.9017
B( 33-C , 36-H ) :   0.9083

Dispersion correction           -0.029393368
FINAL SINGLE POINT ENERGY     -1288.308024239173
Dispersion correction            ... done

DIPOLE MOMENT
-------------
                                X             Y             Z
Electronic contribution:     26.21918     -73.02000     105.26017
Nuclear contribution   :    -26.47475      71.65974    -105.84981
                        -----------------------------------------
Total Dipole Moment    :     -0.25558      -1.36025      -0.58964
                        -----------------------------------------
Magnitude (a.u.)       :      1.50442
Magnitude (Debye)      :      3.82393

Rotational constants in cm-1:     0.010611     0.007777     0.007221
Rotational constants in MHz :   318.110692   233.148123   216.489974

                             ****ORCA TERMINATED NORMALLY****
TOTAL RUN TIME: 0 days 0 hours 20 minutes 29 seconds 183 msec
