                         Program Version 5.0.3 -  RELEASE  -
|  1> ! EnGrad PBEh-3c
|  2> %output
|  3> xyzfile=True
|  4> end
|  5> %scf
|  6> maxiter 250
|  7> end
|  8> %output
|  9> Print[P_Hirshfeld] = 1
| 10> end
| 11> % maxcore
| 12> 4000
| 13> *xyz 1 1
| 14> Ir   0.50795743  -0.72876569   0.82756709
| 15> C   -0.05853192  -2.81526595   1.44732237
| 16> C    0.55368233  -2.12447172   2.50814580
| 17> C    2.02297527  -2.26872406   0.81365066
| 18> C    0.82698548  -2.87182760   0.36065094
| 19> C    1.87874213  -1.78152762   2.12332688
| 20> N   -1.03369159  -0.05455783  -0.47936632
| 21> C   -2.48184803  -0.00024336   0.04378284
| 22> C   -2.86332239   1.37978989   0.51908494
| 23> H   -3.90698732   1.33116049   0.85610921
| 24> H   -2.80748248   2.11120669  -0.27708305
| 25> H   -2.27367036   1.68585156   1.36683375
| 26> C   -3.44414440  -0.52771053  -1.01061581
| 27> H   -2.47445229  -0.67645482   0.86890443
| 28> H   -4.42196908  -0.63637694  -0.50847214
| 29> H   -3.61352229   0.16290051  -1.83193501
| 30> H   -3.17670545  -1.49928028  -1.39526476
| 31> C   -0.77589392   0.27933474  -1.69691947
| 32> C    0.56059530   0.17524814  -2.28414044
| 33> H   -1.59439265   0.54928861  -2.32123807
| 34> C    1.85529654   0.24481683  -1.49939869
| 35> C    2.82558559  -0.09658435  -2.57231297
| 36> S    0.71914518   0.17505178  -4.02073169
| 37> C    2.42490487  -0.01271464  -3.86657184
| 38> H    2.10065401   0.92483784  -0.85805969
| 39> H    3.86518140  -0.09736452  -2.28144168
| 40> H    3.05938027  -0.08752965  -4.73434883
| 41> H   -0.94772852  -3.43029568   1.54542682
| 42> H    0.13263414  -1.99954271   3.51548337
| 43> H    2.63129803  -1.37719067   2.73886782
| 44> O    1.89921672   1.92139044   0.53664449
| 45> O    0.11855188   1.05172009   1.78428723
| 46> C    1.01256375   2.03629416   1.37472379
| 47> C    0.80115326   3.42983958   2.05307877
| 48> H    0.84358219   4.19469517   1.27927034
| 49> H    1.68237891   3.59768228   2.68884164
| 50> H   -0.08644053   3.53049714   2.64722739
| 51> H    2.96436537  -2.25417568   0.26127170
| 52> H    0.67374284  -3.44323178  -0.52402511
| 53> *
| 54>
| 55>                          ****END OF INPUT****

CARTESIAN COORDINATES (ANGSTROEM)
---------------------------------
  Ir     0.507957   -0.728766    0.827567
  C     -0.058532   -2.815266    1.447322
  C      0.553682   -2.124472    2.508146
  C      2.022975   -2.268724    0.813651
  C      0.826985   -2.871828    0.360651
  C      1.878742   -1.781528    2.123327
  N     -1.033692   -0.054558   -0.479366
  C     -2.481848   -0.000243    0.043783
  C     -2.863322    1.379790    0.519085
  H     -3.906987    1.331160    0.856109
  H     -2.807482    2.111207   -0.277083
  H     -2.273670    1.685852    1.366834
  C     -3.444144   -0.527711   -1.010616
  H     -2.474452   -0.676455    0.868904
  H     -4.421969   -0.636377   -0.508472
  H     -3.613522    0.162901   -1.831935
  H     -3.176705   -1.499280   -1.395265
  C     -0.775894    0.279335   -1.696919
  C      0.560595    0.175248   -2.284140
  H     -1.594393    0.549289   -2.321238
  C      1.855297    0.244817   -1.499399
  C      2.825586   -0.096584   -2.572313
  S      0.719145    0.175052   -4.020732
  C      2.424905   -0.012715   -3.866572
  H      2.100654    0.924838   -0.858060
  H      3.865181   -0.097365   -2.281442
  H      3.059380   -0.087530   -4.734349
  H     -0.947729   -3.430296    1.545427
  H      0.132634   -1.999543    3.515483
  H      2.631298   -1.377191    2.738868
  O      1.899217    1.921390    0.536644
  O      0.118552    1.051720    1.784287
  C      1.012564    2.036294    1.374724
  C      0.801153    3.429840    2.053079
  H      0.843582    4.194695    1.279270
  H      1.682379    3.597682    2.688842
  H     -0.086441    3.530497    2.647227
  H      2.964365   -2.254176    0.261272
  H      0.673743   -3.443232   -0.524025

 Total Charge           Charge          ....    1
 Multiplicity           Mult            ....    1
 Number of Electrons    NEL             ....  164
 Basis Dimension        Dim             ....  358

ORBITAL ENERGIES
----------------

  NO   OCC          E(Eh)            E(eV)
   0   2.0000     -89.765312     -2442.6383
   1   2.0000     -19.617290      -533.8136
   2   2.0000     -19.586057      -532.9637
   3   2.0000     -14.830558      -403.5600
   4   2.0000     -10.682214      -290.6778
   5   2.0000     -10.653227      -289.8891
   6   2.0000     -10.646315      -289.7010
   7   2.0000     -10.642038      -289.5846
   8   2.0000     -10.640304      -289.5374
   9   2.0000     -10.638639      -289.4921
  10   2.0000     -10.621172      -289.0168
  11   2.0000     -10.616364      -288.8859
  12   2.0000     -10.612815      -288.7894
  13   2.0000     -10.608518      -288.6724
  14   2.0000     -10.590866      -288.1921
  15   2.0000     -10.584521      -288.0195
  16   2.0000     -10.550552      -287.0951
  17   2.0000     -10.536367      -286.7091
  18   2.0000     -10.530132      -286.5395
  19   2.0000      -8.403570      -228.6728
  20   2.0000      -6.293657      -171.2591
  21   2.0000      -6.290203      -171.1651
  22   2.0000      -6.288086      -171.1075
  23   2.0000      -4.028934      -109.6329
  24   2.0000      -2.348584       -63.9082
  25   2.0000      -2.312243       -62.9193
  26   2.0000      -2.310602       -62.8747
  27   2.0000      -1.272913       -34.6377
  28   2.0000      -1.190457       -32.3940
  29   2.0000      -1.181453       -32.1490
  30   2.0000      -1.176910       -32.0253
  31   2.0000      -1.104438       -30.0533
  32   2.0000      -1.013171       -27.5698
  33   2.0000      -0.988625       -26.9018
  34   2.0000      -0.982688       -26.7403
  35   2.0000      -0.960935       -26.1484
  36   2.0000      -0.948394       -25.8071
  37   2.0000      -0.906020       -24.6540
  38   2.0000      -0.893030       -24.3006
  39   2.0000      -0.861760       -23.4497
  40   2.0000      -0.794268       -21.6131
  41   2.0000      -0.790614       -21.5137
  42   2.0000      -0.788467       -21.4553
  43   2.0000      -0.777939       -21.1688
  44   2.0000      -0.765203       -20.8222
  45   2.0000      -0.754797       -20.5391
  46   2.0000      -0.723217       -19.6797
  47   2.0000      -0.708195       -19.2710
  48   2.0000      -0.681562       -18.5462
  49   2.0000      -0.657919       -17.9029
  50   2.0000      -0.655076       -17.8255
  51   2.0000      -0.649012       -17.6605
  52   2.0000      -0.641802       -17.4643
  53   2.0000      -0.637641       -17.3511
  54   2.0000      -0.623266       -16.9599
  55   2.0000      -0.618262       -16.8238
  56   2.0000      -0.611010       -16.6264
  57   2.0000      -0.610077       -16.6010
  58   2.0000      -0.604425       -16.4472
  59   2.0000      -0.598095       -16.2750
  60   2.0000      -0.595946       -16.2165
  61   2.0000      -0.587999       -16.0003
  62   2.0000      -0.571971       -15.5641
  63   2.0000      -0.557822       -15.1791
  64   2.0000      -0.552010       -15.0209
  65   2.0000      -0.550297       -14.9743
  66   2.0000      -0.539995       -14.6940
  67   2.0000      -0.537630       -14.6297
  68   2.0000      -0.530394       -14.4327
  69   2.0000      -0.528967       -14.3939
  70   2.0000      -0.523379       -14.2419
  71   2.0000      -0.513395       -13.9702
  72   2.0000      -0.508479       -13.8364
  73   2.0000      -0.502802       -13.6819
  74   2.0000      -0.481823       -13.1111
  75   2.0000      -0.474485       -12.9114
  76   2.0000      -0.460484       -12.5304
  77   2.0000      -0.441536       -12.0148
  78   2.0000      -0.426936       -11.6175
  79   2.0000      -0.422400       -11.4941
  80   2.0000      -0.417362       -11.3570
  81   2.0000      -0.393002       -10.6941
  82   0.0000      -0.232120        -6.3163
  83   0.0000      -0.183856        -5.0030
  84   0.0000      -0.147101        -4.0028
  85   0.0000      -0.090480        -2.4621
  86   0.0000      -0.082284        -2.2391

MULLIKEN ATOMIC CHARGES
-----------------------
   0 Ir:    0.632287
   1 C :   -0.214550
   2 C :   -0.225011
   3 C :   -0.205147
   4 C :   -0.246553
   5 C :   -0.224545
   6 N :   -0.463032
   7 C :   -0.117484
   8 C :   -0.633983
   9 H :    0.241869
  10 H :    0.226343
  11 H :    0.281400
  12 C :   -0.679399
  13 H :    0.260181
  14 H :    0.262141
  15 H :    0.233033
  16 H :    0.250680
  17 C :    0.099884
  18 C :   -0.277359
  19 H :    0.271928
  20 C :   -0.314392
  21 C :   -0.173301
  22 S :    0.334302
  23 C :   -0.388970
  24 H :    0.426593
  25 H :    0.260898
  26 H :    0.299216
  27 H :    0.291603
  28 H :    0.300282
  29 H :    0.292571
  30 O :   -0.449594
  31 O :   -0.573196
  32 C :    0.601935
  33 C :   -0.737658
  34 H :    0.262162
  35 H :    0.261240
  36 H :    0.255168
  37 H :    0.293696
  38 H :    0.284763
Sum of atomic charges:    1.0000000

LOEWDIN ATOMIC CHARGES
----------------------
   0 Ir:   -0.152285
   1 C :   -0.007527
   2 C :   -0.017171
   3 C :    0.000837
   4 C :   -0.092852
   5 C :   -0.086973
   6 N :   -0.040680
   7 C :   -0.048074
   8 C :   -0.351686
   9 H :    0.146441
  10 H :    0.136975
  11 H :    0.155641
  12 C :   -0.363025
  13 H :    0.143747
  14 H :    0.155226
  15 H :    0.135443
  16 H :    0.140154
  17 C :    0.018546
  18 C :   -0.177996
  19 H :    0.152196
  20 C :   -0.147857
  21 C :   -0.140312
  22 S :    0.474295
  23 C :   -0.261136
  24 H :    0.203995
  25 H :    0.155274
  26 H :    0.170907
  27 H :    0.186229
  28 H :    0.192088
  29 H :    0.186961
  30 O :   -0.247292
  31 O :   -0.276631
  32 C :    0.200891
  33 C :   -0.383411
  34 H :    0.159419
  35 H :    0.163379
  36 H :    0.146277
  37 H :    0.186746
  38 H :    0.183239

  Mayer bond orders larger than 0.100000
B(  0-Ir,  1-C ) :   0.4636 B(  0-Ir,  2-C ) :   0.4860 B(  0-Ir,  3-C ) :   0.4945
B(  0-Ir,  4-C ) :   0.4033 B(  0-Ir,  5-C ) :   0.4598 B(  0-Ir,  6-N ) :   0.4808
B(  0-Ir, 20-C ) :   0.1356 B(  0-Ir, 31-O ) :   0.6579 B(  1-C ,  2-C ) :   1.1430
B(  1-C ,  4-C ) :   1.1930 B(  1-C , 27-H ) :   0.9140 B(  2-C ,  5-C ) :   1.1716
B(  2-C , 28-H ) :   0.9062 B(  3-C ,  4-C ) :   1.1732 B(  3-C ,  5-C ) :   1.1442
B(  3-C , 37-H ) :   0.9064 B(  4-C , 38-H ) :   0.9173 B(  5-C , 29-H ) :   0.9137
B(  6-N ,  7-C ) :   0.8524 B(  6-N , 17-C ) :   1.6632 B(  7-C ,  8-C ) :   0.9856
B(  7-C , 12-C ) :   0.9900 B(  7-C , 13-H ) :   0.8928 B(  8-C ,  9-H ) :   0.9058
B(  8-C , 10-H ) :   0.9179 B(  8-C , 11-H ) :   0.8934 B( 12-C , 14-H ) :   0.9053
B( 12-C , 15-H ) :   0.9111 B( 12-C , 16-H ) :   0.9138 B( 17-C , 18-C ) :   1.0920
B( 17-C , 19-H ) :   0.8791 B( 18-C , 20-C ) :   1.3640 B( 18-C , 22-S ) :   1.2226
B( 20-C , 21-C ) :   1.2481 B( 20-C , 24-H ) :   0.7164 B( 21-C , 23-C ) :   1.5672
B( 21-C , 25-H ) :   0.9042 B( 22-S , 23-C ) :   1.1859 B( 23-C , 26-H ) :   0.8900
B( 30-O , 31-O ) :   0.1016 B( 30-O , 32-C ) :   1.8004 B( 31-O , 32-C ) :   1.1416
B( 32-C , 33-C ) :   0.9370 B( 33-C , 34-H ) :   0.9050 B( 33-C , 35-H ) :   0.9029
B( 33-C , 36-H ) :   0.9073

Dispersion correction           -0.029234371
FINAL SINGLE POINT ENERGY     -1288.300695226441
Dispersion correction            ... done

DIPOLE MOMENT
-------------
                                X             Y             Z
Electronic contribution:     28.23336     -72.36866     107.82649
Nuclear contribution   :    -28.75443      70.81185    -108.43193
                        -----------------------------------------
Total Dipole Moment    :     -0.52107      -1.55680      -0.60544
                        -----------------------------------------
Magnitude (a.u.)       :      1.74978
Magnitude (Debye)      :      4.44758

Rotational constants in cm-1:     0.010516     0.007725     0.007187
Rotational constants in MHz :   315.257098   231.601642   215.474194

                             ****ORCA TERMINATED NORMALLY****
TOTAL RUN TIME: 0 days 0 hours 19 minutes 20 seconds 804 msec
