                         Program Version 5.0.3 -  RELEASE  -
|  1> ! EnGrad PBEh-3c
|  2> %output
|  3> xyzfile=True
|  4> end
|  5> %scf
|  6> maxiter 250
|  7> end
|  8> %output
|  9> Print[P_Hirshfeld] = 1
| 10> end
| 11> % maxcore
| 12> 4000
| 13> *xyz 1 1
| 14> Ir   0.49064134  -0.73579040   0.81161965
| 15> C   -0.07091193  -2.80062942   1.47638227
| 16> C    0.57442074  -2.11482849   2.53078879
| 17> C    2.00610501  -2.24479698   0.76442419
| 18> C    0.79516193  -2.86148759   0.36324218
| 19> C    1.88745144  -1.79711376   2.10064855
| 20> N   -1.02137271  -0.03960312  -0.45725857
| 21> C   -2.45399543   0.00663122   0.02455748
| 22> C   -2.87240527   1.38310516   0.49566688
| 23> H   -3.91150904   1.35496938   0.84381969
| 24> H   -2.81223257   2.10950687  -0.30689068
| 25> H   -2.28876394   1.71101973   1.34170907
| 26> C   -3.44547741  -0.53240118  -0.99992010
| 27> H   -2.47676517  -0.64734054   0.87357845
| 28> H   -4.42376665  -0.64554587  -0.50798738
| 29> H   -3.60455439   0.14205348  -1.83715323
| 30> H   -3.16553393  -1.50716291  -1.37467276
| 31> C   -0.76270300   0.26929523  -1.67983447
| 32> C    0.54279782   0.20118879  -2.28920761
| 33> H   -1.57686638   0.54771593  -2.31624898
| 34> C    1.80224530   0.11482316  -1.58654655
| 35> C    2.83074266  -0.06382552  -2.57278292
| 36> S    0.73836300   0.17108665  -4.00430980
| 37> C    2.43123748  -0.01136630  -3.86778572
| 38> H    2.17776564   1.02758460  -0.83624533
| 39> H    3.87888157  -0.07895825  -2.30046484
| 40> H    3.06044812  -0.09955074  -4.73921263
| 41> H   -0.93749498  -3.44288743   1.59784638
| 42> H    0.17951981  -2.00503783   3.54607582
| 43> H    2.66795762  -1.39446923   2.69624985
| 44> O    1.84192188   1.88405556   0.59215942
| 45> O    0.14168167   1.06555719   1.79099484
| 46> C    0.97126284   2.05388626   1.39577314
| 47> C    0.80248442   3.42293201   2.06467334
| 48> H    0.84254686   4.18708718   1.29023594
| 49> H    1.67357727   3.59693256   2.70749659
| 50> H   -0.08815878   3.52746063   2.65230520
| 51> H    2.95154199  -2.30141201   0.22704504
| 52> H    0.62365223  -3.45379605  -0.51149014
| 53> *
| 54>
| 55>                          ****END OF INPUT****

CARTESIAN COORDINATES (ANGSTROEM)
---------------------------------
  Ir     0.490641   -0.735790    0.811620
  C     -0.070912   -2.800629    1.476382
  C      0.574421   -2.114828    2.530789
  C      2.006105   -2.244797    0.764424
  C      0.795162   -2.861488    0.363242
  C      1.887451   -1.797114    2.100649
  N     -1.021373   -0.039603   -0.457259
  C     -2.453995    0.006631    0.024557
  C     -2.872405    1.383105    0.495667
  H     -3.911509    1.354969    0.843820
  H     -2.812233    2.109507   -0.306891
  H     -2.288764    1.711020    1.341709
  C     -3.445477   -0.532401   -0.999920
  H     -2.476765   -0.647341    0.873578
  H     -4.423767   -0.645546   -0.507987
  H     -3.604554    0.142053   -1.837153
  H     -3.165534   -1.507163   -1.374673
  C     -0.762703    0.269295   -1.679834
  C      0.542798    0.201189   -2.289208
  H     -1.576866    0.547716   -2.316249
  C      1.802245    0.114823   -1.586547
  C      2.830743   -0.063826   -2.572783
  S      0.738363    0.171087   -4.004310
  C      2.431237   -0.011366   -3.867786
  H      2.177766    1.027585   -0.836245
  H      3.878882   -0.078958   -2.300465
  H      3.060448   -0.099551   -4.739213
  H     -0.937495   -3.442887    1.597846
  H      0.179520   -2.005038    3.546076
  H      2.667958   -1.394469    2.696250
  O      1.841922    1.884056    0.592159
  O      0.141682    1.065557    1.790995
  C      0.971263    2.053886    1.395773
  C      0.802484    3.422932    2.064673
  H      0.842547    4.187087    1.290236
  H      1.673577    3.596933    2.707497
  H     -0.088159    3.527461    2.652305
  H      2.951542   -2.301412    0.227045
  H      0.623652   -3.453796   -0.511490

 Total Charge           Charge          ....    1
 Multiplicity           Mult            ....    1
 Number of Electrons    NEL             ....  164
 Basis Dimension        Dim             ....  358

ORBITAL ENERGIES
----------------

  NO   OCC          E(Eh)            E(eV)
   0   2.0000     -89.762032     -2442.5491
   1   2.0000     -19.608147      -533.5648
   2   2.0000     -19.580723      -532.8186
   3   2.0000     -14.832288      -403.6071
   4   2.0000     -10.672203      -290.4054
   5   2.0000     -10.653893      -289.9072
   6   2.0000     -10.644535      -289.6525
   7   2.0000     -10.640901      -289.5536
   8   2.0000     -10.637358      -289.4572
   9   2.0000     -10.630304      -289.2653
  10   2.0000     -10.619539      -288.9723
  11   2.0000     -10.616428      -288.8877
  12   2.0000     -10.610229      -288.7190
  13   2.0000     -10.606390      -288.6145
  14   2.0000     -10.591296      -288.2038
  15   2.0000     -10.581011      -287.9240
  16   2.0000     -10.549232      -287.0592
  17   2.0000     -10.534979      -286.6714
  18   2.0000     -10.528622      -286.4984
  19   2.0000      -8.400948      -228.6014
  20   2.0000      -6.290861      -171.1830
  21   2.0000      -6.287393      -171.0887
  22   2.0000      -6.285819      -171.0458
  23   2.0000      -4.029122      -109.6380
  24   2.0000      -2.348890       -63.9166
  25   2.0000      -2.312077       -62.9148
  26   2.0000      -2.310865       -62.8818
  27   2.0000      -1.291219       -35.1359
  28   2.0000      -1.194097       -32.4930
  29   2.0000      -1.183675       -32.2094
  30   2.0000      -1.176302       -32.0088
  31   2.0000      -1.114930       -30.3388
  32   2.0000      -1.013921       -27.5902
  33   2.0000      -0.983925       -26.7740
  34   2.0000      -0.981589       -26.7104
  35   2.0000      -0.963334       -26.2136
  36   2.0000      -0.948642       -25.8139
  37   2.0000      -0.912857       -24.8401
  38   2.0000      -0.890927       -24.2434
  39   2.0000      -0.864166       -23.5152
  40   2.0000      -0.793173       -21.5833
  41   2.0000      -0.787458       -21.4278
  42   2.0000      -0.786128       -21.3916
  43   2.0000      -0.776739       -21.1361
  44   2.0000      -0.769592       -20.9417
  45   2.0000      -0.734477       -19.9861
  46   2.0000      -0.726320       -19.7642
  47   2.0000      -0.703266       -19.1368
  48   2.0000      -0.681981       -18.5576
  49   2.0000      -0.660901       -17.9840
  50   2.0000      -0.654689       -17.8150
  51   2.0000      -0.647820       -17.6281
  52   2.0000      -0.640708       -17.4346
  53   2.0000      -0.637869       -17.3573
  54   2.0000      -0.629111       -17.1190
  55   2.0000      -0.624820       -17.0022
  56   2.0000      -0.612565       -16.6687
  57   2.0000      -0.608817       -16.5668
  58   2.0000      -0.608149       -16.5486
  59   2.0000      -0.602434       -16.3931
  60   2.0000      -0.590575       -16.0704
  61   2.0000      -0.584566       -15.9069
  62   2.0000      -0.565194       -15.3797
  63   2.0000      -0.557720       -15.1763
  64   2.0000      -0.554842       -15.0980
  65   2.0000      -0.545856       -14.8535
  66   2.0000      -0.543511       -14.7897
  67   2.0000      -0.537574       -14.6281
  68   2.0000      -0.529639       -14.4122
  69   2.0000      -0.520709       -14.1692
  70   2.0000      -0.518514       -14.1095
  71   2.0000      -0.512476       -13.9452
  72   2.0000      -0.506174       -13.7737
  73   2.0000      -0.503611       -13.7039
  74   2.0000      -0.479899       -13.0587
  75   2.0000      -0.471971       -12.8430
  76   2.0000      -0.457404       -12.4466
  77   2.0000      -0.441967       -12.0265
  78   2.0000      -0.426560       -11.6073
  79   2.0000      -0.421423       -11.4675
  80   2.0000      -0.415995       -11.3198
  81   2.0000      -0.395857       -10.7718
  82   0.0000      -0.228148        -6.2082
  83   0.0000      -0.184511        -5.0208
  84   0.0000      -0.147460        -4.0126
  85   0.0000      -0.082954        -2.2573
  86   0.0000      -0.077802        -2.1171

MULLIKEN ATOMIC CHARGES
-----------------------
   0 Ir:    0.651973
   1 C :   -0.232839
   2 C :   -0.214882
   3 C :   -0.228326
   4 C :   -0.239259
   5 C :   -0.200285
   6 N :   -0.480661
   7 C :   -0.123056
   8 C :   -0.635720
   9 H :    0.244236
  10 H :    0.223311
  11 H :    0.278452
  12 C :   -0.675143
  13 H :    0.260087
  14 H :    0.264346
  15 H :    0.230501
  16 H :    0.247409
  17 C :    0.106899
  18 C :   -0.221544
  19 H :    0.271702
  20 C :   -0.337594
  21 C :   -0.157623
  22 S :    0.335463
  23 C :   -0.401655
  24 H :    0.385047
  25 H :    0.266372
  26 H :    0.298198
  27 H :    0.290564
  28 H :    0.299339
  29 H :    0.292474
  30 O :   -0.451162
  31 O :   -0.568491
  32 C :    0.611717
  33 C :   -0.745127
  34 H :    0.260398
  35 H :    0.265060
  36 H :    0.255635
  37 H :    0.290505
  38 H :    0.283678
Sum of atomic charges:    1.0000000

LOEWDIN ATOMIC CHARGES
----------------------
   0 Ir:   -0.152842
   1 C :   -0.012865
   2 C :   -0.012755
   3 C :   -0.002217
   4 C :   -0.092669
   5 C :   -0.082515
   6 N :   -0.034018
   7 C :   -0.055413
   8 C :   -0.352888
   9 H :    0.146488
  10 H :    0.134950
  11 H :    0.153351
  12 C :   -0.361224
  13 H :    0.144748
  14 H :    0.155900
  15 H :    0.134099
  16 H :    0.138465
  17 C :    0.027264
  18 C :   -0.200975
  19 H :    0.153320
  20 C :   -0.196460
  21 C :   -0.148990
  22 S :    0.485832
  23 C :   -0.262801
  24 H :    0.282171
  25 H :    0.157543
  26 H :    0.170564
  27 H :    0.185921
  28 H :    0.192275
  29 H :    0.186002
  30 O :   -0.240450
  31 O :   -0.263439
  32 C :    0.161815
  33 C :   -0.381282
  34 H :    0.159899
  35 H :    0.165509
  36 H :    0.147324
  37 H :    0.187865
  38 H :    0.182497

  Mayer bond orders larger than 0.100000
B(  0-Ir,  1-C ) :   0.4773 B(  0-Ir,  2-C ) :   0.4764 B(  0-Ir,  3-C ) :   0.5138
B(  0-Ir,  4-C ) :   0.4191 B(  0-Ir,  5-C ) :   0.4476 B(  0-Ir,  6-N ) :   0.4844
B(  0-Ir, 20-C ) :   0.1417 B(  0-Ir, 30-O ) :   0.1004 B(  0-Ir, 31-O ) :   0.6358
B(  1-C ,  2-C ) :   1.1423 B(  1-C ,  4-C ) :   1.1882 B(  1-C , 27-H ) :   0.9155
B(  2-C ,  5-C ) :   1.1768 B(  2-C , 28-H ) :   0.9074 B(  3-C ,  4-C ) :   1.1581
B(  3-C ,  5-C ) :   1.1421 B(  3-C , 37-H ) :   0.9131 B(  4-C , 38-H ) :   0.9170
B(  5-C , 29-H ) :   0.9115 B(  6-N ,  7-C ) :   0.8696 B(  6-N , 17-C ) :   1.6351
B(  7-C ,  8-C ) :   0.9822 B(  7-C , 12-C ) :   0.9896 B(  7-C , 13-H ) :   0.8926
B(  8-C ,  9-H ) :   0.9068 B(  8-C , 10-H ) :   0.9187 B(  8-C , 11-H ) :   0.8953
B( 12-C , 14-H ) :   0.9055 B( 12-C , 15-H ) :   0.9120 B( 12-C , 16-H ) :   0.9150
B( 17-C , 18-C ) :   1.1111 B( 17-C , 19-H ) :   0.8806 B( 18-C , 20-C ) :   1.3127
B( 18-C , 22-S ) :   1.2162 B( 20-C , 21-C ) :   1.2767 B( 20-C , 24-H ) :   0.7096
B( 21-C , 23-C ) :   1.5267 B( 21-C , 25-H ) :   0.9017 B( 22-S , 23-C ) :   1.2248
B( 23-C , 26-H ) :   0.8899 B( 30-O , 32-C ) :   1.7809 B( 31-O , 32-C ) :   1.1840
B( 32-C , 33-C ) :   0.9404 B( 33-C , 34-H ) :   0.9058 B( 33-C , 35-H ) :   0.9021
B( 33-C , 36-H ) :   0.9080

Dispersion correction           -0.029242352
FINAL SINGLE POINT ENERGY     -1288.330386356598
Dispersion correction            ... done

DIPOLE MOMENT
-------------
                                X             Y             Z
Electronic contribution:     26.87344     -72.82362     106.11967
Nuclear contribution   :    -27.22440      71.38092    -106.69891
                        -----------------------------------------
Total Dipole Moment    :     -0.35096      -1.44269      -0.57924
                        -----------------------------------------
Magnitude (a.u.)       :      1.59375
Magnitude (Debye)      :      4.05100

Rotational constants in cm-1:     0.010581     0.007761     0.007211
Rotational constants in MHz :   317.212471   232.669753   216.175916

                             ****ORCA TERMINATED NORMALLY****
TOTAL RUN TIME: 0 days 0 hours 20 minutes 18 seconds 576 msec
