                         Program Version 5.0.3 -  RELEASE  -
|  1> ! EnGrad PBEh-3c
|  2> %output
|  3> xyzfile=True
|  4> end
|  5> %scf
|  6> maxiter 250
|  7> end
|  8> %output
|  9> Print[P_Hirshfeld] = 1
| 10> end
| 11> % maxcore
| 12> 4000
| 13> *xyz 1 1
| 14> Ir   0.50480155  -0.73527992   0.82783492
| 15> C   -0.05822194  -2.82419390   1.43239996
| 16> C    0.54209264  -2.12204611   2.50924132
| 17> C    2.04127673  -2.27189286   0.82562099
| 18> C    0.84799868  -2.87493052   0.36274387
| 19> C    1.86468435  -1.77936761   2.13616743
| 20> N   -1.04004794  -0.05946223  -0.48166082
| 21> C   -2.47707140  -0.00328494   0.03533693
| 22> C   -2.86460110   1.37218405   0.53255709
| 23> H   -3.90304538   1.32121444   0.86430370
| 24> H   -2.80363462   2.11236521  -0.26112340
| 25> H   -2.26467003   1.67313807   1.38123603
| 26> C   -3.45319401  -0.52185836  -1.00785259
| 27> H   -2.47490577  -0.69453289   0.87074984
| 28> H   -4.42017319  -0.63222274  -0.51167290
| 29> H   -3.61722493   0.17485218  -1.82937711
| 30> H   -3.18125726  -1.49573319  -1.40675417
| 31> C   -0.76881909   0.27524085  -1.69921835
| 32> C    0.57258894   0.18301768  -2.25794275
| 33> H   -1.60604129   0.55225782  -2.32938578
| 34> C    1.84530138   0.26992101  -1.53527882
| 35> C    2.82037163  -0.09290147  -2.55240123
| 36> S    0.72042014   0.17140528  -4.00751043
| 37> C    2.41963373  -0.01903432  -3.85799261
| 38> H    2.07042544   0.88657118  -0.85639139
| 39> H    3.86280484  -0.10904278  -2.27586142
| 40> H    3.05942453  -0.08274591  -4.73126304
| 41> H   -0.95295970  -3.42214886   1.51529480
| 42> H    0.10731686  -1.99810378   3.49480303
| 43> H    2.61573076  -1.36455673   2.76556038
| 44> O    1.87751701   1.94021172   0.55707149
| 45> O    0.14194069   1.06005177   1.76206098
| 46> C    1.04624644   2.03202301   1.34094000
| 47> C    0.80986373   3.41996855   2.04311072
| 48> H    0.84346508   4.19764975   1.27284547
| 49> H    1.68474294   3.59906242   2.67858775
| 50> H   -0.08599014   3.52998696   2.64393412
| 51> H    2.97087799  -2.23083833   0.28195150
| 52> H    0.70205451  -3.43909010  -0.53446177
| 53> *
| 54>
| 55>                          ****END OF INPUT****

CARTESIAN COORDINATES (ANGSTROEM)
---------------------------------
  Ir     0.504802   -0.735280    0.827835
  C     -0.058222   -2.824194    1.432400
  C      0.542093   -2.122046    2.509241
  C      2.041277   -2.271893    0.825621
  C      0.847999   -2.874931    0.362744
  C      1.864684   -1.779368    2.136167
  N     -1.040048   -0.059462   -0.481661
  C     -2.477071   -0.003285    0.035337
  C     -2.864601    1.372184    0.532557
  H     -3.903045    1.321214    0.864304
  H     -2.803635    2.112365   -0.261123
  H     -2.264670    1.673138    1.381236
  C     -3.453194   -0.521858   -1.007853
  H     -2.474906   -0.694533    0.870750
  H     -4.420173   -0.632223   -0.511673
  H     -3.617225    0.174852   -1.829377
  H     -3.181257   -1.495733   -1.406754
  C     -0.768819    0.275241   -1.699218
  C      0.572589    0.183018   -2.257943
  H     -1.606041    0.552258   -2.329386
  C      1.845301    0.269921   -1.535279
  C      2.820372   -0.092901   -2.552401
  S      0.720420    0.171405   -4.007510
  C      2.419634   -0.019034   -3.857993
  H      2.070425    0.886571   -0.856391
  H      3.862805   -0.109043   -2.275861
  H      3.059425   -0.082746   -4.731263
  H     -0.952960   -3.422149    1.515295
  H      0.107317   -1.998104    3.494803
  H      2.615731   -1.364557    2.765560
  O      1.877517    1.940212    0.557071
  O      0.141941    1.060052    1.762061
  C      1.046246    2.032023    1.340940
  C      0.809864    3.419969    2.043111
  H      0.843465    4.197650    1.272845
  H      1.684743    3.599062    2.678588
  H     -0.085990    3.529987    2.643934
  H      2.970878   -2.230838    0.281952
  H      0.702055   -3.439090   -0.534462

 Total Charge           Charge          ....    1
 Multiplicity           Mult            ....    1
 Number of Electrons    NEL             ....  164
 Basis Dimension        Dim             ....  358

ORBITAL ENERGIES
----------------

  NO   OCC          E(Eh)            E(eV)
   0   2.0000     -89.762036     -2442.5492
   1   2.0000     -19.610040      -533.6163
   2   2.0000     -19.592062      -533.1271
   3   2.0000     -14.829997      -403.5447
   4   2.0000     -10.673121      -290.4304
   5   2.0000     -10.655292      -289.9452
   6   2.0000     -10.648294      -289.7548
   7   2.0000     -10.641609      -289.5729
   8   2.0000     -10.641009      -289.5566
   9   2.0000     -10.636684      -289.4389
  10   2.0000     -10.623148      -289.0706
  11   2.0000     -10.619342      -288.9670
  12   2.0000     -10.612917      -288.7921
  13   2.0000     -10.610490      -288.7261
  14   2.0000     -10.587289      -288.0948
  15   2.0000     -10.583514      -287.9921
  16   2.0000     -10.549841      -287.0758
  17   2.0000     -10.535758      -286.6925
  18   2.0000     -10.525316      -286.4084
  19   2.0000      -8.400420      -228.5870
  20   2.0000      -6.290538      -171.1742
  21   2.0000      -6.287075      -171.0800
  22   2.0000      -6.284869      -171.0200
  23   2.0000      -4.029785      -109.6560
  24   2.0000      -2.349543       -63.9343
  25   2.0000      -2.313312       -62.9484
  26   2.0000      -2.311198       -62.8909
  27   2.0000      -1.316589       -35.8262
  28   2.0000      -1.192075       -32.4380
  29   2.0000      -1.182291       -32.1718
  30   2.0000      -1.178765       -32.0758
  31   2.0000      -1.108807       -30.1722
  32   2.0000      -1.012637       -27.5553
  33   2.0000      -0.989156       -26.9163
  34   2.0000      -0.985027       -26.8039
  35   2.0000      -0.964146       -26.2358
  36   2.0000      -0.952580       -25.9210
  37   2.0000      -0.899041       -24.4641
  38   2.0000      -0.891653       -24.2631
  39   2.0000      -0.861885       -23.4531
  40   2.0000      -0.794222       -21.6119
  41   2.0000      -0.792442       -21.5634
  42   2.0000      -0.790728       -21.5168
  43   2.0000      -0.780169       -21.2295
  44   2.0000      -0.767235       -20.8775
  45   2.0000      -0.757569       -20.6145
  46   2.0000      -0.723599       -19.6901
  47   2.0000      -0.709741       -19.3130
  48   2.0000      -0.680419       -18.5151
  49   2.0000      -0.661729       -18.0066
  50   2.0000      -0.655272       -17.8309
  51   2.0000      -0.651155       -17.7188
  52   2.0000      -0.642341       -17.4790
  53   2.0000      -0.640321       -17.4240
  54   2.0000      -0.629317       -17.1246
  55   2.0000      -0.626302       -17.0426
  56   2.0000      -0.613948       -16.7064
  57   2.0000      -0.612262       -16.6605
  58   2.0000      -0.611865       -16.6497
  59   2.0000      -0.602611       -16.3979
  60   2.0000      -0.597984       -16.2720
  61   2.0000      -0.588291       -16.0082
  62   2.0000      -0.571743       -15.5579
  63   2.0000      -0.561115       -15.2687
  64   2.0000      -0.555475       -15.1152
  65   2.0000      -0.549983       -14.9658
  66   2.0000      -0.541676       -14.7398
  67   2.0000      -0.536438       -14.5972
  68   2.0000      -0.531868       -14.4729
  69   2.0000      -0.527552       -14.3554
  70   2.0000      -0.521124       -14.1805
  71   2.0000      -0.515589       -14.0299
  72   2.0000      -0.510798       -13.8995
  73   2.0000      -0.503153       -13.6915
  74   2.0000      -0.487584       -13.2678
  75   2.0000      -0.474928       -12.9235
  76   2.0000      -0.460943       -12.5429
  77   2.0000      -0.441727       -12.0200
  78   2.0000      -0.427609       -11.6358
  79   2.0000      -0.423750       -11.5308
  80   2.0000      -0.417684       -11.3658
  81   2.0000      -0.395896       -10.7729
  82   0.0000      -0.232000        -6.3130
  83   0.0000      -0.182708        -4.9717
  84   0.0000      -0.146976        -3.9994
  85   0.0000      -0.090811        -2.4711
  86   0.0000      -0.082365        -2.2413

MULLIKEN ATOMIC CHARGES
-----------------------
   0 Ir:    0.615055
   1 C :   -0.210427
   2 C :   -0.219197
   3 C :   -0.190775
   4 C :   -0.254373
   5 C :   -0.235452
   6 N :   -0.461961
   7 C :   -0.118830
   8 C :   -0.631543
   9 H :    0.242820
  10 H :    0.223864
  11 H :    0.281951
  12 C :   -0.676695
  13 H :    0.254680
  14 H :    0.265499
  15 H :    0.230695
  16 H :    0.247503
  17 C :    0.089428
  18 C :   -0.280697
  19 H :    0.273691
  20 C :   -0.295101
  21 C :   -0.177496
  22 S :    0.326394
  23 C :   -0.392123
  24 H :    0.426886
  25 H :    0.260521
  26 H :    0.299812
  27 H :    0.292213
  28 H :    0.301109
  29 H :    0.294020
  30 O :   -0.370471
  31 O :   -0.582466
  32 C :    0.573566
  33 C :   -0.745812
  34 H :    0.253956
  35 H :    0.256714
  36 H :    0.251958
  37 H :    0.294615
  38 H :    0.286469
Sum of atomic charges:    1.0000000

LOEWDIN ATOMIC CHARGES
----------------------
   0 Ir:   -0.151308
   1 C :   -0.004210
   2 C :   -0.013396
   3 C :    0.003981
   4 C :   -0.094222
   5 C :   -0.087578
   6 N :   -0.043931
   7 C :   -0.051205
   8 C :   -0.351499
   9 H :    0.145999
  10 H :    0.136207
  11 H :    0.156550
  12 C :   -0.362703
  13 H :    0.142539
  14 H :    0.155255
  15 H :    0.134601
  16 H :    0.139668
  17 C :    0.020238
  18 C :   -0.183551
  19 H :    0.154713
  20 C :   -0.138263
  21 C :   -0.145078
  22 S :    0.466371
  23 C :   -0.256213
  24 H :    0.192323
  25 H :    0.155200
  26 H :    0.171462
  27 H :    0.186169
  28 H :    0.191434
  29 H :    0.188226
  30 O :   -0.161118
  31 O :   -0.284697
  32 C :    0.149921
  33 C :   -0.390404
  34 H :    0.154805
  35 H :    0.158940
  36 H :    0.144772
  37 H :    0.185991
  38 H :    0.184011

  Mayer bond orders larger than 0.100000
B(  0-Ir,  1-C ) :   0.4671 B(  0-Ir,  2-C ) :   0.4991 B(  0-Ir,  3-C ) :   0.4984
B(  0-Ir,  4-C ) :   0.3964 B(  0-Ir,  5-C ) :   0.4565 B(  0-Ir,  6-N ) :   0.4791
B(  0-Ir, 20-C ) :   0.1144 B(  0-Ir, 31-O ) :   0.6866 B(  1-C ,  2-C ) :   1.1320
B(  1-C ,  4-C ) :   1.2018 B(  1-C , 27-H ) :   0.9141 B(  2-C ,  5-C ) :   1.1739
B(  2-C , 28-H ) :   0.9069 B(  3-C ,  4-C ) :   1.1717 B(  3-C ,  5-C ) :   1.1445
B(  3-C , 37-H ) :   0.9052 B(  4-C , 38-H ) :   0.9159 B(  5-C , 29-H ) :   0.9125
B(  6-N ,  7-C ) :   0.8593 B(  6-N , 17-C ) :   1.6604 B(  7-C ,  8-C ) :   0.9830
B(  7-C , 12-C ) :   0.9881 B(  7-C , 13-H ) :   0.8937 B(  8-C ,  9-H ) :   0.9052
B(  8-C , 10-H ) :   0.9184 B(  8-C , 11-H ) :   0.8933 B( 12-C , 14-H ) :   0.9040
B( 12-C , 15-H ) :   0.9114 B( 12-C , 16-H ) :   0.9154 B( 17-C , 18-C ) :   1.0921
B( 17-C , 19-H ) :   0.8780 B( 18-C , 20-C ) :   1.3966 B( 18-C , 22-S ) :   1.2012
B( 20-C , 21-C ) :   1.2733 B( 20-C , 24-H ) :   0.7227 B( 21-C , 23-C ) :   1.5466
B( 21-C , 25-H ) :   0.9052 B( 22-S , 23-C ) :   1.2059 B( 23-C , 26-H ) :   0.8898
B( 30-O , 32-C ) :   1.9119 B( 31-O , 32-C ) :   1.1019 B( 32-C , 33-C ) :   0.9254
B( 33-C , 34-H ) :   0.9088 B( 33-C , 35-H ) :   0.9057 B( 33-C , 36-H ) :   0.9108

Dispersion correction           -0.029250219
FINAL SINGLE POINT ENERGY     -1288.307644942871
Dispersion correction            ... done

DIPOLE MOMENT
-------------
                                X             Y             Z
Electronic contribution:     27.95551     -73.10810     107.77122
Nuclear contribution   :    -28.34521      71.48219    -108.38189
                        -----------------------------------------
Total Dipole Moment    :     -0.38970      -1.62591      -0.61067
                        -----------------------------------------
Magnitude (a.u.)       :      1.77999
Magnitude (Debye)      :      4.52437

Rotational constants in cm-1:     0.010513     0.007743     0.007212
Rotational constants in MHz :   315.185218   232.116117   216.212096

                             ****ORCA TERMINATED NORMALLY****
TOTAL RUN TIME: 0 days 0 hours 19 minutes 25 seconds 664 msec
