                         Program Version 5.0.3 -  RELEASE  -
|  1> ! EnGrad PBEh-3c
|  2> %output
|  3> xyzfile=True
|  4> end
|  5> %scf
|  6> maxiter 250
|  7> end
|  8> %output
|  9> Print[P_Hirshfeld] = 1
| 10> end
| 11> % maxcore
| 12> 4000
| 13> *xyz 1 1
| 14> Ir   0.49542830  -0.73561782   0.81710134
| 15> C   -0.06662199  -2.80859555   1.46151375
| 16> C    0.56349200  -2.11726846   2.52350452
| 17> C    2.01799505  -2.25395693   0.78511219
| 18> C    0.81302376  -2.86603207   0.36307372
| 19> C    1.87975487  -1.79111455   2.11265595
| 20> N   -1.02768600  -0.04631663  -0.46550792
| 21> C   -2.46179642   0.00327900   0.02820155
| 22> C   -2.86976702   1.37941321   0.50813787
| 23> H   -3.90864784   1.34355830   0.85074445
| 24> H   -2.80932598   2.11047315  -0.29141874
| 25> H   -2.28061883   1.69821357   1.35507143
| 26> C   -3.44808606  -0.52883711  -1.00260174
| 27> H   -2.47613659  -0.66329424   0.87262222
| 28> H   -4.42255186  -0.64104189  -0.50923329
| 29> H   -3.60883776   0.15314131  -1.83452446
| 30> H   -3.17084931  -1.50329902  -1.38551810
| 31> C   -0.76477059   0.27130518  -1.68638732
| 32> C    0.55286891   0.19504592  -2.27863831
| 33> H   -1.58672915   0.54925134  -2.32068996
| 34> C    1.81680070   0.16725504  -1.56921515
| 35> C    2.82723666  -0.07365485  -2.56589275
| 36> S    0.73229729   0.17119437  -4.00539180
| 37> C    2.42731475  -0.01395852  -3.86447510
| 38> H    2.14147856   0.97991405  -0.84305585
| 39> H    3.87344672  -0.08912853  -2.29214749
| 40> H    3.06010209  -0.09386975  -4.73652521
| 41> H   -0.94272293  -3.43587662   1.56993925
| 42> H    0.15511111  -2.00269372   3.52874270
| 43> H    2.65030198  -1.38435710   2.71968075
| 44> O    1.85395506   1.90303953   0.58029771
| 45> O    0.14176924   1.06369604   1.78121355
| 46> C    0.99661156   2.04649524   1.37723642
| 47> C    0.80497904   3.42193019   2.05738395
| 48> H    0.84285727   4.19065793   1.28435697
| 49> H    1.67735190   3.59765258   2.69772376
| 50> H   -0.08742566   3.52831467   2.64947530
| 51> H    2.95807866  -2.27755410   0.24560654
| 52> H    0.65015666  -3.44882460  -0.51925585
| 53> *
| 54>
| 55>                          ****END OF INPUT****

CARTESIAN COORDINATES (ANGSTROEM)
---------------------------------
  Ir     0.495428   -0.735618    0.817101
  C     -0.066622   -2.808596    1.461514
  C      0.563492   -2.117268    2.523505
  C      2.017995   -2.253957    0.785112
  C      0.813024   -2.866032    0.363074
  C      1.879755   -1.791115    2.112656
  N     -1.027686   -0.046317   -0.465508
  C     -2.461796    0.003279    0.028202
  C     -2.869767    1.379413    0.508138
  H     -3.908648    1.343558    0.850744
  H     -2.809326    2.110473   -0.291419
  H     -2.280619    1.698214    1.355071
  C     -3.448086   -0.528837   -1.002602
  H     -2.476137   -0.663294    0.872622
  H     -4.422552   -0.641042   -0.509233
  H     -3.608838    0.153141   -1.834524
  H     -3.170849   -1.503299   -1.385518
  C     -0.764771    0.271305   -1.686387
  C      0.552869    0.195046   -2.278638
  H     -1.586729    0.549251   -2.320690
  C      1.816801    0.167255   -1.569215
  C      2.827237   -0.073655   -2.565893
  S      0.732297    0.171194   -4.005392
  C      2.427315   -0.013959   -3.864475
  H      2.141479    0.979914   -0.843056
  H      3.873447   -0.089129   -2.292147
  H      3.060102   -0.093870   -4.736525
  H     -0.942723   -3.435877    1.569939
  H      0.155111   -2.002694    3.528743
  H      2.650302   -1.384357    2.719681
  O      1.853955    1.903040    0.580298
  O      0.141769    1.063696    1.781214
  C      0.996612    2.046495    1.377236
  C      0.804979    3.421930    2.057384
  H      0.842857    4.190658    1.284357
  H      1.677352    3.597653    2.697724
  H     -0.087426    3.528315    2.649475
  H      2.958079   -2.277554    0.245607
  H      0.650157   -3.448825   -0.519256

 Total Charge           Charge          ....    1
 Multiplicity           Mult            ....    1
 Number of Electrons    NEL             ....  164
 Basis Dimension        Dim             ....  358

ORBITAL ENERGIES
----------------

  NO   OCC          E(Eh)            E(eV)
   0   2.0000     -89.762089     -2442.5506
   1   2.0000     -19.608601      -533.5772
   2   2.0000     -19.584019      -532.9083
   3   2.0000     -14.831651      -403.5897
   4   2.0000     -10.671993      -290.3997
   5   2.0000     -10.654464      -289.9227
   6   2.0000     -10.645965      -289.6914
   7   2.0000     -10.641259      -289.5634
   8   2.0000     -10.638612      -289.4914
   9   2.0000     -10.632367      -289.3214
  10   2.0000     -10.620817      -289.0071
  11   2.0000     -10.617492      -288.9166
  12   2.0000     -10.611172      -288.7447
  13   2.0000     -10.607688      -288.6499
  14   2.0000     -10.589410      -288.1525
  15   2.0000     -10.581269      -287.9310
  16   2.0000     -10.549488      -287.0662
  17   2.0000     -10.535208      -286.6776
  18   2.0000     -10.527314      -286.4628
  19   2.0000      -8.400826      -228.5981
  20   2.0000      -6.290813      -171.1817
  21   2.0000      -6.287343      -171.0873
  22   2.0000      -6.285550      -171.0385
  23   2.0000      -4.029542      -109.6494
  24   2.0000      -2.349300       -63.9277
  25   2.0000      -2.312696       -62.9317
  26   2.0000      -2.311147       -62.8895
  27   2.0000      -1.298273       -35.3278
  28   2.0000      -1.193168       -32.4677
  29   2.0000      -1.184226       -32.2244
  30   2.0000      -1.177755       -32.0483
  31   2.0000      -1.112975       -30.2856
  32   2.0000      -1.013559       -27.5803
  33   2.0000      -0.985824       -26.8256
  34   2.0000      -0.983174       -26.7535
  35   2.0000      -0.962303       -26.1856
  36   2.0000      -0.950829       -25.8734
  37   2.0000      -0.907884       -24.7048
  38   2.0000      -0.891223       -24.2514
  39   2.0000      -0.863132       -23.4870
  40   2.0000      -0.792534       -21.5660
  41   2.0000      -0.789337       -21.4790
  42   2.0000      -0.787885       -21.4394
  43   2.0000      -0.778106       -21.1733
  44   2.0000      -0.769249       -20.9323
  45   2.0000      -0.739575       -20.1248
  46   2.0000      -0.725440       -19.7402
  47   2.0000      -0.706139       -19.2150
  48   2.0000      -0.681687       -18.5497
  49   2.0000      -0.660895       -17.9839
  50   2.0000      -0.654579       -17.8120
  51   2.0000      -0.649108       -17.6631
  52   2.0000      -0.641346       -17.4519
  53   2.0000      -0.638917       -17.3858
  54   2.0000      -0.628666       -17.1069
  55   2.0000      -0.624944       -17.0056
  56   2.0000      -0.612291       -16.6613
  57   2.0000      -0.610597       -16.6152
  58   2.0000      -0.609818       -16.5940
  59   2.0000      -0.601582       -16.3699
  60   2.0000      -0.590210       -16.0604
  61   2.0000      -0.587068       -15.9749
  62   2.0000      -0.566026       -15.4024
  63   2.0000      -0.559775       -15.2322
  64   2.0000      -0.554993       -15.1021
  65   2.0000      -0.548585       -14.9278
  66   2.0000      -0.542973       -14.7751
  67   2.0000      -0.537146       -14.6165
  68   2.0000      -0.529745       -14.4151
  69   2.0000      -0.524941       -14.2844
  70   2.0000      -0.521020       -14.1777
  71   2.0000      -0.513463       -13.9720
  72   2.0000      -0.508258       -13.8304
  73   2.0000      -0.503510       -13.7012
  74   2.0000      -0.483146       -13.1471
  75   2.0000      -0.473188       -12.8761
  76   2.0000      -0.459151       -12.4941
  77   2.0000      -0.441645       -12.0178
  78   2.0000      -0.427209       -11.6249
  79   2.0000      -0.422730       -11.5031
  80   2.0000      -0.417107       -11.3501
  81   2.0000      -0.396105       -10.7786
  82   0.0000      -0.229686        -6.2501
  83   0.0000      -0.183746        -5.0000
  84   0.0000      -0.147351        -4.0096
  85   0.0000      -0.085091        -2.3154
  86   0.0000      -0.078564        -2.1378

MULLIKEN ATOMIC CHARGES
-----------------------
   0 Ir:    0.641728
   1 C :   -0.225179
   2 C :   -0.216157
   3 C :   -0.216417
   4 C :   -0.243744
   5 C :   -0.211394
   6 N :   -0.474689
   7 C :   -0.121522
   8 C :   -0.634298
   9 H :    0.243724
  10 H :    0.223469
  11 H :    0.279791
  12 C :   -0.675706
  13 H :    0.258236
  14 H :    0.264784
  15 H :    0.230615
  16 H :    0.247403
  17 C :    0.101684
  18 C :   -0.241674
  19 H :    0.272515
  20 C :   -0.323958
  21 C :   -0.163452
  22 S :    0.332405
  23 C :   -0.397814
  24 H :    0.395072
  25 H :    0.264471
  26 H :    0.298534
  27 H :    0.291172
  28 H :    0.299968
  29 H :    0.293041
  30 O :   -0.424025
  31 O :   -0.574364
  32 C :    0.599924
  33 C :   -0.745279
  34 H :    0.258241
  35 H :    0.262108
  36 H :    0.254372
  37 H :    0.291838
  38 H :    0.284579
Sum of atomic charges:    1.0000000

LOEWDIN ATOMIC CHARGES
----------------------
   0 Ir:   -0.151056
   1 C :   -0.009594
   2 C :   -0.012812
   3 C :   -0.000038
   4 C :   -0.093337
   5 C :   -0.084115
   6 N :   -0.037354
   7 C :   -0.053976
   8 C :   -0.352407
   9 H :    0.146292
  10 H :    0.135373
  11 H :    0.154491
  12 C :   -0.361695
  13 H :    0.143970
  14 H :    0.155710
  15 H :    0.134282
  16 H :    0.138849
  17 C :    0.025002
  18 C :   -0.194670
  19 H :    0.153792
  20 C :   -0.180927
  21 C :   -0.146700
  22 S :    0.479429
  23 C :   -0.260473
  24 H :    0.254026
  25 H :    0.156823
  26 H :    0.170783
  27 H :    0.186005
  28 H :    0.192025
  29 H :    0.186798
  30 O :   -0.214377
  31 O :   -0.271291
  32 C :    0.157406
  33 C :   -0.384150
  34 H :    0.158170
  35 H :    0.163224
  36 H :    0.146381
  37 H :    0.187135
  38 H :    0.183003

  Mayer bond orders larger than 0.100000
B(  0-Ir,  1-C ) :   0.4743 B(  0-Ir,  2-C ) :   0.4843 B(  0-Ir,  3-C ) :   0.5090
B(  0-Ir,  4-C ) :   0.4110 B(  0-Ir,  5-C ) :   0.4505 B(  0-Ir,  6-N ) :   0.4826
B(  0-Ir, 20-C ) :   0.1282 B(  0-Ir, 31-O ) :   0.6542 B(  1-C ,  2-C ) :   1.1385
B(  1-C ,  4-C ) :   1.1931 B(  1-C , 27-H ) :   0.9151 B(  2-C ,  5-C ) :   1.1762
B(  2-C , 28-H ) :   0.9073 B(  3-C ,  4-C ) :   1.1630 B(  3-C ,  5-C ) :   1.1429
B(  3-C , 37-H ) :   0.9108 B(  4-C , 38-H ) :   0.9167 B(  5-C , 29-H ) :   0.9119
B(  6-N ,  7-C ) :   0.8661 B(  6-N , 17-C ) :   1.6432 B(  7-C ,  8-C ) :   0.9825
B(  7-C , 12-C ) :   0.9892 B(  7-C , 13-H ) :   0.8930 B(  8-C ,  9-H ) :   0.9062
B(  8-C , 10-H ) :   0.9186 B(  8-C , 11-H ) :   0.8946 B( 12-C , 14-H ) :   0.9050
B( 12-C , 15-H ) :   0.9118 B( 12-C , 16-H ) :   0.9151 B( 17-C , 18-C ) :   1.1053
B( 17-C , 19-H ) :   0.8797 B( 18-C , 20-C ) :   1.3408 B( 18-C , 22-S ) :   1.2125
B( 20-C , 21-C ) :   1.2745 B( 20-C , 24-H ) :   0.7245 B( 21-C , 23-C ) :   1.5353
B( 21-C , 25-H ) :   0.9030 B( 22-S , 23-C ) :   1.2173 B( 23-C , 26-H ) :   0.8900
B( 30-O , 32-C ) :   1.8265 B( 31-O , 32-C ) :   1.1545 B( 32-C , 33-C ) :   0.9354
B( 33-C , 34-H ) :   0.9068 B( 33-C , 35-H ) :   0.9035 B( 33-C , 36-H ) :   0.9091

Dispersion correction           -0.029223713
FINAL SINGLE POINT ENERGY     -1288.339086400515
Dispersion correction            ... done

DIPOLE MOMENT
-------------
                                X             Y             Z
Electronic contribution:     27.23381     -72.93367     106.67708
Nuclear contribution   :    -27.60330      71.41516    -107.26785
                        -----------------------------------------
Total Dipole Moment    :     -0.36948      -1.51851      -0.59077
                        -----------------------------------------
Magnitude (a.u.)       :      1.67075
Magnitude (Debye)      :      4.24671

Rotational constants in cm-1:     0.010559     0.007755     0.007212
Rotational constants in MHz :   316.548203   232.500758   216.201553

                             ****ORCA TERMINATED NORMALLY****
TOTAL RUN TIME: 0 days 0 hours 19 minutes 26 seconds 826 msec
