                         Program Version 5.0.3 -  RELEASE  -
|  1> ! EnGrad PBEh-3c
|  2> %output
|  3> xyzfile=True
|  4> end
|  5> %scf
|  6> maxiter 250
|  7> end
|  8> %output
|  9> Print[P_Hirshfeld] = 1
| 10> end
| 11> % maxcore
| 12> 4000
| 13> *xyz 1 1
| 14> Ir   0.48838378  -0.74446113   0.87124711
| 15> C   -0.05453173  -2.82743767   1.43182225
| 16> C    0.55409168  -2.11823119   2.50885644
| 17> C    2.05257970  -2.30631285   0.83310841
| 18> C    0.85871404  -2.89798321   0.36038650
| 19> C    1.88332053  -1.77305386   2.14613765
| 20> N   -1.04512970  -0.06626747  -0.49594105
| 21> C   -2.47605381  -0.00649977   0.04018316
| 22> C   -2.86084863   1.38394756   0.53283325
| 23> H   -3.90287125   1.31686960   0.85140110
| 24> H   -2.80335323   2.12462595  -0.26668391
| 25> H   -2.25091366   1.68888801   1.38047021
| 26> C   -3.44996467  -0.52753986  -1.01207893
| 27> H   -2.46825349  -0.70442817   0.88110199
| 28> H   -4.41031780  -0.63073605  -0.51218858
| 29> H   -3.61713543   0.17256251  -1.83365609
| 30> H   -3.17603979  -1.50496385  -1.41152108
| 31> C   -0.76340587   0.27925749  -1.70157239
| 32> C    0.60019763   0.19850792  -2.21716282
| 33> H   -1.61311896   0.55838256  -2.33946902
| 34> C    1.85830451   0.34547521  -1.61886688
| 35> C    2.82667160  -0.07479295  -2.54616742
| 36> S    0.71109253   0.14504203  -3.98314883
| 37> C    2.41169725  -0.04065539  -3.84768115
| 38> H    1.99486426   0.77985301  -0.82339626
| 39> H    3.86656211  -0.11005408  -2.27482260
| 40> H    3.04874158  -0.07992401  -4.73527123
| 41> H   -0.99598796  -3.37683123   1.50652868
| 42> H    0.11154192  -1.97310398   3.48801522
| 43> H    2.63694960  -1.34248803   2.77302257
| 44> O    1.95567719   1.94372887   0.50295385
| 45> O    0.15314412   1.04211677   1.75338444
| 46> C    0.99143730   2.04840409   1.41581460
| 47> C    0.80480186   3.39814551   2.04222638
| 48> H    0.83825531   4.18944193   1.27680727
| 49> H    1.67750641   3.59087545   2.67826277
| 50> H   -0.09545632   3.52908117   2.64923156
| 51> H    2.96670142  -2.20395647   0.25112318
| 52> H    0.69208402  -3.42817404  -0.55921081
| 53> *
| 54>
| 55>                          ****END OF INPUT****

CARTESIAN COORDINATES (ANGSTROEM)
---------------------------------
  Ir     0.488384   -0.744461    0.871247
  C     -0.054532   -2.827438    1.431822
  C      0.554092   -2.118231    2.508856
  C      2.052580   -2.306313    0.833108
  C      0.858714   -2.897983    0.360386
  C      1.883321   -1.773054    2.146138
  N     -1.045130   -0.066267   -0.495941
  C     -2.476054   -0.006500    0.040183
  C     -2.860849    1.383948    0.532833
  H     -3.902871    1.316870    0.851401
  H     -2.803353    2.124626   -0.266684
  H     -2.250914    1.688888    1.380470
  C     -3.449965   -0.527540   -1.012079
  H     -2.468253   -0.704428    0.881102
  H     -4.410318   -0.630736   -0.512189
  H     -3.617135    0.172563   -1.833656
  H     -3.176040   -1.504964   -1.411521
  C     -0.763406    0.279257   -1.701572
  C      0.600198    0.198508   -2.217163
  H     -1.613119    0.558383   -2.339469
  C      1.858305    0.345475   -1.618867
  C      2.826672   -0.074793   -2.546167
  S      0.711093    0.145042   -3.983149
  C      2.411697   -0.040655   -3.847681
  H      1.994864    0.779853   -0.823396
  H      3.866562   -0.110054   -2.274823
  H      3.048742   -0.079924   -4.735271
  H     -0.995988   -3.376831    1.506529
  H      0.111542   -1.973104    3.488015
  H      2.636950   -1.342488    2.773023
  O      1.955677    1.943729    0.502954
  O      0.153144    1.042117    1.753384
  C      0.991437    2.048404    1.415815
  C      0.804802    3.398146    2.042226
  H      0.838255    4.189442    1.276807
  H      1.677506    3.590875    2.678263
  H     -0.095456    3.529081    2.649232
  H      2.966701   -2.203956    0.251123
  H      0.692084   -3.428174   -0.559211

 Total Charge           Charge          ....    1
 Multiplicity           Mult            ....    1
 Number of Electrons    NEL             ....  164
 Basis Dimension        Dim             ....  358

ORBITAL ENERGIES
----------------

  NO   OCC          E(Eh)            E(eV)
   0   2.0000     -89.745276     -2442.0931
   1   2.0000     -19.635038      -534.2965
   2   2.0000     -19.572320      -532.5899
   3   2.0000     -14.825629      -403.4259
   4   2.0000     -10.690614      -290.9064
   5   2.0000     -10.657081      -289.9939
   6   2.0000     -10.655212      -289.9430
   7   2.0000     -10.653875      -289.9067
   8   2.0000     -10.648148      -289.7508
   9   2.0000     -10.635457      -289.4055
  10   2.0000     -10.629789      -289.2513
  11   2.0000     -10.617094      -288.9058
  12   2.0000     -10.616508      -288.8899
  13   2.0000     -10.602871      -288.5188
  14   2.0000     -10.569218      -287.6031
  15   2.0000     -10.566390      -287.5261
  16   2.0000     -10.551236      -287.1137
  17   2.0000     -10.541497      -286.8487
  18   2.0000     -10.537939      -286.7519
  19   2.0000      -8.383972      -228.1395
  20   2.0000      -6.274122      -170.7275
  21   2.0000      -6.270742      -170.6356
  22   2.0000      -6.268294      -170.5689
  23   2.0000      -4.038320      -109.8883
  24   2.0000      -2.358523       -64.1787
  25   2.0000      -2.320981       -63.1571
  26   2.0000      -2.320251       -63.1372
  27   2.0000      -1.258664       -34.2500
  28   2.0000      -1.190542       -32.3963
  29   2.0000      -1.182017       -32.1643
  30   2.0000      -1.160884       -31.5893
  31   2.0000      -1.106998       -30.1230
  32   2.0000      -1.010839       -27.5063
  33   2.0000      -0.995242       -27.0819
  34   2.0000      -0.990750       -26.9597
  35   2.0000      -0.958356       -26.0782
  36   2.0000      -0.948117       -25.7996
  37   2.0000      -0.923204       -25.1217
  38   2.0000      -0.892233       -24.2789
  39   2.0000      -0.858060       -23.3490
  40   2.0000      -0.798495       -21.7282
  41   2.0000      -0.796341       -21.6695
  42   2.0000      -0.788232       -21.4489
  43   2.0000      -0.784372       -21.3438
  44   2.0000      -0.763046       -20.7635
  45   2.0000      -0.751905       -20.4604
  46   2.0000      -0.738449       -20.0942
  47   2.0000      -0.717414       -19.5218
  48   2.0000      -0.680335       -18.5129
  49   2.0000      -0.659387       -17.9428
  50   2.0000      -0.657663       -17.8959
  51   2.0000      -0.650911       -17.7122
  52   2.0000      -0.641469       -17.4553
  53   2.0000      -0.634898       -17.2764
  54   2.0000      -0.624318       -16.9886
  55   2.0000      -0.620078       -16.8732
  56   2.0000      -0.619259       -16.8509
  57   2.0000      -0.616739       -16.7823
  58   2.0000      -0.604642       -16.4531
  59   2.0000      -0.598236       -16.2788
  60   2.0000      -0.596083       -16.2202
  61   2.0000      -0.585040       -15.9197
  62   2.0000      -0.572362       -15.5748
  63   2.0000      -0.559758       -15.2318
  64   2.0000      -0.556189       -15.1347
  65   2.0000      -0.548531       -14.9263
  66   2.0000      -0.545300       -14.8384
  67   2.0000      -0.539567       -14.6824
  68   2.0000      -0.533006       -14.5038
  69   2.0000      -0.527376       -14.3506
  70   2.0000      -0.521539       -14.1918
  71   2.0000      -0.519678       -14.1412
  72   2.0000      -0.510538       -13.8925
  73   2.0000      -0.502500       -13.6737
  74   2.0000      -0.478676       -13.0254
  75   2.0000      -0.470894       -12.8137
  76   2.0000      -0.457976       -12.4622
  77   2.0000      -0.455836       -12.4039
  78   2.0000      -0.425341       -11.5741
  79   2.0000      -0.416680       -11.3384
  80   2.0000      -0.412067       -11.2129
  81   2.0000      -0.392159       -10.6712
  82   0.0000      -0.232983        -6.3398
  83   0.0000      -0.172102        -4.6831
  84   0.0000      -0.151623        -4.1259
  85   0.0000      -0.088188        -2.3997
  86   0.0000      -0.087511        -2.3813

MULLIKEN ATOMIC CHARGES
-----------------------
   0 Ir:    0.634436
   1 C :   -0.214767
   2 C :   -0.227362
   3 C :   -0.167173
   4 C :   -0.243912
   5 C :   -0.247641
   6 N :   -0.457022
   7 C :   -0.121228
   8 C :   -0.627207
   9 H :    0.243563
  10 H :    0.227685
  11 H :    0.271493
  12 C :   -0.675025
  13 H :    0.250028
  14 H :    0.264514
  15 H :    0.232065
  16 H :    0.247365
  17 C :    0.064672
  18 C :   -0.283556
  19 H :    0.274437
  20 C :   -0.239547
  21 C :   -0.180370
  22 S :    0.293070
  23 C :   -0.403380
  24 H :    0.424253
  25 H :    0.258269
  26 H :    0.296579
  27 H :    0.297446
  28 H :    0.305617
  29 H :    0.300327
  30 O :   -0.517304
  31 O :   -0.564337
  32 C :    0.627705
  33 C :   -0.746231
  34 H :    0.277274
  35 H :    0.274319
  36 H :    0.250845
  37 H :    0.304061
  38 H :    0.296038
Sum of atomic charges:    1.0000000

LOEWDIN ATOMIC CHARGES
----------------------
   0 Ir:   -0.119968
   1 C :   -0.005723
   2 C :   -0.016128
   3 C :    0.018163
   4 C :   -0.084597
   5 C :   -0.083741
   6 N :   -0.059511
   7 C :   -0.051292
   8 C :   -0.350761
   9 H :    0.146407
  10 H :    0.138005
  11 H :    0.152846
  12 C :   -0.363278
  13 H :    0.140669
  14 H :    0.153815
  15 H :    0.135652
  16 H :    0.140368
  17 C :    0.025693
  18 C :   -0.200399
  19 H :    0.156741
  20 C :   -0.113151
  21 C :   -0.161105
  22 S :    0.434772
  23 C :   -0.245023
  24 H :    0.174214
  25 H :    0.155158
  26 H :    0.169292
  27 H :    0.189648
  28 H :    0.192714
  29 H :    0.192996
  30 O :   -0.345006
  31 O :   -0.237728
  32 C :    0.230429
  33 C :   -0.379280
  34 H :    0.170490
  35 H :    0.172026
  36 H :    0.147566
  37 H :    0.189829
  38 H :    0.189201

  Mayer bond orders larger than 0.100000
B(  0-Ir,  1-C ) :   0.4940 B(  0-Ir,  2-C ) :   0.5299 B(  0-Ir,  3-C ) :   0.4865
B(  0-Ir,  4-C ) :   0.3980 B(  0-Ir,  5-C ) :   0.4640 B(  0-Ir,  6-N ) :   0.4812
B(  0-Ir, 30-O ) :   0.1068 B(  0-Ir, 31-O ) :   0.6324 B(  1-C ,  2-C ) :   1.1134
B(  1-C ,  4-C ) :   1.1898 B(  1-C , 27-H ) :   0.9097 B(  2-C ,  5-C ) :   1.1674
B(  2-C , 28-H ) :   0.9034 B(  3-C ,  4-C ) :   1.1813 B(  3-C ,  5-C ) :   1.1414
B(  3-C , 37-H ) :   0.8957 B(  4-C , 38-H ) :   0.9102 B(  5-C , 29-H ) :   0.9100
B(  6-N ,  7-C ) :   0.8604 B(  6-N , 17-C ) :   1.6695 B(  7-C ,  8-C ) :   0.9800
B(  7-C , 12-C ) :   0.9864 B(  7-C , 13-H ) :   0.8947 B(  8-C ,  9-H ) :   0.9052
B(  8-C , 10-H ) :   0.9172 B(  8-C , 11-H ) :   0.8986 B( 12-C , 14-H ) :   0.9041
B( 12-C , 15-H ) :   0.9112 B( 12-C , 16-H ) :   0.9158 B( 17-C , 18-C ) :   1.0911
B( 17-C , 19-H ) :   0.8767 B( 18-C , 20-C ) :   1.4309 B( 18-C , 22-S ) :   1.1586
B( 20-C , 21-C ) :   1.3035 B( 20-C , 24-H ) :   0.7055 B( 21-C , 23-C ) :   1.5079
B( 21-C , 25-H ) :   0.9074 B( 22-S , 23-C ) :   1.2352 B( 23-C , 26-H ) :   0.8918
B( 24-H , 30-O ) :   0.1333 B( 30-O , 31-O ) :   0.1030 B( 30-O , 32-C ) :   1.6974
B( 31-O , 32-C ) :   1.1970 B( 32-C , 33-C ) :   0.9546 B( 33-C , 34-H ) :   0.8973
B( 33-C , 35-H ) :   0.8926 B( 33-C , 36-H ) :   0.9058

Dispersion correction           -0.029173126
FINAL SINGLE POINT ENERGY     -1288.310454054234
Dispersion correction            ... done

DIPOLE MOMENT
-------------
                                X             Y             Z
Electronic contribution:     25.77342     -73.90397     112.51930
Nuclear contribution   :    -26.44547      72.18246    -112.51007
                        -----------------------------------------
Total Dipole Moment    :     -0.67205      -1.72151       0.00923
                        -----------------------------------------
Magnitude (a.u.)       :      1.84806
Magnitude (Debye)      :      4.69740

Rotational constants in cm-1:     0.010484     0.007698     0.007179
Rotational constants in MHz :   314.314587   230.790915   215.233985

                             ****ORCA TERMINATED NORMALLY****
TOTAL RUN TIME: 0 days 0 hours 20 minutes 53 seconds 189 msec
