                         Program Version 5.0.3 -  RELEASE  -
|  1> ! EnGrad PBEh-3c
|  2> %output
|  3> xyzfile=True
|  4> end
|  5> %scf
|  6> maxiter 250
|  7> end
|  8> %output
|  9> Print[P_Hirshfeld] = 1
| 10> end
| 11> % maxcore
| 12> 4000
| 13> *xyz 1 1
| 14> Ir   0.49313443  -0.73849742   0.83473251
| 15> C   -0.06268511  -2.81473100   1.45184548
| 16> C    0.56043103  -2.11758195   2.51873475
| 17> C    2.02925665  -2.27100528   0.80074092
| 18> C    0.82790162  -2.87643613   0.36219870
| 19> C    1.88091593  -1.78523355   2.12355840
| 20> N   -1.03336609  -0.05281311  -0.47541768
| 21> C   -2.46643897   0.00009479   0.03210305
| 22> C   -2.86686298   1.38088970   0.51617928
| 23> H   -3.90676684   1.33486781   0.85095827
| 24> H   -2.80738111   2.11508165  -0.28336448
| 25> H   -2.27094611   1.69517694   1.36334189
| 26> C   -3.44869778  -0.52841469  -1.00568774
| 27> H   -2.47356966  -0.67668844   0.87538344
| 28> H   -4.41856815  -0.63768606  -0.51019561
| 29> H   -3.61153968   0.15946532  -1.83424170
| 30> H   -3.17253945  -1.50384112  -1.39398530
| 31> C   -0.76432620   0.27389465  -1.69133195
| 32> C    0.56828029   0.19617323  -2.25862040
| 33> H   -1.59532231   0.55222469  -2.32680488
| 34> C    1.83031535   0.22528785  -1.58538295
| 35> C    2.82705267  -0.07402544  -2.55946970
| 36> S    0.72539251   0.16267853  -3.99814895
| 37> C    2.42222931  -0.02265167  -3.85900658
| 38> H    2.09373739   0.91476933  -0.83665421
| 39> H    3.87120492  -0.09594240  -2.28650609
| 40> H    3.05640283  -0.08932868  -4.73611689
| 41> H   -0.96006732  -3.41665001   1.54929123
| 42> H    0.14092392  -1.99305859   3.51548085
| 43> H    2.64595412  -1.37072352   2.73705014
| 44> O    1.88707825   1.91628897   0.55511267
| 45> O    0.14547317   1.05666931   1.77215172
| 46> C    0.99492669   2.04711681   1.38979841
| 47> C    0.80492135   3.41418532   2.05244828
| 48> H    0.84135876   4.19026197   1.28189861
| 49> H    1.67740221   3.59544578   2.69138679
| 50> H   -0.09004064   3.52856426   2.64939593
| 51> H    2.96088644  -2.25358892   0.24740289
| 52> H    0.66380922  -3.44210028  -0.53226616
| 53> *
| 54>
| 55>                          ****END OF INPUT****

CARTESIAN COORDINATES (ANGSTROEM)
---------------------------------
  Ir     0.493134   -0.738497    0.834733
  C     -0.062685   -2.814731    1.451845
  C      0.560431   -2.117582    2.518735
  C      2.029257   -2.271005    0.800741
  C      0.827902   -2.876436    0.362199
  C      1.880916   -1.785234    2.123558
  N     -1.033366   -0.052813   -0.475418
  C     -2.466439    0.000095    0.032103
  C     -2.866863    1.380890    0.516179
  H     -3.906767    1.334868    0.850958
  H     -2.807381    2.115082   -0.283364
  H     -2.270946    1.695177    1.363342
  C     -3.448698   -0.528415   -1.005688
  H     -2.473570   -0.676688    0.875383
  H     -4.418568   -0.637686   -0.510196
  H     -3.611540    0.159465   -1.834242
  H     -3.172539   -1.503841   -1.393985
  C     -0.764326    0.273895   -1.691332
  C      0.568280    0.196173   -2.258620
  H     -1.595322    0.552225   -2.326805
  C      1.830315    0.225288   -1.585383
  C      2.827053   -0.074025   -2.559470
  S      0.725393    0.162679   -3.998149
  C      2.422229   -0.022652   -3.859007
  H      2.093737    0.914769   -0.836654
  H      3.871205   -0.095942   -2.286506
  H      3.056403   -0.089329   -4.736117
  H     -0.960067   -3.416650    1.549291
  H      0.140924   -1.993059    3.515481
  H      2.645954   -1.370724    2.737050
  O      1.887078    1.916289    0.555113
  O      0.145473    1.056669    1.772152
  C      0.994927    2.047117    1.389798
  C      0.804921    3.414185    2.052448
  H      0.841359    4.190262    1.281899
  H      1.677402    3.595446    2.691387
  H     -0.090041    3.528564    2.649396
  H      2.960886   -2.253589    0.247403
  H      0.663809   -3.442100   -0.532266

 Total Charge           Charge          ....    1
 Multiplicity           Mult            ....    1
 Number of Electrons    NEL             ....  164
 Basis Dimension        Dim             ....  358

ORBITAL ENERGIES
----------------

  NO   OCC          E(Eh)            E(eV)
   0   2.0000     -89.756174     -2442.3897
   1   2.0000     -19.617717      -533.8252
   2   2.0000     -19.579873      -532.7954
   3   2.0000     -14.829408      -403.5287
   4   2.0000     -10.678394      -290.5739
   5   2.0000     -10.654588      -289.9261
   6   2.0000     -10.650069      -289.8031
   7   2.0000     -10.644003      -289.6381
   8   2.0000     -10.643768      -289.6316
   9   2.0000     -10.626945      -289.1739
  10   2.0000     -10.625868      -289.1446
  11   2.0000     -10.621814      -289.0343
  12   2.0000     -10.612878      -288.7911
  13   2.0000     -10.606021      -288.6045
  14   2.0000     -10.580368      -287.9065
  15   2.0000     -10.576334      -287.7967
  16   2.0000     -10.550047      -287.0814
  17   2.0000     -10.537184      -286.7314
  18   2.0000     -10.530873      -286.5596
  19   2.0000      -8.394907      -228.4370
  20   2.0000      -6.284969      -171.0227
  21   2.0000      -6.281521      -170.9289
  22   2.0000      -6.279461      -170.8728
  23   2.0000      -4.032785      -109.7377
  24   2.0000      -2.352641       -64.0186
  25   2.0000      -2.315788       -63.0158
  26   2.0000      -2.314465       -62.9798
  27   2.0000      -1.276314       -34.7303
  28   2.0000      -1.192149       -32.4400
  29   2.0000      -1.183999       -32.2182
  30   2.0000      -1.179692       -32.1010
  31   2.0000      -1.110862       -30.2281
  32   2.0000      -1.012570       -27.5534
  33   2.0000      -0.988921       -26.9099
  34   2.0000      -0.986630       -26.8476
  35   2.0000      -0.960008       -26.1232
  36   2.0000      -0.950872       -25.8745
  37   2.0000      -0.912665       -24.8349
  38   2.0000      -0.891517       -24.2594
  39   2.0000      -0.861368       -23.4390
  40   2.0000      -0.792941       -21.5770
  41   2.0000      -0.792608       -21.5680
  42   2.0000      -0.789185       -21.4748
  43   2.0000      -0.780706       -21.2441
  44   2.0000      -0.767641       -20.8886
  45   2.0000      -0.742904       -20.2154
  46   2.0000      -0.727868       -19.8063
  47   2.0000      -0.711607       -19.3638
  48   2.0000      -0.681469       -18.5437
  49   2.0000      -0.657449       -17.8901
  50   2.0000      -0.655641       -17.8409
  51   2.0000      -0.650680       -17.7059
  52   2.0000      -0.642132       -17.4733
  53   2.0000      -0.638125       -17.3643
  54   2.0000      -0.626161       -17.0387
  55   2.0000      -0.621808       -16.9202
  56   2.0000      -0.614228       -16.7140
  57   2.0000      -0.613432       -16.6923
  58   2.0000      -0.607861       -16.5407
  59   2.0000      -0.599205       -16.3052
  60   2.0000      -0.591093       -16.0844
  61   2.0000      -0.587881       -15.9971
  62   2.0000      -0.568396       -15.4668
  63   2.0000      -0.561380       -15.2759
  64   2.0000      -0.555402       -15.1133
  65   2.0000      -0.548580       -14.9276
  66   2.0000      -0.542396       -14.7594
  67   2.0000      -0.539559       -14.6821
  68   2.0000      -0.529765       -14.4156
  69   2.0000      -0.526896       -14.3376
  70   2.0000      -0.523067       -14.2334
  71   2.0000      -0.515473       -14.0267
  72   2.0000      -0.506653       -13.7867
  73   2.0000      -0.505721       -13.7614
  74   2.0000      -0.480860       -13.0849
  75   2.0000      -0.475408       -12.9365
  76   2.0000      -0.459511       -12.5039
  77   2.0000      -0.446901       -12.1608
  78   2.0000      -0.427919       -11.6443
  79   2.0000      -0.422386       -11.4937
  80   2.0000      -0.415406       -11.3038
  81   2.0000      -0.395244       -10.7551
  82   0.0000      -0.230492        -6.2720
  83   0.0000      -0.180034        -4.8990
  84   0.0000      -0.148792        -4.0488
  85   0.0000      -0.085459        -2.3254
  86   0.0000      -0.080485        -2.1901

MULLIKEN ATOMIC CHARGES
-----------------------
   0 Ir:    0.640449
   1 C :   -0.221735
   2 C :   -0.218996
   3 C :   -0.200306
   4 C :   -0.242937
   5 C :   -0.222770
   6 N :   -0.471317
   7 C :   -0.121289
   8 C :   -0.631844
   9 H :    0.243581
  10 H :    0.224865
  11 H :    0.276949
  12 C :   -0.675549
  13 H :    0.255283
  14 H :    0.264688
  15 H :    0.231175
  16 H :    0.247303
  17 C :    0.092898
  18 C :   -0.262867
  19 H :    0.273783
  20 C :   -0.298114
  21 C :   -0.169403
  22 S :    0.318432
  23 C :   -0.399309
  24 H :    0.412363
  25 H :    0.262492
  26 H :    0.297271
  27 H :    0.293247
  28 H :    0.301883
  29 H :    0.295479
  30 O :   -0.463907
  31 O :   -0.570825
  32 C :    0.616089
  33 C :   -0.744893
  34 H :    0.264573
  35 H :    0.266018
  36 H :    0.253098
  37 H :    0.295961
  38 H :    0.288180
Sum of atomic charges:    1.0000000

LOEWDIN ATOMIC CHARGES
----------------------
   0 Ir:   -0.138159
   1 C :   -0.007485
   2 C :   -0.013296
   3 C :    0.006188
   4 C :   -0.090495
   5 C :   -0.083891
   6 N :   -0.045701
   7 C :   -0.053043
   8 C :   -0.351863
   9 H :    0.146229
  10 H :    0.136249
  11 H :    0.153880
  12 C :   -0.362189
  13 H :    0.142723
  14 H :    0.155077
  15 H :    0.134756
  16 H :    0.139303
  17 C :    0.025877
  18 C :   -0.197341
  19 H :    0.154761
  20 C :   -0.158613
  21 C :   -0.151170
  22 S :    0.463982
  23 C :   -0.254415
  24 H :    0.225892
  25 H :    0.156277
  26 H :    0.170159
  27 H :    0.187142
  28 H :    0.192368
  29 H :    0.188914
  30 O :   -0.262911
  31 O :   -0.260021
  32 C :    0.184915
  33 C :   -0.381889
  34 H :    0.162185
  35 H :    0.165998
  36 H :    0.146700
  37 H :    0.187859
  38 H :    0.185046

  Mayer bond orders larger than 0.100000
B(  0-Ir,  1-C ) :   0.4824 B(  0-Ir,  2-C ) :   0.4999 B(  0-Ir,  3-C ) :   0.5027
B(  0-Ir,  4-C ) :   0.4066 B(  0-Ir,  5-C ) :   0.4542 B(  0-Ir,  6-N ) :   0.4823
B(  0-Ir, 20-C ) :   0.1024 B(  0-Ir, 30-O ) :   0.1001 B(  0-Ir, 31-O ) :   0.6464
B(  1-C ,  2-C ) :   1.1290 B(  1-C ,  4-C ) :   1.1920 B(  1-C , 27-H ) :   0.9136
B(  2-C ,  5-C ) :   1.1744 B(  2-C , 28-H ) :   0.9062 B(  3-C ,  4-C ) :   1.1693
B(  3-C ,  5-C ) :   1.1421 B(  3-C , 37-H ) :   0.9062 B(  4-C , 38-H ) :   0.9149
B(  5-C , 29-H ) :   0.9115 B(  6-N ,  7-C ) :   0.8644 B(  6-N , 17-C ) :   1.6504
B(  7-C ,  8-C ) :   0.9819 B(  7-C , 12-C ) :   0.9884 B(  7-C , 13-H ) :   0.8937
B(  8-C ,  9-H ) :   0.9060 B(  8-C , 10-H ) :   0.9182 B(  8-C , 11-H ) :   0.8960
B( 12-C , 14-H ) :   0.9047 B( 12-C , 15-H ) :   0.9115 B( 12-C , 16-H ) :   0.9154
B( 17-C , 18-C ) :   1.1003 B( 17-C , 19-H ) :   0.8784 B( 18-C , 20-C ) :   1.3826
B( 18-C , 22-S ) :   1.1923 B( 20-C , 21-C ) :   1.2866 B( 20-C , 24-H ) :   0.7184
B( 21-C , 23-C ) :   1.5284 B( 21-C , 25-H ) :   0.9044 B( 22-S , 23-C ) :   1.2231
B( 23-C , 26-H ) :   0.8914 B( 30-O , 32-C ) :   1.7753 B( 31-O , 32-C ) :   1.1701
B( 32-C , 33-C ) :   0.9419 B( 33-C , 34-H ) :   0.9040 B( 33-C , 35-H ) :   0.9002
B( 33-C , 36-H ) :   0.9081

Dispersion correction           -0.029206010
FINAL SINGLE POINT ENERGY     -1288.350054111206
Dispersion correction            ... done

DIPOLE MOMENT
-------------
                                X             Y             Z
Electronic contribution:     26.75170     -73.26975     108.59948
Nuclear contribution   :    -27.22628      71.66501    -108.97484
                        -----------------------------------------
Total Dipole Moment    :     -0.47458      -1.60474      -0.37536
                        -----------------------------------------
Magnitude (a.u.)       :      1.71502
Magnitude (Debye)      :      4.35924

Rotational constants in cm-1:     0.010535     0.007738     0.007202
Rotational constants in MHz :   315.845313   231.971966   215.908824

                             ****ORCA TERMINATED NORMALLY****
TOTAL RUN TIME: 0 days 0 hours 19 minutes 17 seconds 429 msec
