                         Program Version 5.0.3 -  RELEASE  -
|  1> ! EnGrad PBEh-3c
|  2> %output
|  3> xyzfile=True
|  4> end
|  5> %scf
|  6> maxiter 250
|  7> end
|  8> %output
|  9> Print[P_Hirshfeld] = 1
| 10> end
| 11> % maxcore
| 12> 4000
| 13> *xyz 1 1
| 14> Ir   0.46712342  -0.76774580   0.90683558
| 15> C   -0.05449310  -2.83933303   1.40853858
| 16> C    0.55454052  -2.11188033   2.51255653
| 17> C    2.08714566  -2.32529303   0.85496721
| 18> C    0.88914415  -2.92070616   0.36924123
| 19> C    1.87959936  -1.77443885   2.16257424
| 20> N   -1.05485594  -0.07983339  -0.49904855
| 21> C   -2.46712090  -0.01444949   0.03318076
| 22> C   -2.85433941   1.37973238   0.54710313
| 23> H   -3.89796333   1.30326816   0.85224579
| 24> H   -2.79831151   2.13407627  -0.24987777
| 25> H   -2.23260332   1.68628165   1.39413677
| 26> C   -3.45385697  -0.52559391  -1.01293248
| 27> H   -2.46421202  -0.72845785   0.88549629
| 28> H   -4.40470918  -0.62617180  -0.51561846
| 29> H   -3.62059104   0.18344639  -1.83271865
| 30> H   -3.17803363  -1.50501422  -1.42826693
| 31> C   -0.75647737   0.28289561  -1.69827637
| 32> C    0.61098611   0.22419163  -2.19647966
| 33> H   -1.61758833   0.56346051  -2.35344546
| 34> C    1.82465640   0.35544609  -1.77009139
| 35> C    2.84852217  -0.04947625  -2.54645070
| 36> S    0.70863287   0.11574065  -3.94934639
| 37> C    2.39944539  -0.06667970  -3.84702437
| 38> H    1.93076783   0.71702805  -0.70051212
| 39> H    3.86692204  -0.12244716  -2.26473915
| 40> H    3.03295589  -0.07503765  -4.72691783
| 41> H   -1.03333440  -3.32174758   1.46102890
| 42> H    0.08304852  -1.94819659   3.45850328
| 43> H    2.63379708  -1.30996274   2.80935461
| 44> O    1.86967112   1.98411731   0.60845026
| 45> O    0.20339783   1.06808526   1.72482716
| 46> C    1.09869145   2.00089763   1.30891677
| 47> C    0.80263480   3.38712331   2.03877411
| 48> H    0.83352052   4.17823072   1.27574940
| 49> H    1.67359290   3.58452922   2.66558486
| 50> H   -0.09832411   3.52518616   2.64690829
| 51> H    2.96864391  -2.15348842   0.25153933
| 52> H    0.71926718  -3.41158247  -0.59181836
| 53> *
| 54>
| 55>                          ****END OF INPUT****

CARTESIAN COORDINATES (ANGSTROEM)
---------------------------------
  Ir     0.467123   -0.767746    0.906836
  C     -0.054493   -2.839333    1.408539
  C      0.554541   -2.111880    2.512557
  C      2.087146   -2.325293    0.854967
  C      0.889144   -2.920706    0.369241
  C      1.879599   -1.774439    2.162574
  N     -1.054856   -0.079833   -0.499049
  C     -2.467121   -0.014449    0.033181
  C     -2.854339    1.379732    0.547103
  H     -3.897963    1.303268    0.852246
  H     -2.798312    2.134076   -0.249878
  H     -2.232603    1.686282    1.394137
  C     -3.453857   -0.525594   -1.012932
  H     -2.464212   -0.728458    0.885496
  H     -4.404709   -0.626172   -0.515618
  H     -3.620591    0.183446   -1.832719
  H     -3.178034   -1.505014   -1.428267
  C     -0.756477    0.282896   -1.698276
  C      0.610986    0.224192   -2.196480
  H     -1.617588    0.563461   -2.353445
  C      1.824656    0.355446   -1.770091
  C      2.848522   -0.049476   -2.546451
  S      0.708633    0.115741   -3.949346
  C      2.399445   -0.066680   -3.847024
  H      1.930768    0.717028   -0.700512
  H      3.866922   -0.122447   -2.264739
  H      3.032956   -0.075038   -4.726918
  H     -1.033334   -3.321748    1.461029
  H      0.083049   -1.948197    3.458503
  H      2.633797   -1.309963    2.809355
  O      1.869671    1.984117    0.608450
  O      0.203398    1.068085    1.724827
  C      1.098691    2.000898    1.308917
  C      0.802635    3.387123    2.038774
  H      0.833521    4.178231    1.275749
  H      1.673593    3.584529    2.665585
  H     -0.098324    3.525186    2.646908
  H      2.968644   -2.153488    0.251539
  H      0.719267   -3.411582   -0.591818

 Total Charge           Charge          ....    1
 Multiplicity           Mult            ....    1
 Number of Electrons    NEL             ....  164
 Basis Dimension        Dim             ....  358

ORBITAL ENERGIES
----------------

  NO   OCC          E(Eh)            E(eV)
   0   2.0000     -89.739893     -2441.9466
   1   2.0000     -19.613074      -533.6989
   2   2.0000     -19.601910      -533.3951
   3   2.0000     -14.828893      -403.5147
   4   2.0000     -10.666219      -290.2426
   5   2.0000     -10.662992      -290.1548
   6   2.0000     -10.660418      -290.0847
   7   2.0000     -10.656896      -289.9889
   8   2.0000     -10.647066      -289.7214
   9   2.0000     -10.640690      -289.5479
  10   2.0000     -10.635439      -289.4050
  11   2.0000     -10.618654      -288.9483
  12   2.0000     -10.607123      -288.6345
  13   2.0000     -10.604022      -288.5501
  14   2.0000     -10.573354      -287.7156
  15   2.0000     -10.567944      -287.5684
  16   2.0000     -10.552030      -287.1353
  17   2.0000     -10.542460      -286.8749
  18   2.0000     -10.516341      -286.1642
  19   2.0000      -8.379634      -228.0214
  20   2.0000      -6.269666      -170.6063
  21   2.0000      -6.266350      -170.5161
  22   2.0000      -6.263999      -170.4521
  23   2.0000      -4.037005      -109.8525
  24   2.0000      -2.357492       -64.1506
  25   2.0000      -2.320318       -63.1391
  26   2.0000      -2.318520       -63.0901
  27   2.0000      -1.391047       -37.8523
  28   2.0000      -1.210413       -32.9370
  29   2.0000      -1.189597       -32.3706
  30   2.0000      -1.183381       -32.2014
  31   2.0000      -1.129312       -30.7301
  32   2.0000      -1.012278       -27.5455
  33   2.0000      -0.997417       -27.1411
  34   2.0000      -0.989563       -26.9274
  35   2.0000      -0.960517       -26.1370
  36   2.0000      -0.956301       -26.0223
  37   2.0000      -0.891409       -24.2565
  38   2.0000      -0.890179       -24.2230
  39   2.0000      -0.864015       -23.5110
  40   2.0000      -0.799609       -21.7585
  41   2.0000      -0.797618       -21.7043
  42   2.0000      -0.787625       -21.4324
  43   2.0000      -0.782335       -21.2884
  44   2.0000      -0.772228       -21.0134
  45   2.0000      -0.734465       -19.9858
  46   2.0000      -0.732698       -19.9377
  47   2.0000      -0.718772       -19.5588
  48   2.0000      -0.682560       -18.5734
  49   2.0000      -0.675319       -18.3764
  50   2.0000      -0.666843       -18.1457
  51   2.0000      -0.664038       -18.0694
  52   2.0000      -0.660318       -17.9682
  53   2.0000      -0.650414       -17.6987
  54   2.0000      -0.645766       -17.5722
  55   2.0000      -0.631226       -17.1765
  56   2.0000      -0.624586       -16.9958
  57   2.0000      -0.622261       -16.9326
  58   2.0000      -0.617914       -16.8143
  59   2.0000      -0.611159       -16.6305
  60   2.0000      -0.589202       -16.0330
  61   2.0000      -0.584365       -15.9014
  62   2.0000      -0.576400       -15.6846
  63   2.0000      -0.561343       -15.2749
  64   2.0000      -0.557599       -15.1730
  65   2.0000      -0.553892       -15.0722
  66   2.0000      -0.542411       -14.7598
  67   2.0000      -0.537119       -14.6158
  68   2.0000      -0.527784       -14.3617
  69   2.0000      -0.525734       -14.3060
  70   2.0000      -0.522385       -14.2148
  71   2.0000      -0.519610       -14.1393
  72   2.0000      -0.510679       -13.8963
  73   2.0000      -0.506934       -13.7944
  74   2.0000      -0.493004       -13.4153
  75   2.0000      -0.477294       -12.9878
  76   2.0000      -0.464919       -12.6511
  77   2.0000      -0.450831       -12.2677
  78   2.0000      -0.429828       -11.6962
  79   2.0000      -0.423203       -11.5159
  80   2.0000      -0.417978       -11.3738
  81   2.0000      -0.400026       -10.8853
  82   0.0000      -0.232232        -6.3194
  83   0.0000      -0.169734        -4.6187
  84   0.0000      -0.147202        -4.0056
  85   0.0000      -0.094212        -2.5636
  86   0.0000      -0.089927        -2.4470

MULLIKEN ATOMIC CHARGES
-----------------------
   0 Ir:    0.567805
   1 C :   -0.214224
   2 C :   -0.227099
   3 C :   -0.146785
   4 C :   -0.247524
   5 C :   -0.266456
   6 N :   -0.443600
   7 C :   -0.124538
   8 C :   -0.625957
   9 H :    0.243415
  10 H :    0.224873
  11 H :    0.279760
  12 C :   -0.672785
  13 H :    0.245081
  14 H :    0.267930
  15 H :    0.230256
  16 H :    0.244638
  17 C :    0.044808
  18 C :   -0.158477
  19 H :    0.278020
  20 C :   -0.247659
  21 C :   -0.147614
  22 S :    0.275886
  23 C :   -0.427198
  24 H :    0.299380
  25 H :    0.265268
  26 H :    0.295755
  27 H :    0.298965
  28 H :    0.308778
  29 H :    0.303817
  30 O :   -0.244328
  31 O :   -0.585361
  32 C :    0.525691
  33 C :   -0.763756
  34 H :    0.244327
  35 H :    0.249297
  36 H :    0.243597
  37 H :    0.304909
  38 H :    0.301109
Sum of atomic charges:    1.0000000

LOEWDIN ATOMIC CHARGES
----------------------
   0 Ir:   -0.154608
   1 C :   -0.010342
   2 C :   -0.015739
   3 C :    0.024154
   4 C :   -0.081757
   5 C :   -0.084750
   6 N :   -0.056831
   7 C :   -0.055010
   8 C :   -0.349880
   9 H :    0.146059
  10 H :    0.137096
  11 H :    0.157475
  12 C :   -0.363359
  13 H :    0.140018
  14 H :    0.154001
  15 H :    0.135209
  16 H :    0.140028
  17 C :    0.030062
  18 C :   -0.218196
  19 H :    0.160927
  20 C :   -0.129780
  21 C :   -0.171180
  22 S :    0.430956
  23 C :   -0.237133
  24 H :    0.192692
  25 H :    0.158659
  26 H :    0.167102
  27 H :    0.190650
  28 H :    0.192451
  29 H :    0.196455
  30 O :   -0.033289
  31 O :   -0.263759
  32 C :    0.057499
  33 C :   -0.406325
  34 H :    0.148023
  35 H :    0.152107
  36 H :    0.139363
  37 H :    0.189200
  38 H :    0.191751

  Mayer bond orders larger than 0.100000
B(  0-Ir,  1-C ) :   0.5006 B(  0-Ir,  2-C ) :   0.5632 B(  0-Ir,  3-C ) :   0.4820
B(  0-Ir,  4-C ) :   0.3745 B(  0-Ir,  5-C ) :   0.4652 B(  0-Ir,  6-N ) :   0.4709
B(  0-Ir, 31-O ) :   0.7234 B(  1-C ,  2-C ) :   1.0881 B(  1-C ,  4-C ) :   1.2072
B(  1-C , 27-H ) :   0.9061 B(  2-C ,  5-C ) :   1.1681 B(  2-C , 28-H ) :   0.9007
B(  3-C ,  4-C ) :   1.1865 B(  3-C ,  5-C ) :   1.1394 B(  3-C , 37-H ) :   0.8903
B(  4-C , 38-H ) :   0.9036 B(  5-C , 29-H ) :   0.9052 B(  6-N ,  7-C ) :   0.8671
B(  6-N , 17-C ) :   1.6885 B(  7-C ,  8-C ) :   0.9749 B(  7-C , 12-C ) :   0.9825
B(  7-C , 13-H ) :   0.8948 B(  8-C ,  9-H ) :   0.9044 B(  8-C , 10-H ) :   0.9176
B(  8-C , 11-H ) :   0.8949 B( 12-C , 14-H ) :   0.9029 B( 12-C , 15-H ) :   0.9114
B( 12-C , 16-H ) :   0.9169 B( 17-C , 18-C ) :   1.0708 B( 17-C , 19-H ) :   0.8735
B( 18-C , 20-C ) :   1.4162 B( 18-C , 22-S ) :   1.1218 B( 20-C , 21-C ) :   1.3157
B( 20-C , 24-H ) :   0.8024 B( 21-C , 23-C ) :   1.4602 B( 21-C , 25-H ) :   0.9051
B( 22-S , 23-C ) :   1.2817 B( 23-C , 26-H ) :   0.8914 B( 30-O , 32-C ) :   2.0901
B( 31-O , 32-C ) :   1.0665 B( 32-C , 33-C ) :   0.9018 B( 33-C , 34-H ) :   0.9138
B( 33-C , 35-H ) :   0.9098 B( 33-C , 36-H ) :   0.9154

Dispersion correction           -0.028995115
FINAL SINGLE POINT ENERGY     -1288.270686223662
Dispersion correction            ... done

DIPOLE MOMENT
-------------
                                X             Y             Z
Electronic contribution:     23.90037     -76.04808     115.60333
Nuclear contribution   :    -24.18281      74.21857    -115.88696
                        -----------------------------------------
Total Dipole Moment    :     -0.28244      -1.82951      -0.28363
                        -----------------------------------------
Magnitude (a.u.)       :      1.87278
Magnitude (Debye)      :      4.76024

Rotational constants in cm-1:     0.010477     0.007670     0.007169
Rotational constants in MHz :   314.100368   229.934778   214.923506

                             ****ORCA TERMINATED NORMALLY****
TOTAL RUN TIME: 0 days 0 hours 15 minutes 8 seconds 159 msec
