                         Program Version 5.0.4 -  RELEASE  -
|  1> ! PBEh-3c OPT pal4
|  2>
|  3> %geom
|  4>  maxiter 600
|  5> end
|  6>
|  7> *xyzfile -1 1 reaction-6-prod-xtb_edited.xyz
|  8>
|  9>                          ****END OF INPUT****
 Total Charge           Charge          ....   -1
 Multiplicity           Mult            ....    1
 Number of Electrons    NEL             ....   80
Dispersion correction           -0.005387099
FINAL SINGLE POINT ENERGY     -1539.018556142647
Dispersion correction            ... done
Dispersion correction           -0.005323156
FINAL SINGLE POINT ENERGY     -1539.026196837216
Dispersion correction            ... done
Dispersion correction           -0.005411070
FINAL SINGLE POINT ENERGY     -1539.023232089674
Dispersion correction            ... done
FINAL SINGLE POINT ENERGY     -1539.026789341248
FINAL SINGLE POINT ENERGY     -1539.027522296666
FINAL SINGLE POINT ENERGY     -1539.027991935731
FINAL SINGLE POINT ENERGY     -1539.028158326776
FINAL SINGLE POINT ENERGY     -1539.028335016674
FINAL SINGLE POINT ENERGY     -1539.028566418188
FINAL SINGLE POINT ENERGY     -1539.029189506811
FINAL SINGLE POINT ENERGY     -1539.030146592680
FINAL SINGLE POINT ENERGY     -1539.030379312590
FINAL SINGLE POINT ENERGY     -1539.031097251134
FINAL SINGLE POINT ENERGY     -1539.031058480797
FINAL SINGLE POINT ENERGY     -1539.031267182009
FINAL SINGLE POINT ENERGY     -1539.031322184071
FINAL SINGLE POINT ENERGY     -1539.031412360631
Dispersion correction            ... done
Dispersion correction           -0.005370582
FINAL SINGLE POINT ENERGY     -1539.031427649479
Dispersion correction            ... done
Dispersion correction           -0.005370398
FINAL SINGLE POINT ENERGY     -1539.031439407119
Dispersion correction            ... done
                    ***********************HURRAY********************

CARTESIAN COORDINATES (ANGSTROEM)
---------------------------------
  Pt    -0.400853   -0.953658    0.404763
  Cl     0.127596   -0.302694    2.575052
  Cl    -2.413240   -1.982568    1.154068
  Cl    -0.852475   -1.594064   -1.785022
  C      0.654282    0.659892   -0.324111
  H      1.374249    1.037928    0.400679
  H      1.040863   -1.321084    0.204425
  H      1.151301    0.451080   -1.270812
  H     -0.108472    1.424096   -0.495473

 Multiplicity           Mult            ....    1
 Number of Electrons    NEL             ....   80
 Basis Dimension        Dim             ....  109

ORBITAL ENERGIES
----------------

  NO   OCC          E(Eh)            E(eV)
   0   2.0000    -102.100538     -2778.2969
   1   2.0000    -102.100353     -2778.2919
   2   2.0000    -102.076107     -2777.6321
   3   2.0000     -10.318952      -280.7930
   4   2.0000      -9.564832      -260.2723
   5   2.0000      -9.564589      -260.2657
   6   2.0000      -9.540623      -259.6136
   7   2.0000      -7.251177      -197.3146
   8   2.0000      -7.250924      -197.3077
   9   2.0000      -7.245637      -197.1638
  10   2.0000      -7.245415      -197.1578
  11   2.0000      -7.245235      -197.1529
  12   2.0000      -7.245011      -197.1468
  13   2.0000      -7.225762      -196.6230
  14   2.0000      -7.222534      -196.5352
  15   2.0000      -7.221244      -196.5000
  16   2.0000      -4.003011      -108.9275
  17   2.0000      -2.212947       -60.2174
  18   2.0000      -2.203778       -59.9679
  19   2.0000      -2.191117       -59.6233
  20   2.0000      -0.704587       -19.1728
  21   2.0000      -0.687853       -18.7174
  22   2.0000      -0.670901       -18.2561
  23   2.0000      -0.638104       -17.3637
  24   2.0000      -0.375243       -10.2109
  25   2.0000      -0.351094        -9.5537
  26   2.0000      -0.319445        -8.6925
  27   2.0000      -0.306996        -8.3538
  28   2.0000      -0.296805        -8.0765
  29   2.0000      -0.278870        -7.5884
  30   2.0000      -0.255678        -6.9574
  31   2.0000      -0.230540        -6.2733
  32   2.0000      -0.205152        -5.5825
  33   2.0000      -0.197946        -5.3864
  34   2.0000      -0.190978        -5.1968
  35   2.0000      -0.157355        -4.2819
  36   2.0000      -0.154860        -4.2140
  37   2.0000      -0.150080        -4.0839
  38   2.0000      -0.144652        -3.9362
  39   2.0000      -0.143661        -3.9092
  40   0.0000       0.111079         3.0226
  41   0.0000       0.115902         3.1538
  42   0.0000       0.219370         5.9694
  43   0.0000       0.255400         6.9498
  44   0.0000       0.268123         7.2960

MULLIKEN ATOMIC CHARGES
-----------------------
   0 Pt:    0.210750
   1 Cl:   -0.389788
   2 Cl:   -0.438049
   3 Cl:   -0.391587
   4 C :   -0.828664
   5 H :    0.239124
   6 H :    0.127819
   7 H :    0.235880
   8 H :    0.234515
Sum of atomic charges:   -1.0000000

LOEWDIN ATOMIC CHARGES
----------------------
   0 Pt:   -0.786795
   1 Cl:   -0.106514
   2 Cl:   -0.195504
   3 Cl:   -0.106132
   4 C :   -0.394965
   5 H :    0.142754
   6 H :    0.156527
   7 H :    0.140908
   8 H :    0.149721

  Mayer bond orders larger than 0.100000
B(  0-Pt,  1-Cl) :   0.7821 B(  0-Pt,  2-Cl) :   0.7278 B(  0-Pt,  3-Cl) :   0.7773
B(  0-Pt,  4-C ) :   0.7842 B(  0-Pt,  6-H ) :   0.7626 B(  1-Cl,  3-Cl) :   0.1420
B(  2-Cl,  4-C ) :   0.1244 B(  4-C ,  5-H ) :   0.8926 B(  4-C ,  6-H ) :   0.1154
B(  4-C ,  7-H ) :   0.8970 B(  4-C ,  8-H ) :   0.9025

Dispersion correction           -0.005370139
FINAL SINGLE POINT ENERGY     -1539.031441517033

DIPOLE MOMENT
-------------
                                X             Y             Z
Electronic contribution:     17.95883      -0.30426      -3.70291
Nuclear contribution   :    -16.74394       1.09810       3.19527
                        -----------------------------------------
Total Dipole Moment    :      1.21489       0.79384      -0.50764
                        -----------------------------------------
Magnitude (a.u.)       :      1.53748
Magnitude (Debye)      :      3.90796

Rotational constants in cm-1:     0.063699     0.042287     0.026491
Rotational constants in MHz :  1909.657475  1267.725234   794.166757

                             ****ORCA TERMINATED NORMALLY****
TOTAL RUN TIME: 0 days 0 hours 3 minutes 15 seconds 740 msec
