                         Program Version 5.0.4 -  RELEASE  -
|  1> ! PBEh-3c OPT pal4
|  2>
|  3> %geom
|  4>  maxiter 600
|  5> end
|  6>
|  7> *xyzfile -1 1 reaction-6-rct-xtb.xyz
|  8>
|  9>                          ****END OF INPUT****
 Total Charge           Charge          ....   -1
 Multiplicity           Mult            ....    1
 Number of Electrons    NEL             ....   80
Dispersion correction           -0.005031590
FINAL SINGLE POINT ENERGY     -1539.039815501716
Dispersion correction            ... done
Dispersion correction           -0.004886564
FINAL SINGLE POINT ENERGY     -1539.042102787012
Dispersion correction            ... done
Dispersion correction           -0.004896317
FINAL SINGLE POINT ENERGY     -1539.043459252230
Dispersion correction            ... done
FINAL SINGLE POINT ENERGY     -1539.026113202675
FINAL SINGLE POINT ENERGY     -1539.039810774884
FINAL SINGLE POINT ENERGY     -1539.033500424491
FINAL SINGLE POINT ENERGY     -1539.042847189239
FINAL SINGLE POINT ENERGY     -1539.033856789522
FINAL SINGLE POINT ENERGY     -1539.043704837365
FINAL SINGLE POINT ENERGY     -1539.032293931886
FINAL SINGLE POINT ENERGY     -1539.048893628056
FINAL SINGLE POINT ENERGY     -1539.048898347284
FINAL SINGLE POINT ENERGY     -1539.048892422507
FINAL SINGLE POINT ENERGY     -1539.048883852390
FINAL SINGLE POINT ENERGY     -1539.048890982611
FINAL SINGLE POINT ENERGY     -1539.048915935194
FINAL SINGLE POINT ENERGY     -1539.048936338638
Dispersion correction            ... done
Dispersion correction           -0.004279886
FINAL SINGLE POINT ENERGY     -1539.048936855716
Dispersion correction            ... done
Dispersion correction           -0.004278647
FINAL SINGLE POINT ENERGY     -1539.048934970163
Dispersion correction            ... done
                    ***********************HURRAY********************

CARTESIAN COORDINATES (ANGSTROEM)
---------------------------------
  Pt    -1.693178   -0.503950    0.526366
  Cl    -0.956623   -0.529425    2.710123
  Cl    -3.646772   -1.527926    0.902687
  Cl    -2.005500   -0.245927   -1.744180
  C      1.659477    0.563406   -0.479509
  H      2.122798    1.547075   -0.510907
  H      1.349224    0.342881    0.540725
  H      2.374085   -0.189684   -0.803580
  H      0.796500    0.543539   -1.141725

 Multiplicity           Mult            ....    1
 Number of Electrons    NEL             ....   80
 Basis Dimension        Dim             ....  109

ORBITAL ENERGIES
----------------

  NO   OCC          E(Eh)            E(eV)
   0   2.0000    -102.123367     -2778.9181
   1   2.0000    -102.097940     -2778.2262
   2   2.0000    -102.097899     -2778.2251
   3   2.0000     -10.308431      -280.5067
   4   2.0000      -9.587369      -260.8856
   5   2.0000      -9.562142      -260.1991
   6   2.0000      -9.562062      -260.1969
   7   2.0000      -7.275076      -197.9649
   8   2.0000      -7.267307      -197.7535
   9   2.0000      -7.267014      -197.7455
  10   2.0000      -7.247857      -197.2242
  11   2.0000      -7.247796      -197.2226
  12   2.0000      -7.243395      -197.1028
  13   2.0000      -7.243304      -197.1003
  14   2.0000      -7.242845      -197.0878
  15   2.0000      -7.242817      -197.0871
  16   2.0000      -3.943035      -107.2954
  17   2.0000      -2.160915       -58.8015
  18   2.0000      -2.157858       -58.7183
  19   2.0000      -2.119763       -57.6817
  20   2.0000      -0.714225       -19.4351
  21   2.0000      -0.696170       -18.9437
  22   2.0000      -0.685093       -18.6423
  23   2.0000      -0.670068       -18.2335
  24   2.0000      -0.343525        -9.3478
  25   2.0000      -0.341338        -9.2883
  26   2.0000      -0.338689        -9.2162
  27   2.0000      -0.294608        -8.0167
  28   2.0000      -0.282072        -7.6756
  29   2.0000      -0.279649        -7.6096
  30   2.0000      -0.236875        -6.4457
  31   2.0000      -0.236170        -6.4265
  32   2.0000      -0.212205        -5.7744
  33   2.0000      -0.189975        -5.1695
  34   2.0000      -0.189109        -5.1459
  35   2.0000      -0.167732        -4.5642
  36   2.0000      -0.146275        -3.9803
  37   2.0000      -0.140755        -3.8301
  38   2.0000      -0.126599        -3.4449
  39   2.0000      -0.118861        -3.2344
  40   0.0000       0.055436         1.5085
  41   0.0000       0.189175         5.1477
  42   0.0000       0.199871         5.4388
  43   0.0000       0.260546         7.0898
  44   0.0000       0.265183         7.2160

MULLIKEN ATOMIC CHARGES
-----------------------
   0 Pt:    0.162439
   1 Cl:   -0.430453
   2 Cl:   -0.304321
   3 Cl:   -0.430972
   4 C :   -0.915535
   5 H :    0.197372
   6 H :    0.254483
   7 H :    0.203976
   8 H :    0.263010
Sum of atomic charges:   -1.0000000

LOEWDIN ATOMIC CHARGES
----------------------
   0 Pt:   -0.816948
   1 Cl:   -0.122164
   2 Cl:    0.035336
   3 Cl:   -0.124991
   4 C :   -0.520078
   5 H :    0.117115
   6 H :    0.153051
   7 H :    0.121556
   8 H :    0.157123

  Mayer bond orders larger than 0.100000
B(  0-Pt,  1-Cl) :   0.8270 B(  0-Pt,  2-Cl) :   1.0267 B(  0-Pt,  3-Cl) :   0.8094
B(  1-Cl,  3-Cl) :   0.1088 B(  4-C ,  5-H ) :   0.9392 B(  4-C ,  6-H ) :   0.9063
B(  4-C ,  7-H ) :   0.9393 B(  4-C ,  8-H ) :   0.8972

Dispersion correction           -0.004277527
FINAL SINGLE POINT ENERGY     -1539.048935554461

DIPOLE MOMENT
-------------
                                X             Y             Z
Electronic contribution:    -13.64233       0.48383       6.75611
Nuclear contribution   :     14.43537      -0.12696      -6.94203
                        -----------------------------------------
Total Dipole Moment    :      0.79303       0.35688      -0.18591
                        -----------------------------------------
Magnitude (a.u.)       :      0.88928
Magnitude (Debye)      :      2.26037

Rotational constants in cm-1:     0.045349     0.041482     0.021922
Rotational constants in MHz :  1359.516580  1243.610444   657.207120

                             ****ORCA TERMINATED NORMALLY****
TOTAL RUN TIME: 0 days 0 hours 17 minutes 54 seconds 346 msec
