                         Program Version 5.0.3 -  RELEASE  -
|  1> ! EnGrad PBEh-3c
|  2> %output
|  3> xyzfile=True
|  4> end
|  5> %scf
|  6> maxiter 250
|  7> end
|  8> %output
|  9> Print[P_Hirshfeld] = 1
| 10> end
| 11> % maxcore
| 12> 4000
| 13> %pal nprocs 4
| 14> end
| 15> *xyz -1 1
| 16> Pt  -1.35217000  -1.05373000   0.67763000
| 17> Cl  -0.32334000  -0.96830000   2.73825000
| 18> Cl  -2.80942000  -2.67395000   1.18554000
| 19> Cl  -2.06848000  -0.77739000  -1.49724000
| 20> C    1.30911000   1.09625000  -0.62102000
| 21> H    1.43281000   2.17689000  -0.60740000
| 22> H    1.24079000   0.72779000   0.40140000
| 23> H    2.16509000   0.63469000  -1.10795000
| 24> H    0.40561000   0.83774000  -1.16921000
| 25> *
| 26>
| 27>                          ****END OF INPUT****

CARTESIAN COORDINATES (ANGSTROEM)
---------------------------------
  Pt    -1.352170   -1.053730    0.677630
  Cl    -0.323340   -0.968300    2.738250
  Cl    -2.809420   -2.673950    1.185540
  Cl    -2.068480   -0.777390   -1.497240
  C      1.309110    1.096250   -0.621020
  H      1.432810    2.176890   -0.607400
  H      1.240790    0.727790    0.401400
  H      2.165090    0.634690   -1.107950
  H      0.405610    0.837740   -1.169210

 Total Charge           Charge          ....   -1
 Multiplicity           Mult            ....    1
 Number of Electrons    NEL             ....   80
 Basis Dimension        Dim             ....  109

ORBITAL ENERGIES
----------------

  NO   OCC          E(Eh)            E(eV)
   0   2.0000    -102.123596     -2778.9243
   1   2.0000    -102.098085     -2778.2301
   2   2.0000    -102.097859     -2778.2240
   3   2.0000     -10.308432      -280.5067
   4   2.0000      -9.587469      -260.8883
   5   2.0000      -9.562207      -260.2009
   6   2.0000      -9.562026      -260.1959
   7   2.0000      -7.275119      -197.9661
   8   2.0000      -7.267455      -197.7575
   9   2.0000      -7.267192      -197.7503
  10   2.0000      -7.247854      -197.2241
  11   2.0000      -7.247755      -197.2215
  12   2.0000      -7.243539      -197.1067
  13   2.0000      -7.243239      -197.0986
  14   2.0000      -7.242962      -197.0910
  15   2.0000      -7.242793      -197.0864
  16   2.0000      -3.943034      -107.2954
  17   2.0000      -2.160889       -58.8008
  18   2.0000      -2.157855       -58.7182
  19   2.0000      -2.119741       -57.6811
  20   2.0000      -0.714260       -19.4360
  21   2.0000      -0.696190       -18.9443
  22   2.0000      -0.685108       -18.6427
  23   2.0000      -0.670070       -18.2335
  24   2.0000      -0.343526        -9.3478
  25   2.0000      -0.341370        -9.2892
  26   2.0000      -0.338659        -9.2154
  27   2.0000      -0.294626        -8.0172
  28   2.0000      -0.282111        -7.6766
  29   2.0000      -0.279609        -7.6085
  30   2.0000      -0.236858        -6.4452
  31   2.0000      -0.236168        -6.4264
  32   2.0000      -0.212202        -5.7743
  33   2.0000      -0.189988        -5.1698
  34   2.0000      -0.189108        -5.1459
  35   2.0000      -0.167725        -4.5640
  36   2.0000      -0.146279        -3.9805
  37   2.0000      -0.140725        -3.8293
  38   2.0000      -0.126543        -3.4434
  39   2.0000      -0.118854        -3.2342
  40   0.0000       0.055392         1.5073
  41   0.0000       0.189177         5.1478
  42   0.0000       0.199866         5.4386
  43   0.0000       0.260580         7.0907
  44   0.0000       0.265181         7.2159

MULLIKEN ATOMIC CHARGES
-----------------------
   0 Pt:    0.161884
   1 Cl:   -0.430253
   2 Cl:   -0.304163
   3 Cl:   -0.430827
   4 C :   -0.915500
   5 H :    0.197346
   6 H :    0.254440
   7 H :    0.204048
   8 H :    0.263025
Sum of atomic charges:   -1.0000000

LOEWDIN ATOMIC CHARGES
----------------------
   0 Pt:   -0.817303
   1 Cl:   -0.122016
   2 Cl:    0.035481
   3 Cl:   -0.124947
   4 C :   -0.520062
   5 H :    0.117106
   6 H :    0.153026
   7 H :    0.121591
   8 H :    0.157124

  Mayer bond orders larger than 0.100000
B(  0-Pt,  1-Cl) :   0.8272 B(  0-Pt,  2-Cl) :   1.0270 B(  0-Pt,  3-Cl) :   0.8096
B(  1-Cl,  3-Cl) :   0.1088 B(  4-C ,  5-H ) :   0.9392 B(  4-C ,  6-H ) :   0.9063
B(  4-C ,  7-H ) :   0.9393 B(  4-C ,  8-H ) :   0.8972

Dispersion correction           -0.004277528
FINAL SINGLE POINT ENERGY     -1539.048800191022
Dispersion correction            ... done

DIPOLE MOMENT
-------------
                                X             Y             Z
Electronic contribution:    -11.92982      -4.34563       8.41379
Nuclear contribution   :     12.53466       4.94970      -8.65914
                        -----------------------------------------
Total Dipole Moment    :      0.60485       0.60407      -0.24534
                        -----------------------------------------
Magnitude (a.u.)       :      0.88934
Magnitude (Debye)      :      2.26053

Rotational constants in cm-1:     0.045349     0.041482     0.021922
Rotational constants in MHz :  1359.516498  1243.609975   657.207143

                             ****ORCA TERMINATED NORMALLY****
TOTAL RUN TIME: 0 days 0 hours 0 minutes 12 seconds 259 msec
