                         Program Version 5.0.4 -  RELEASE  -
|  1> %pal nprocs 8 end
|  2>
|  3>  *xyzfile 1 1 DHSGS_ts_guess.xyz
|  4>
|  5>
|  6>                          ****END OF INPUT****
|  1>
|  2>
|  3>   ! PBEh-3c OptTS Freq pal8
|  4>
|  5>   %geom
|  6>    calc_hess true
|  7>    recalc_hess 20
|  8>    maxiter 600
|  9>   end
| 10>
| 11>
| 12>                          ****END OF INPUT****
 Total Charge           Charge          ....    1
 Multiplicity           Mult            ....    1
 Number of Electrons    NEL             ....   82
Dispersion correction           -0.011492273
FINAL SINGLE POINT ENERGY     -1104.424626686661
Dispersion correction            ... done
Dispersion correction in the Hessian             ... done   (      0.7 sec)
Dispersion correction           -0.011273029
FINAL SINGLE POINT ENERGY     -1104.424324290842
Dispersion correction            ... done
Dispersion correction           -0.011112650
FINAL SINGLE POINT ENERGY     -1104.426752919637
FINAL SINGLE POINT ENERGY     -1104.428354623770
FINAL SINGLE POINT ENERGY     -1104.429924872611
FINAL SINGLE POINT ENERGY     -1104.431104895696
FINAL SINGLE POINT ENERGY     -1104.431932654701
FINAL SINGLE POINT ENERGY     -1104.432332910354
FINAL SINGLE POINT ENERGY     -1104.432635328448
FINAL SINGLE POINT ENERGY     -1104.432888059328
FINAL SINGLE POINT ENERGY     -1104.433569959478
FINAL SINGLE POINT ENERGY     -1104.433684215648
FINAL SINGLE POINT ENERGY     -1104.433675682061
FINAL SINGLE POINT ENERGY     -1104.433718017046
FINAL SINGLE POINT ENERGY     -1104.433724215884
FINAL SINGLE POINT ENERGY     -1104.433752015963
FINAL SINGLE POINT ENERGY     -1104.433714319596
Dispersion correction           -0.010726235
FINAL SINGLE POINT ENERGY     -1104.433749556977
Dispersion correction            ... done
                    ***********************HURRAY********************
Dispersion correction           -0.010726469
FINAL SINGLE POINT ENERGY     -1104.433750146422
Dispersion correction in the Hessian             ... done   (      0.6 sec)

VIBRATIONAL FREQUENCIES
-----------------------

Scaling factor for frequencies =  1.000000000  (already applied!)

   0:         0.00 cm**-1
   1:         0.00 cm**-1
   2:         0.00 cm**-1
   3:         0.00 cm**-1
   4:         0.00 cm**-1
   5:         0.00 cm**-1
   6:     -1172.74 cm**-1 ***imaginary mode***
   7:        37.73 cm**-1
   8:        60.77 cm**-1
   9:        90.53 cm**-1
  10:       106.33 cm**-1
  11:       113.92 cm**-1
  12:       130.29 cm**-1
  13:       147.67 cm**-1
  14:       218.16 cm**-1
  15:       231.35 cm**-1
  16:       271.43 cm**-1
  17:       287.31 cm**-1
  18:       334.76 cm**-1
  19:       460.30 cm**-1
  20:       468.68 cm**-1
  21:       639.42 cm**-1
  22:       654.20 cm**-1
  23:       697.88 cm**-1
  24:       776.83 cm**-1
  25:       797.13 cm**-1
  26:       826.19 cm**-1
  27:       898.34 cm**-1
  28:       916.90 cm**-1
  29:      1066.30 cm**-1
  30:      1089.08 cm**-1
  31:      1134.26 cm**-1
  32:      1139.15 cm**-1
  33:      1178.50 cm**-1
  34:      1182.26 cm**-1
  35:      1184.61 cm**-1
  36:      1287.73 cm**-1
  37:      1311.90 cm**-1
  38:      1423.34 cm**-1
  39:      1435.78 cm**-1
  40:      1452.12 cm**-1
  41:      1471.64 cm**-1
  42:      1500.52 cm**-1
  43:      1502.47 cm**-1
  44:      1517.12 cm**-1
  45:      1535.22 cm**-1
  46:      1540.95 cm**-1
  47:      1556.68 cm**-1
  48:      1561.43 cm**-1
  49:      1565.53 cm**-1
  50:      1611.01 cm**-1
  51:      1678.66 cm**-1
  52:      2500.00 cm**-1
  53:      3097.47 cm**-1
  54:      3129.61 cm**-1
  55:      3133.68 cm**-1
  56:      3220.72 cm**-1
  57:      3222.89 cm**-1
  58:      3235.24 cm**-1
  59:      3236.02 cm**-1
  60:      3259.22 cm**-1
  61:      3354.81 cm**-1
  62:      3373.77 cm**-1

IR SPECTRUM
-----------

 Mode   freq       eps      Int      T**2         TX        TY        TZ
       cm**-1   L/(mol*cm) km/mol    a.u.
----------------------------------------------------------------------------
  7:     37.73   0.001131    5.72  0.009357  ( 0.086826  0.041374  0.010339)
  8:     60.77   0.000159    0.80  0.000815  ( 0.009341  0.003472  0.026745)
  9:     90.53   0.000163    0.82  0.000560  (-0.008419 -0.020117  0.009195)
 10:    106.33   0.000009    0.05  0.000027  (-0.004543 -0.001490 -0.001932)
 11:    113.92   0.001321    6.68  0.003618  ( 0.055139  0.019522 -0.014032)
 12:    130.29   0.000237    1.20  0.000568  ( 0.001818  0.022624 -0.007268)
 13:    147.67   0.000254    1.28  0.000537  ( 0.000345 -0.023029  0.002461)
 14:    218.16   0.001071    5.41  0.001532  ( 0.006642 -0.014597  0.035701)
 15:    231.35   0.002385   12.06  0.003218  (-0.042690  0.022002 -0.030186)
 16:    271.43   0.005541   28.00  0.006370  (-0.054089  0.043229  0.039698)
 17:    287.31   0.000882    4.46  0.000958  ( 0.020790 -0.017433 -0.014901)
 18:    334.76   0.003081   15.57  0.002872  ( 0.016711 -0.003996 -0.050759)
 19:    460.30   0.007174   36.26  0.004864  (-0.006969  0.046031 -0.051928)
 20:    468.68   0.000783    3.96  0.000521  ( 0.012690  0.013517  0.013328)
 21:    639.42   0.000467    2.36  0.000228  (-0.003130 -0.001182  0.014724)
 22:    654.20   0.000025    0.13  0.000012  ( 0.002040  0.002795  0.000328)
 23:    697.88   0.000501    2.53  0.000224  (-0.009838  0.008224 -0.007735)
 24:    776.83   0.002904   14.68  0.001167  ( 0.018701  0.028541  0.001562)
 25:    797.13   0.011925   60.26  0.004668  ( 0.056365 -0.038137  0.006075)
 26:    826.19   0.009853   49.79  0.003721  (-0.019960  0.004416  0.057476)
 27:    898.34   0.003182   16.08  0.001106  (-0.007994 -0.031107  0.008599)
 28:    916.90   0.000002    0.01  0.000001  (-0.000720 -0.000263 -0.000254)
 29:   1066.30   0.000122    0.62  0.000036  (-0.003518 -0.004508 -0.001775)
 30:   1089.08   0.000018    0.09  0.000005  (-0.000660 -0.001343  0.001713)
 31:   1134.26   0.000345    1.74  0.000095  (-0.000929 -0.004742 -0.008463)
 32:   1139.15   0.000421    2.13  0.000115  ( 0.005318  0.007922 -0.004921)
 33:   1178.50   0.000434    2.20  0.000115  (-0.006283 -0.008517 -0.001740)
 34:   1182.26   0.001380    6.97  0.000364  ( 0.002928  0.003199 -0.018584)
 35:   1184.61   0.000732    3.70  0.000193  ( 0.003510 -0.003199 -0.013046)
 36:   1287.73   0.009587   48.45  0.002323  ( 0.026528  0.039688  0.006671)
 37:   1311.90   0.007973   40.29  0.001896  ( 0.002570  0.043116  0.005560)
 38:   1423.34   0.001949    9.85  0.000427  ( 0.018058  0.009914 -0.001708)
 39:   1435.78   0.000190    0.96  0.000041  ( 0.001635  0.001623 -0.005993)
 40:   1452.12   0.000664    3.36  0.000143  ( 0.005927  0.010375  0.000158)
 41:   1471.64   0.004080   20.62  0.000865  (-0.004149 -0.003747  0.028876)
 42:   1500.52   0.010147   51.28  0.002110  (-0.021520 -0.023491  0.033095)
 43:   1502.47   0.001973    9.97  0.000410  ( 0.010362  0.015372 -0.008128)
 44:   1517.12   0.000611    3.09  0.000126  (-0.000599  0.003128 -0.010746)
 45:   1535.22   0.002438   12.32  0.000496  ( 0.021679  0.004921  0.001145)
 46:   1540.95   0.002828   14.29  0.000573  ( 0.011019 -0.020852 -0.004068)
 47:   1556.68   0.006354   32.11  0.001274  (-0.019994 -0.028718 -0.007023)
 48:   1561.43   0.001950    9.85  0.000390  (-0.001650  0.009067 -0.017458)
 49:   1565.53   0.004374   22.10  0.000872  (-0.015323 -0.025079 -0.002855)
 50:   1611.01   0.009571   48.37  0.001854  (-0.000799  0.033021 -0.027621)
 51:   1678.66   0.002987   15.09  0.000555  ( 0.003689  0.001412 -0.023230)
 52:   2500.00   0.017171   86.78  0.002143  ( 0.041362  0.017281  0.011574)
 53:   3097.47   0.000433    2.19  0.000044  (-0.004939  0.001856 -0.003975)
 54:   3129.61   0.002675   13.52  0.000267  (-0.007808 -0.013102 -0.005839)
 55:   3133.68   0.002387   12.06  0.000238  (-0.007568 -0.011908 -0.006217)
 56:   3220.72   0.000278    1.40  0.000027  ( 0.004232 -0.002443 -0.001741)
 57:   3222.89   0.000604    3.05  0.000059  (-0.001020  0.004160 -0.006338)
 58:   3235.24   0.000169    0.86  0.000016  ( 0.003138  0.000046 -0.002548)
 59:   3236.02   0.000114    0.58  0.000011  (-0.002226  0.002330  0.000771)
 60:   3259.22   0.000884    4.47  0.000085  (-0.004890  0.007380 -0.002495)
 61:   3354.81   0.002174   10.99  0.000202  ( 0.007840  0.011748  0.001660)
 62:   3373.77   0.002116   10.69  0.000196  (-0.002396 -0.000277  0.013780)

--------------------------
THERMOCHEMISTRY AT 298.15K
--------------------------

Temperature         ... 298.15 K
Pressure            ... 1.00 atm
Total Mass          ... 157.14 AMU

Throughout the following assumptions are being made:
  (1) The electronic state is orbitally nondegenerate
  (2) There are no thermally accessible electronically excited states
  (3) Hindered rotations indicated by low frequency modes are not
      treated as such but are treated as vibrations and this may
      cause some error
  (4) All equations used are the standard statistical mechanics
      equations for an ideal gas
  (5) All vibrations are strictly harmonic

freq.      37.73  E(vib)   ...       0.54
freq.      60.77  E(vib)   ...       0.51
freq.      90.53  E(vib)   ...       0.47
freq.     106.33  E(vib)   ...       0.45
freq.     113.92  E(vib)   ...       0.44
freq.     130.29  E(vib)   ...       0.43
freq.     147.67  E(vib)   ...       0.41
freq.     218.16  E(vib)   ...       0.33
freq.     231.35  E(vib)   ...       0.32
freq.     271.43  E(vib)   ...       0.29
freq.     287.31  E(vib)   ...       0.27
freq.     334.76  E(vib)   ...       0.24
freq.     460.30  E(vib)   ...       0.16
freq.     468.68  E(vib)   ...       0.16
freq.     639.42  E(vib)   ...       0.09
freq.     654.20  E(vib)   ...       0.08
freq.     697.88  E(vib)   ...       0.07
freq.     776.83  E(vib)   ...       0.05
freq.     797.13  E(vib)   ...       0.05
freq.     826.19  E(vib)   ...       0.04
freq.     898.34  E(vib)   ...       0.03
freq.     916.90  E(vib)   ...       0.03
freq.    1066.30  E(vib)   ...       0.02
freq.    1089.08  E(vib)   ...       0.02
freq.    1134.26  E(vib)   ...       0.01
freq.    1139.15  E(vib)   ...       0.01
freq.    1178.50  E(vib)   ...       0.01
freq.    1182.26  E(vib)   ...       0.01
freq.    1184.61  E(vib)   ...       0.01
freq.    1287.73  E(vib)   ...       0.01
freq.    1311.90  E(vib)   ...       0.01
freq.    1423.34  E(vib)   ...       0.00
freq.    1435.78  E(vib)   ...       0.00
freq.    1452.12  E(vib)   ...       0.00
freq.    1471.64  E(vib)   ...       0.00
freq.    1500.52  E(vib)   ...       0.00
freq.    1502.47  E(vib)   ...       0.00
freq.    1517.12  E(vib)   ...       0.00
freq.    1535.22  E(vib)   ...       0.00
freq.    1540.95  E(vib)   ...       0.00
freq.    1556.68  E(vib)   ...       0.00
freq.    1561.43  E(vib)   ...       0.00
freq.    1565.53  E(vib)   ...       0.00
freq.    1611.01  E(vib)   ...       0.00
freq.    1678.66  E(vib)   ...       0.00
freq.    2500.00  E(vib)   ...       0.00
freq.    3097.47  E(vib)   ...       0.00
freq.    3129.61  E(vib)   ...       0.00
freq.    3133.68  E(vib)   ...       0.00
freq.    3220.72  E(vib)   ...       0.00
freq.    3222.89  E(vib)   ...       0.00
freq.    3235.24  E(vib)   ...       0.00
freq.    3236.02  E(vib)   ...       0.00
freq.    3259.22  E(vib)   ...       0.00
freq.    3354.81  E(vib)   ...       0.00
freq.    3373.77  E(vib)   ...       0.00

------------
INNER ENERGY
------------

The inner energy is: U= E(el) + E(ZPE) + E(vib) + E(rot) + E(trans)
    E(el)   - is the total energy from the electronic structure calculation
              = E(kin-el) + E(nuc-el) + E(el-el) + E(nuc-nuc)
    E(ZPE)  - the the zero temperature vibrational energy from the frequency calculation
    E(vib)  - the the finite temperature correction to E(ZPE) due to population
              of excited vibrational states
    E(rot)  - is the rotational thermal energy
    E(trans)- is the translational thermal energy

Summary of contributions to the inner energy U:
Electronic energy                ...  -1104.43375015 Eh
Zero point energy                ...      0.17281226 Eh     108.44 kcal/mol
Thermal vibrational correction   ...      0.00896927 Eh       5.63 kcal/mol
Thermal rotational correction    ...      0.00141627 Eh       0.89 kcal/mol
Thermal translational correction ...      0.00141627 Eh       0.89 kcal/mol
-----------------------------------------------------------------------
Total thermal energy                  -1104.24913608 Eh

Summary of corrections to the electronic energy:
(perhaps to be used in another calculation)
Total thermal correction                  0.01180181 Eh       7.41 kcal/mol
Non-thermal (ZPE) correction              0.17281226 Eh     108.44 kcal/mol
-----------------------------------------------------------------------
Total correction                          0.18461407 Eh     115.85 kcal/mol

--------
ENTHALPY
--------

The enthalpy is H = U + kB*T
                kB is Boltzmann's constant
Total free energy                 ...  -1104.24913608 Eh
Thermal Enthalpy correction       ...      0.00094421 Eh       0.59 kcal/mol
-----------------------------------------------------------------------
Total Enthalpy                    ...  -1104.24819187 Eh

Note: Only C1 symmetry has been detected, increase convergence thresholds
      if your molecule has a higher symmetry. Symmetry factor of 1.0 is
      used for the rotational entropy correction.

Note: Rotational entropy computed according to Herzberg
Infrared and Raman Spectra, Chapter V,1, Van Nostrand Reinhold, 1945
Point Group:  C1, Symmetry Number:   1
Rotational constants in cm-1:     0.063281     0.026661     0.019836

Vibrational entropy computed according to the QRRHO of S. Grimme
Chem.Eur.J. 2012 18 9955

-------
ENTROPY
-------

The entropy contributions are T*S = T*(S(el)+S(vib)+S(rot)+S(trans))
     S(el)   - electronic entropy
     S(vib)  - vibrational entropy
     S(rot)  - rotational entropy
     S(trans)- translational entropy
The entropies will be listed as multiplied by the temperature to get
units of energy

Electronic entropy                ...      0.00000000 Eh      0.00 kcal/mol
Vibrational entropy               ...      0.01636073 Eh     10.27 kcal/mol
Rotational entropy                ...      0.01437570 Eh      9.02 kcal/mol
Translational entropy             ...      0.01951131 Eh     12.24 kcal/mol
-----------------------------------------------------------------------
Final entropy term                ...      0.05024774 Eh     31.53 kcal/mol

In case the symmetry of your molecule has not been determined correctly
or in case you have a reason to use a different symmetry number we print
out the resulting rotational entropy values for sn=1,12 :
 --------------------------------------------------------
|  sn= 1 | S(rot)=       0.01437570 Eh      9.02 kcal/mol|
|  sn= 2 | S(rot)=       0.01372124 Eh      8.61 kcal/mol|
|  sn= 3 | S(rot)=       0.01333841 Eh      8.37 kcal/mol|
|  sn= 4 | S(rot)=       0.01306678 Eh      8.20 kcal/mol|
|  sn= 5 | S(rot)=       0.01285609 Eh      8.07 kcal/mol|
|  sn= 6 | S(rot)=       0.01268395 Eh      7.96 kcal/mol|
|  sn= 7 | S(rot)=       0.01253840 Eh      7.87 kcal/mol|

|  1>
|  2>
|  3>   ! PBEh-3c IRC pal8
|  4>   %irc
|  5>     maxiter 600
|  6>     inithess read
|  7>     hess_filename "reaction-5-dhsgs_optts_Compound_1.hess"
|  8>   end
|  9>
| 10>
| 11>                          ****END OF INPUT****

CARTESIAN COORDINATES (ANGSTROEM)
---------------------------------
  Sc     0.613903   -0.176294   -1.930048
  C      0.163024   -0.274436    0.359622
  N     -0.565086   -1.177161    1.044747
  C     -0.580483   -0.890515    2.383645
  C      0.159746    0.227735    2.543675
  N      0.601320    0.585441    1.298182
  C      1.446697    1.740053    1.052697
  H      2.467170    1.544976    1.376719
  H      1.061152    2.602389    1.591698
  H      1.449847    1.974638   -0.010613
  C     -1.237124   -2.323107    0.466005
  H     -1.322902   -2.194624   -0.611423
  H     -2.241984   -2.412543    0.872314
  H     -0.687944   -3.240320    0.670412
  H     -1.109754   -1.487776    3.106322
  H      0.396264    0.787217    3.432580
  C     -0.180807    0.854611   -3.521866
  H      0.422457    0.544675   -4.387971
  H     -0.724539    1.751407   -3.805676
  H     -0.982195    0.042381   -3.354473
  H      0.820277    1.505513   -2.576945

 Multiplicity           Mult            ....    1
 Number of Electrons    NEL             ....   82
 Basis Dimension        Dim             ....  175

ORBITAL ENERGIES
----------------

  NO   OCC          E(Eh)            E(eV)
   0   2.0000    -162.826497     -4430.7342
   1   2.0000     -18.135619      -493.4953
   2   2.0000     -14.977867      -407.5685
   3   2.0000     -14.970330      -407.3634
   4   2.0000     -14.964703      -407.2103
   5   2.0000     -14.858656      -404.3246
   6   2.0000     -14.857162      -404.2839
   7   2.0000     -10.637465      -289.4601
   8   2.0000     -10.623228      -289.0727
   9   2.0000     -10.622136      -289.0430
  10   2.0000     -10.621786      -289.0335
  11   2.0000     -10.612535      -288.7818
  12   2.0000     -10.584303      -288.0135
  13   2.0000      -2.362590       -64.2893
  14   2.0000      -1.520973       -41.3878
  15   2.0000      -1.505381       -40.9635
  16   2.0000      -1.503075       -40.9007
  17   2.0000      -1.307009       -35.5655
  18   2.0000      -1.184220       -32.2243
  19   2.0000      -1.021451       -27.7951
  20   2.0000      -0.977527       -26.5999
  21   2.0000      -0.922635       -25.1062
  22   2.0000      -0.914035       -24.8722
  23   2.0000      -0.838658       -22.8210
  24   2.0000      -0.800567       -21.7845
  25   2.0000      -0.747108       -20.3298
  26   2.0000      -0.699637       -19.0381
  27   2.0000      -0.672050       -18.2874
  28   2.0000      -0.654248       -17.8030
  29   2.0000      -0.652993       -17.7688
  30   2.0000      -0.646255       -17.5855
  31   2.0000      -0.617203       -16.7949
  32   2.0000      -0.606693       -16.5090
  33   2.0000      -0.601455       -16.3664
  34   2.0000      -0.593285       -16.1441
  35   2.0000      -0.587401       -15.9840
  36   2.0000      -0.552413       -15.0319
  37   2.0000      -0.503843       -13.7103
  38   2.0000      -0.481938       -13.1142
  39   2.0000      -0.432366       -11.7653
  40   2.0000      -0.335246        -9.1225
  41   0.0000      -0.166888        -4.5413
  42   0.0000      -0.158043        -4.3006
  43   0.0000      -0.146035        -3.9738
  44   0.0000      -0.126336        -3.4378
  45   0.0000      -0.119534        -3.2527

MULLIKEN ATOMIC CHARGES
-----------------------
   0 Sc:    0.583128
   1 C :    0.173926
   2 N :   -0.416594
   3 C :   -0.067723
   4 C :   -0.063380
   5 N :   -0.412780
   6 C :   -0.528360
   7 H :    0.271280
   8 H :    0.275127
   9 H :    0.264008
  10 C :   -0.517756
  11 H :    0.240030
  12 H :    0.279499
  13 H :    0.274119
  14 H :    0.300439
  15 H :    0.300461
  16 C :   -0.926073
  17 H :    0.294175
  18 H :    0.320883
  19 H :    0.220777
  20 H :    0.134815
Sum of atomic charges:    1.0000000

LOEWDIN ATOMIC CHARGES
----------------------
   0 Sc:    0.170787
   1 C :   -0.046148
   2 N :   -0.003448
   3 C :   -0.083615
   4 C :   -0.081613
   5 N :    0.001503
   6 C :   -0.241713
   7 H :    0.149691
   8 H :    0.154370
   9 H :    0.155207
  10 C :   -0.236190
  11 H :    0.143693
  12 H :    0.156202
  13 H :    0.150513
  14 H :    0.167306
  15 H :    0.167679
  16 C :   -0.408546
  17 H :    0.186730
  18 H :    0.176035
  19 H :    0.178472
  20 H :    0.143085

  Mayer bond orders larger than 0.100000
B(  0-Sc,  1-C ) :   0.6325 B(  0-Sc, 16-C ) :   0.8191 B(  0-Sc, 19-H ) :   0.1873
B(  0-Sc, 20-H ) :   0.6602 B(  1-C ,  2-N ) :   1.2201 B(  1-C ,  5-N ) :   1.2309
B(  2-N ,  3-C ) :   1.1445 B(  2-N , 10-C ) :   0.9199 B(  3-C ,  4-C ) :   1.6413
B(  3-C , 14-H ) :   0.8798 B(  4-C ,  5-N ) :   1.1476 B(  4-C , 15-H ) :   0.8800
B(  5-N ,  6-C ) :   0.9117 B(  6-C ,  7-H ) :   0.8957 B(  6-C ,  8-H ) :   0.8996
B(  6-C ,  9-H ) :   0.8827 B( 10-C , 11-H ) :   0.9034 B( 10-C , 12-H ) :   0.8982
B( 10-C , 13-H ) :   0.8940 B( 16-C , 17-H ) :   0.8519 B( 16-C , 18-H ) :   0.8864
B( 16-C , 19-H ) :   0.7443 B( 16-C , 20-H ) :   0.2964

Dispersion correction           -0.010726469
FINAL SINGLE POINT ENERGY     -1104.433750025200
Dispersion correction            ... done

DIPOLE MOMENT
-------------
                                X             Y             Z
Electronic contribution:      3.75025      -3.77133      -3.11041
Nuclear contribution   :     -3.46594       3.04710       2.85538
                        -----------------------------------------
Total Dipole Moment    :      0.28432      -0.72423      -0.25503
                        -----------------------------------------
Magnitude (a.u.)       :      0.81877
Magnitude (Debye)      :      2.08114

Rotational constants in cm-1:     0.063281     0.026661     0.019836
Rotational constants in MHz :  1897.108279   799.282652   594.663691

                      ***********************HURRAY********************
                             ****ORCA TERMINATED NORMALLY****
TOTAL RUN TIME: 0 days 1 hours 51 minutes 49 seconds 677 msec
