                         Program Version 5.0.3 -  RELEASE  -
|  1> ! EnGrad PBEh-3c
|  2> %output
|  3> xyzfile=True
|  4> end
|  5> %scf
|  6> maxiter 250
|  7> end
|  8> %output
|  9> Print[P_Hirshfeld] = 1
| 10> end
| 11> % maxcore
| 12> 4000
| 13> *xyz -1 1
| 14> C   -2.22776218  -0.05653594   0.67206805
| 15> C   -1.86160466   0.99042765   1.52737521
| 16> C   -3.58476784  -0.38602332   0.65595417
| 17> C   -4.58377327   0.52344671   0.98359349
| 18> C   -4.21030611   1.63601803   1.71995706
| 19> C   -2.86360652   1.92471671   1.83865726
| 20> H   -2.61123542  -1.62214892  -1.91288765
| 21> H   -3.92522572  -1.40318799   0.51134569
| 22> H   -2.62669877   2.95020965   2.11402951
| 23> H   -5.63459092   0.30661823   0.82808738
| 24> H   -4.97316589   2.32842651   2.05515693
| 25> C   -0.44584917   1.42689308   1.82181630
| 26> C    0.71888908   0.46499919   1.94685686
| 27> H   -0.45787976   1.99530597   2.76164012
| 28> H   -0.26060796   2.17490500   1.04366067
| 29> C    1.75041919   0.64268504   0.85542206
| 30> H    0.36703537  -0.56925859   1.94642371
| 31> H    1.24584826   0.53386415   2.90878867
| 32> C    1.58848036   0.06362017  -0.41180125
| 33> C    2.62014806   0.25912901  -1.33170365
| 34> C    3.66037982   1.15923774  -1.12484730
| 35> C    2.92181688   1.35762278   1.13174103
| 36> C    3.74119591   1.80073690   0.10019449
| 37> H    2.67832340  -0.33897544  -2.23272133
| 38> H    4.38406993   1.36044323  -1.90654060
| 39> H    3.04455126   1.79417941   2.11863624
| 40> H    4.44126711   2.61737751   0.22809479
| 41> Pd   0.18115827  -1.27326854  -0.70422502
| 42> Br  -1.51991768  -3.76476472  -0.68823796
| 43> P    1.41330687  -3.00229031   0.00299716
| 44> H    1.07262552  -3.60256539   1.23023708
| 45> C    0.34653238  -1.40454899  -3.84839456
| 46> O    1.44956248  -1.77043288  -4.18185355
| 47> O   -0.51113014  -2.17169167  -3.27507154
| 48> O   -0.21792387  -0.26094508  -4.28041350
| 49> H    2.77879574  -2.81337659   0.31443320
| 50> H    1.63540260  -4.16167101  -0.76443519
| 51> H    0.47622811   0.29082290  -4.65401876
| 52> *
| 53>
| 54>                          ****END OF INPUT****

CARTESIAN COORDINATES (ANGSTROEM)
---------------------------------
  C     -2.227762   -0.056536    0.672068
  C     -1.861605    0.990428    1.527375
  C     -3.584768   -0.386023    0.655954
  C     -4.583773    0.523447    0.983593
  C     -4.210306    1.636018    1.719957
  C     -2.863607    1.924717    1.838657
  H     -2.611235   -1.622149   -1.912888
  H     -3.925226   -1.403188    0.511346
  H     -2.626699    2.950210    2.114030
  H     -5.634591    0.306618    0.828087
  H     -4.973166    2.328427    2.055157
  C     -0.445849    1.426893    1.821816
  C      0.718889    0.464999    1.946857
  H     -0.457880    1.995306    2.761640
  H     -0.260608    2.174905    1.043661
  C      1.750419    0.642685    0.855422
  H      0.367035   -0.569259    1.946424
  H      1.245848    0.533864    2.908789
  C      1.588480    0.063620   -0.411801
  C      2.620148    0.259129   -1.331704
  C      3.660380    1.159238   -1.124847
  C      2.921817    1.357623    1.131741
  C      3.741196    1.800737    0.100194
  H      2.678323   -0.338975   -2.232721
  H      4.384070    1.360443   -1.906541
  H      3.044551    1.794179    2.118636
  H      4.441267    2.617378    0.228095
  Pd     0.181158   -1.273269   -0.704225
  Br    -1.519918   -3.764765   -0.688238
  P      1.413307   -3.002290    0.002997
  H      1.072626   -3.602565    1.230237
  C      0.346532   -1.404549   -3.848395
  O      1.449562   -1.770433   -4.181854
  O     -0.511130   -2.171692   -3.275072
  O     -0.217924   -0.260945   -4.280413
  H      2.778796   -2.813377    0.314433
  H      1.635403   -4.161671   -0.764435
  H      0.476228    0.290823   -4.654019

 Total Charge           Charge          ....   -1
 Multiplicity           Mult            ....    1
 Number of Electrons    NEL             ....  200
 Basis Dimension        Dim             ....  385

ORBITAL ENERGIES
----------------

  NO   OCC          E(Eh)            E(eV)
   0   2.0000    -484.352535    -13179.9025
   1   2.0000     -77.683563     -2113.8772
   2   2.0000     -63.013678     -1714.6894
   3   2.0000     -56.717060     -1543.3497
   4   2.0000     -56.716580     -1543.3366
   5   2.0000     -56.716240     -1543.3273
   6   2.0000     -19.380155      -527.3608
   7   2.0000     -19.298572      -525.1409
   8   2.0000     -19.298497      -525.1388
   9   2.0000     -10.427787      -283.7545
  10   2.0000     -10.360817      -281.9322
  11   2.0000     -10.358961      -281.8817
  12   2.0000     -10.353899      -281.7439
  13   2.0000     -10.352467      -281.7049
  14   2.0000     -10.349775      -281.6317
  15   2.0000     -10.345129      -281.5053
  16   2.0000     -10.343018      -281.4478
  17   2.0000     -10.342984      -281.4469
  18   2.0000     -10.338615      -281.3280
  19   2.0000     -10.334336      -281.2116
  20   2.0000     -10.333895      -281.1996
  21   2.0000     -10.331889      -281.1450
  22   2.0000     -10.329881      -281.0904
  23   2.0000     -10.325295      -280.9656
  24   2.0000      -8.840436      -240.5605
  25   2.0000      -6.757569      -183.8828
  26   2.0000      -6.609330      -179.8490
  27   2.0000      -6.606953      -179.7843
  28   2.0000      -6.603196      -179.6821
  29   2.0000      -4.848643      -131.9383
  30   2.0000      -4.848263      -131.9279
  31   2.0000      -4.847100      -131.8963
  32   2.0000      -3.540954       -96.3543
  33   2.0000      -2.624022       -71.4033
  34   2.0000      -2.623773       -71.3965
  35   2.0000      -2.620625       -71.3108
  36   2.0000      -2.618595       -71.2556
  37   2.0000      -2.617932       -71.2376
  38   2.0000      -2.190542       -59.6077
  39   2.0000      -2.181897       -59.3724
  40   2.0000      -2.157039       -58.6960
  41   2.0000      -1.071386       -29.1539
  42   2.0000      -0.960989       -26.1498
  43   2.0000      -0.899130       -24.4666
  44   2.0000      -0.861915       -23.4539
  45   2.0000      -0.841741       -22.9049
  46   2.0000      -0.789684       -21.4884
  47   2.0000      -0.744066       -20.2471
  48   2.0000      -0.733294       -19.9539
  49   2.0000      -0.708555       -19.2808
  50   2.0000      -0.691579       -18.8188
  51   2.0000      -0.662780       -18.0352
  52   2.0000      -0.641282       -17.4502
  53   2.0000      -0.619275       -16.8513
  54   2.0000      -0.579651       -15.7731
  55   2.0000      -0.555232       -15.1086
  56   2.0000      -0.552796       -15.0423
  57   2.0000      -0.528733       -14.3876
  58   2.0000      -0.524300       -14.2669
  59   2.0000      -0.475476       -12.9384
  60   2.0000      -0.456220       -12.4144
  61   2.0000      -0.434664       -11.8278
  62   2.0000      -0.419687       -11.4203
  63   2.0000      -0.402252       -10.9458
  64   2.0000      -0.398710       -10.8494
  65   2.0000      -0.392000       -10.6669
  66   2.0000      -0.383566       -10.4374
  67   2.0000      -0.376707       -10.2507
  68   2.0000      -0.374060       -10.1787
  69   2.0000      -0.369363       -10.0509
  70   2.0000      -0.366085        -9.9617
  71   2.0000      -0.364500        -9.9185
  72   2.0000      -0.360980        -9.8228
  73   2.0000      -0.348264        -9.4767
  74   2.0000      -0.338913        -9.2223
  75   2.0000      -0.337197        -9.1756
  76   2.0000      -0.330307        -8.9881
  77   2.0000      -0.312372        -8.5001
  78   2.0000      -0.305124        -8.3029
  79   2.0000      -0.298433        -8.1208
  80   2.0000      -0.293247        -7.9797
  81   2.0000      -0.284583        -7.7439
  82   2.0000      -0.274018        -7.4564
  83   2.0000      -0.271109        -7.3772
  84   2.0000      -0.267451        -7.2777
  85   2.0000      -0.236310        -6.4303
  86   2.0000      -0.233500        -6.3539
  87   2.0000      -0.227944        -6.2027
  88   2.0000      -0.205503        -5.5920
  89   2.0000      -0.204095        -5.5537
  90   2.0000      -0.190498        -5.1837
  91   2.0000      -0.187587        -5.1045
  92   2.0000      -0.176727        -4.8090
  93   2.0000      -0.171299        -4.6613
  94   2.0000      -0.170067        -4.6278
  95   2.0000      -0.166676        -4.5355
  96   2.0000      -0.157148        -4.2762
  97   2.0000      -0.150101        -4.0845
  98   2.0000      -0.134650        -3.6640
  99   2.0000      -0.098439        -2.6787
 100   0.0000      -0.023540        -0.6405
 101   0.0000       0.036193         0.9849
 102   0.0000       0.109334         2.9751
 103   0.0000       0.120001         3.2654
 104   0.0000       0.126237         3.4351

MULLIKEN ATOMIC CHARGES
-----------------------
   0 C :   -0.061576
   1 C :    0.009533
   2 C :   -0.314851
   3 C :   -0.212666
   4 C :   -0.225014
   5 C :   -0.249436
   6 H :    0.213508
   7 H :    0.224061
   8 H :    0.181836
   9 H :    0.183099
  10 H :    0.176419
  11 C :   -0.462836
  12 C :   -0.527343
  13 H :    0.206348
  14 H :    0.255330
  15 C :    0.091649
  16 H :    0.278620
  17 H :    0.212424
  18 C :   -0.134022
  19 C :   -0.283044
  20 C :   -0.221074
  21 C :   -0.269681
  22 C :   -0.237311
  23 H :    0.268411
  24 H :    0.201102
  25 H :    0.184062
  26 H :    0.194283
  27 Pd:    0.155660
  28 Br:   -0.424675
  29 P :   -0.154948
  30 H :    0.127059
  31 C :    0.619508
  32 O :   -0.517749
  33 O :   -0.520350
  34 O :   -0.600460
  35 H :    0.080649
  36 H :    0.148709
  37 H :    0.404769
Sum of atomic charges:   -1.0000000

LOEWDIN ATOMIC CHARGES
----------------------
   0 C :   -0.075502
   1 C :   -0.066112
   2 C :   -0.154491
   3 C :   -0.166958
   4 C :   -0.167398
   5 C :   -0.154856
   6 H :    0.252940
   7 H :    0.133416
   8 H :    0.120659
   9 H :    0.117884
  10 H :    0.115300
  11 C :   -0.222005
  12 C :   -0.214649
  13 H :    0.126012
  14 H :    0.151568
  15 C :   -0.027593
  16 H :    0.161735
  17 H :    0.121966
  18 C :    0.001015
  19 C :   -0.119034
  20 C :   -0.153607
  21 C :   -0.147030
  22 C :   -0.150148
  23 H :    0.164863
  24 H :    0.128265
  25 H :    0.123229
  26 H :    0.123433
  27 Pd:   -0.708254
  28 Br:   -0.287943
  29 P :    0.405665
  30 H :    0.057787
  31 C :    0.060479
  32 O :   -0.329251
  33 O :   -0.304338
  34 O :   -0.322453
  35 H :    0.023953
  36 H :    0.070877
  37 H :    0.310574

  Mayer bond orders larger than 0.100000
B(  0-C ,  1-C ) :   1.4498 B(  0-C ,  2-C ) :   1.4156 B(  0-C ,  6-H ) :   0.2257
B(  0-C , 27-Pd) :   0.3635 B(  1-C ,  5-C ) :   1.3363 B(  1-C , 11-C ) :   0.9667
B(  2-C ,  3-C ) :   1.4288 B(  2-C ,  7-H ) :   0.9110 B(  3-C ,  4-C ) :   1.4009
B(  3-C ,  9-H ) :   0.9257 B(  4-C ,  5-C ) :   1.4721 B(  4-C , 10-H ) :   0.9277
B(  5-C ,  8-H ) :   0.9246 B(  6-H , 27-Pd) :   0.1529 B(  6-H , 28-Br) :   0.2890
B(  6-H , 33-O ) :   0.1694 B( 11-C , 12-C ) :   0.9270 B( 11-C , 13-H ) :   0.9305
B( 11-C , 14-H ) :   0.9032 B( 12-C , 15-C ) :   0.9623 B( 12-C , 16-H ) :   0.8819
B( 12-C , 17-H ) :   0.9310 B( 15-C , 18-C ) :   1.3330 B( 15-C , 21-C ) :   1.4144
B( 18-C , 19-C ) :   1.3942 B( 18-C , 27-Pd) :   0.8655 B( 19-C , 20-C ) :   1.4071
B( 19-C , 23-H ) :   0.8753 B( 20-C , 22-C ) :   1.4359 B( 20-C , 24-H ) :   0.9231
B( 21-C , 22-C ) :   1.4158 B( 21-C , 25-H ) :   0.9258 B( 22-C , 26-H ) :   0.9260
B( 27-Pd, 28-Br) :   0.2638 B( 27-Pd, 29-P ) :   0.6756 B( 27-Pd, 33-O ) :   0.2034
B( 28-Br, 29-P ) :   0.1325 B( 29-P , 30-H ) :   0.9262 B( 29-P , 35-H ) :   0.9072
B( 29-P , 36-H ) :   0.9244 B( 31-C , 32-O ) :   1.8114 B( 31-C , 33-O ) :   1.4790
B( 31-C , 34-O ) :   1.0432 B( 34-O , 37-H ) :   0.7838

Dispersion correction           -0.031162677
FINAL SINGLE POINT ENERGY     -3847.399635370670
Dispersion correction            ... done

DIPOLE MOMENT
-------------
                                X             Y             Z
Electronic contribution:      8.90473     -61.10786     -26.26038
Nuclear contribution   :     -7.38836      62.33397      28.71666
                        -----------------------------------------
Total Dipole Moment    :      1.51637       1.22611       2.45628
                        -----------------------------------------
Magnitude (a.u.)       :      3.13625
Magnitude (Debye)      :      7.97171

Rotational constants in cm-1:     0.006524     0.006217     0.004261
Rotational constants in MHz :   195.583187   186.383739   127.733541

                             ****ORCA TERMINATED NORMALLY****
TOTAL RUN TIME: 0 days 0 hours 26 minutes 1 seconds 109 msec
