                         Program Version 5.0.3 -  RELEASE  -
|  1> ! EnGrad PBEh-3c
|  2> %output
|  3> xyzfile=True
|  4> end
|  5> %scf
|  6> maxiter 250
|  7> end
|  8> %output
|  9> Print[P_Hirshfeld] = 1
| 10> end
| 11> % maxcore
| 12> 4000
| 13> *xyz -1 1
| 14> C   -2.20817298  -0.07645629   0.72282441
| 15> C   -1.85452517   1.00274955   1.45347250
| 16> C   -3.60172549  -0.39624239   0.63193589
| 17> C   -4.57269146   0.50468439   1.03844431
| 18> C   -4.21443298   1.66403267   1.66095851
| 19> C   -2.88215060   1.92905868   1.87143003
| 20> H   -2.54730005  -1.65044270  -1.89645576
| 21> H   -3.91237644  -1.40438548   0.46361346
| 22> H   -2.61020575   2.93975199   2.14224202
| 23> H   -5.63128331   0.29625263   0.82776884
| 24> H   -4.96729243   2.33966763   2.04711724
| 25> C   -0.45531527   1.47426247   1.83894260
| 26> C    0.74456606   0.42054039   1.93977870
| 27> H   -0.46947456   1.99198597   2.76178228
| 28> H   -0.23825136   2.17738744   1.05545790
| 29> C    1.76040218   0.62181869   0.87273259
| 30> H    0.36053040  -0.57046733   1.94427067
| 31> H    1.23679637   0.54899876   2.90802005
| 32> C    1.61882575   0.05031491  -0.39260060
| 33> C    2.61839503   0.23962632  -1.35412837
| 34> C    3.63742718   1.17288974  -1.11603631
| 35> C    2.87986380   1.41258543   1.12070741
| 36> C    3.75723029   1.78246583   0.09585235
| 37> H    2.66121479  -0.33692031  -2.24042133
| 38> H    4.37725601   1.36030094  -1.90783225
| 39> H    3.04341634   1.79206547   2.11955977
| 40> H    4.45126229   2.60687145   0.24056992
| 41> Pd   0.09991718  -1.29110448  -0.71340139
| 42> Br  -1.53097466  -3.72668919  -0.68941573
| 43> P    1.44969508  -3.01098753   0.00485030
| 44> H    1.07097052  -3.59919877   1.22332608
| 45> C    0.22236538  -1.52820420  -3.84846613
| 46> O    1.52570770  -1.73965381  -4.18698284
| 47> O   -0.49323823  -2.11572343  -3.25297950
| 48> O   -0.20709391  -0.21082707  -4.27450765
| 49> H    2.78178808  -2.80573040   0.31220934
| 50> H    1.62211431  -4.15384212  -0.76967401
| 51> H    0.47519048   0.28966686  -4.65407284
| 52> *
| 53>
| 54>                          ****END OF INPUT****

CARTESIAN COORDINATES (ANGSTROEM)
---------------------------------
  C     -2.208173   -0.076456    0.722824
  C     -1.854525    1.002750    1.453472
  C     -3.601725   -0.396242    0.631936
  C     -4.572691    0.504684    1.038444
  C     -4.214433    1.664033    1.660959
  C     -2.882151    1.929059    1.871430
  H     -2.547300   -1.650443   -1.896456
  H     -3.912376   -1.404385    0.463613
  H     -2.610206    2.939752    2.142242
  H     -5.631283    0.296253    0.827769
  H     -4.967292    2.339668    2.047117
  C     -0.455315    1.474262    1.838943
  C      0.744566    0.420540    1.939779
  H     -0.469475    1.991986    2.761782
  H     -0.238251    2.177387    1.055458
  C      1.760402    0.621819    0.872733
  H      0.360530   -0.570467    1.944271
  H      1.236796    0.548999    2.908020
  C      1.618826    0.050315   -0.392601
  C      2.618395    0.239626   -1.354128
  C      3.637427    1.172890   -1.116036
  C      2.879864    1.412585    1.120707
  C      3.757230    1.782466    0.095852
  H      2.661215   -0.336920   -2.240421
  H      4.377256    1.360301   -1.907832
  H      3.043416    1.792065    2.119560
  H      4.451262    2.606871    0.240570
  Pd     0.099917   -1.291104   -0.713401
  Br    -1.530975   -3.726689   -0.689416
  P      1.449695   -3.010988    0.004850
  H      1.070971   -3.599199    1.223326
  C      0.222365   -1.528204   -3.848466
  O      1.525708   -1.739654   -4.186983
  O     -0.493238   -2.115723   -3.252979
  O     -0.207094   -0.210827   -4.274508
  H      2.781788   -2.805730    0.312209
  H      1.622114   -4.153842   -0.769674
  H      0.475190    0.289667   -4.654073

 Total Charge           Charge          ....   -1
 Multiplicity           Mult            ....    1
 Number of Electrons    NEL             ....  200
 Basis Dimension        Dim             ....  385

ORBITAL ENERGIES
----------------

  NO   OCC          E(Eh)            E(eV)
   0   2.0000    -484.369012    -13180.3509
   1   2.0000     -77.687155     -2113.9750
   2   2.0000     -63.030124     -1715.1369
   3   2.0000     -56.733585     -1543.7993
   4   2.0000     -56.732979     -1543.7828
   5   2.0000     -56.732637     -1543.7735
   6   2.0000     -19.326319      -525.8959
   7   2.0000     -19.317748      -525.6627
   8   2.0000     -19.252481      -523.8866
   9   2.0000     -10.411312      -283.3062
  10   2.0000     -10.365549      -282.0609
  11   2.0000     -10.357551      -281.8433
  12   2.0000     -10.352638      -281.7096
  13   2.0000     -10.351842      -281.6879
  14   2.0000     -10.350894      -281.6622
  15   2.0000     -10.349161      -281.6150
  16   2.0000     -10.345365      -281.5117
  17   2.0000     -10.344419      -281.4860
  18   2.0000     -10.342828      -281.4426
  19   2.0000     -10.342740      -281.4403
  20   2.0000     -10.340450      -281.3780
  21   2.0000     -10.338784      -281.3326
  22   2.0000     -10.338097      -281.3139
  23   2.0000     -10.337514      -281.2981
  24   2.0000      -8.856899      -241.0085
  25   2.0000      -6.762551      -184.0184
  26   2.0000      -6.626453      -180.3149
  27   2.0000      -6.622880      -180.2177
  28   2.0000      -6.619499      -180.1257
  29   2.0000      -4.853632      -132.0740
  30   2.0000      -4.853251      -132.0637
  31   2.0000      -4.851859      -132.0258
  32   2.0000      -3.538952       -96.2998
  33   2.0000      -2.640848       -71.8611
  34   2.0000      -2.640358       -71.8478
  35   2.0000      -2.637523       -71.7707
  36   2.0000      -2.634481       -71.6879
  37   2.0000      -2.634015       -71.6752
  38   2.0000      -2.187005       -59.5114
  39   2.0000      -2.179559       -59.3088
  40   2.0000      -2.156236       -58.6742
  41   2.0000      -1.075379       -29.2625
  42   2.0000      -0.951402       -25.8890
  43   2.0000      -0.862705       -23.4754
  44   2.0000      -0.848237       -23.0817
  45   2.0000      -0.837864       -22.7994
  46   2.0000      -0.789509       -21.4836
  47   2.0000      -0.749832       -20.4040
  48   2.0000      -0.731681       -19.9100
  49   2.0000      -0.717442       -19.5226
  50   2.0000      -0.691868       -18.8267
  51   2.0000      -0.675723       -18.3874
  52   2.0000      -0.654601       -17.8126
  53   2.0000      -0.626883       -17.0584
  54   2.0000      -0.581613       -15.8265
  55   2.0000      -0.571246       -15.5444
  56   2.0000      -0.553148       -15.0519
  57   2.0000      -0.527006       -14.3406
  58   2.0000      -0.490866       -13.3571
  59   2.0000      -0.474133       -12.9018
  60   2.0000      -0.464729       -12.6459
  61   2.0000      -0.435590       -11.8530
  62   2.0000      -0.421056       -11.4575
  63   2.0000      -0.407988       -11.1019
  64   2.0000      -0.402051       -10.9404
  65   2.0000      -0.392871       -10.6906
  66   2.0000      -0.390427       -10.6241
  67   2.0000      -0.384137       -10.4529
  68   2.0000      -0.382188       -10.3999
  69   2.0000      -0.374225       -10.1832
  70   2.0000      -0.362206        -9.8561
  71   2.0000      -0.357115        -9.7176
  72   2.0000      -0.351704        -9.5703
  73   2.0000      -0.344383        -9.3711
  74   2.0000      -0.337883        -9.1943
  75   2.0000      -0.335495        -9.1293
  76   2.0000      -0.327536        -8.9127
  77   2.0000      -0.318563        -8.6685
  78   2.0000      -0.304197        -8.2776
  79   2.0000      -0.299881        -8.1602
  80   2.0000      -0.290520        -7.9054
  81   2.0000      -0.286819        -7.8048
  82   2.0000      -0.285209        -7.7609
  83   2.0000      -0.268404        -7.3036
  84   2.0000      -0.266023        -7.2388
  85   2.0000      -0.235116        -6.3978
  86   2.0000      -0.231883        -6.3099
  87   2.0000      -0.218284        -5.9398
  88   2.0000      -0.213212        -5.8018
  89   2.0000      -0.196005        -5.3336
  90   2.0000      -0.185886        -5.0582
  91   2.0000      -0.184609        -5.0235
  92   2.0000      -0.182480        -4.9655
  93   2.0000      -0.178369        -4.8537
  94   2.0000      -0.176390        -4.7998
  95   2.0000      -0.172533        -4.6949
  96   2.0000      -0.167502        -4.5580
  97   2.0000      -0.129245        -3.5169
  98   2.0000      -0.114916        -3.1270
  99   2.0000      -0.109594        -2.9822
 100   0.0000      -0.031784        -0.8649
 101   0.0000       0.033943         0.9236
 102   0.0000       0.107588         2.9276
 103   0.0000       0.115630         3.1465
 104   0.0000       0.120991         3.2923

MULLIKEN ATOMIC CHARGES
-----------------------
   0 C :   -0.072422
   1 C :    0.031963
   2 C :   -0.315010
   3 C :   -0.219501
   4 C :   -0.211269
   5 C :   -0.257800
   6 H :    0.217478
   7 H :    0.230273
   8 H :    0.189308
   9 H :    0.186428
  10 H :    0.183785
  11 C :   -0.469548
  12 C :   -0.532573
  13 H :    0.218243
  14 H :    0.260422
  15 C :    0.140409
  16 H :    0.281027
  17 H :    0.208005
  18 C :   -0.154919
  19 C :   -0.260329
  20 C :   -0.243193
  21 C :   -0.297455
  22 C :   -0.211483
  23 H :    0.294938
  24 H :    0.199354
  25 H :    0.185166
  26 H :    0.192098
  27 Pd:    0.121732
  28 Br:   -0.400012
  29 P :   -0.146586
  30 H :    0.126608
  31 C :    0.598994
  32 O :   -0.678671
  33 O :   -0.353100
  34 O :   -0.695417
  35 H :    0.097338
  36 H :    0.153410
  37 H :    0.402308
Sum of atomic charges:   -1.0000000

LOEWDIN ATOMIC CHARGES
----------------------
   0 C :   -0.062924
   1 C :   -0.064676
   2 C :   -0.145236
   3 C :   -0.164148
   4 C :   -0.162904
   5 C :   -0.151879
   6 H :    0.259250
   7 H :    0.136828
   8 H :    0.124140
   9 H :    0.120888
  10 H :    0.120225
  11 C :   -0.221040
  12 C :   -0.211622
  13 H :    0.127884
  14 H :    0.152522
  15 C :   -0.041496
  16 H :    0.159830
  17 H :    0.121378
  18 C :    0.013511
  19 C :   -0.115046
  20 C :   -0.145029
  21 C :   -0.144440
  22 C :   -0.155783
  23 H :    0.175155
  24 H :    0.128420
  25 H :    0.122901
  26 H :    0.125151
  27 Pd:   -0.723301
  28 Br:   -0.245014
  29 P :    0.401244
  30 H :    0.058556
  31 C :    0.076813
  32 O :   -0.527744
  33 O :   -0.115500
  34 O :   -0.432260
  35 H :    0.035224
  36 H :    0.074541
  37 H :    0.295581

  Mayer bond orders larger than 0.100000
B(  0-C ,  1-C ) :   1.5161 B(  0-C ,  2-C ) :   1.3655 B(  0-C ,  6-H ) :   0.2563
B(  0-C , 27-Pd) :   0.3813 B(  1-C ,  5-C ) :   1.2857 B(  1-C , 11-C ) :   0.9530
B(  2-C ,  3-C ) :   1.4614 B(  2-C ,  5-C ) :   0.1080 B(  2-C ,  7-H ) :   0.9109
B(  3-C ,  4-C ) :   1.3829 B(  3-C ,  9-H ) :   0.9252 B(  4-C ,  5-C ) :   1.5001
B(  4-C , 10-H ) :   0.9268 B(  5-C ,  8-H ) :   0.9221 B(  6-H , 27-Pd) :   0.1828
B(  6-H , 28-Br) :   0.3308 B( 11-C , 12-C ) :   0.9343 B( 11-C , 13-H ) :   0.9283
B( 11-C , 14-H ) :   0.9024 B( 12-C , 15-C ) :   0.9648 B( 12-C , 16-H ) :   0.8829
B( 12-C , 17-H ) :   0.9314 B( 15-C , 18-C ) :   1.3319 B( 15-C , 21-C ) :   1.4235
B( 18-C , 19-C ) :   1.4229 B( 18-C , 27-Pd) :   0.8340 B( 19-C , 20-C ) :   1.3874
B( 19-C , 23-H ) :   0.8503 B( 20-C , 22-C ) :   1.4466 B( 20-C , 24-H ) :   0.9243
B( 21-C , 22-C ) :   1.4014 B( 21-C , 25-H ) :   0.9254 B( 22-C , 26-H ) :   0.9273
B( 27-Pd, 28-Br) :   0.2861 B( 27-Pd, 29-P ) :   0.6334 B( 27-Pd, 33-O ) :   0.1482
B( 28-Br, 29-P ) :   0.1079 B( 29-P , 30-H ) :   0.9307 B( 29-P , 35-H ) :   0.9136
B( 29-P , 36-H ) :   0.9286 B( 31-C , 32-O ) :   1.5480 B( 31-C , 33-O ) :   1.8942
B( 31-C , 34-O ) :   0.8999 B( 34-O , 37-H ) :   0.7897

Dispersion correction           -0.031213067
FINAL SINGLE POINT ENERGY     -3847.381419858225
Dispersion correction            ... done

DIPOLE MOMENT
-------------
                                X             Y             Z
Electronic contribution:      3.76590     -62.58779     -25.73506
Nuclear contribution   :     -2.91555      63.35433      29.23607
                        -----------------------------------------
Total Dipole Moment    :      0.85036       0.76654       3.50101
                        -----------------------------------------
Magnitude (a.u.)       :      3.68344
Magnitude (Debye)      :      9.36257

Rotational constants in cm-1:     0.006553     0.006221     0.004273
Rotational constants in MHz :   196.460983   186.513477   128.095365

                             ****ORCA TERMINATED NORMALLY****
TOTAL RUN TIME: 0 days 0 hours 29 minutes 59 seconds 914 msec
