                         Program Version 5.0.3 -  RELEASE  -
|  1> ! EnGrad PBEh-3c
|  2> %output
|  3> xyzfile=True
|  4> end
|  5> %scf
|  6> maxiter 250
|  7> end
|  8> %output
|  9> Print[P_Hirshfeld] = 1
| 10> end
| 11> % maxcore
| 12> 4000
| 13> *xyz -1 1
| 14> C   -2.21070754  -0.09185749   0.73259599
| 15> C   -1.85316848   1.01977064   1.44117321
| 16> C   -3.59905661  -0.39649753   0.62937132
| 17> C   -4.57500273   0.49075258   1.05036427
| 18> C   -4.21309326   1.67852224   1.64890328
| 19> C   -2.88394246   1.92555528   1.87560535
| 20> H   -2.52209086  -1.66062260  -1.88489266
| 21> H   -3.90938550  -1.40769038   0.44527315
| 22> H   -2.60409463   2.93618900   2.15508707
| 23> H   -5.62768192   0.29251213   0.83091279
| 24> H   -4.96584989   2.34398272   2.04369793
| 25> C   -0.45350166   1.47502555   1.83372353
| 26> C    0.74617057   0.41881271   1.93956235
| 27> H   -0.47433392   1.99632026   2.76614164
| 28> H   -0.22860753   2.18139939   1.05546012
| 29> C    1.76535005   0.61539258   0.87601205
| 30> H    0.35554640  -0.57665213   1.94288469
| 31> H    1.23313383   0.55404109   2.90768882
| 32> C    1.62559881   0.03955383  -0.39068091
| 33> C    2.61735276   0.23753994  -1.35251933
| 34> C    3.63253923   1.17235936  -1.12260399
| 35> C    2.86826164   1.43028790   1.11536441
| 36> C    3.75920223   1.78047953   0.10148827
| 37> H    2.65487273  -0.33945043  -2.24915663
| 38> H    4.37300030   1.36001036  -1.90584443
| 39> H    3.04219707   1.79292059   2.12043785
| 40> H    4.45554895   2.60125794   0.24503901
| 41> Pd   0.07665417  -1.29715393  -0.71338186
| 42> Br  -1.53679758  -3.71034291  -0.69240207
| 43> P    1.45630539  -3.00961129   0.00451950
| 44> H    1.06952394  -3.59783022   1.22119704
| 45> C    0.28164597  -1.50444366  -3.90498655
| 46> O    1.51563670  -1.72900794  -4.17993982
| 47> O   -0.54652681  -2.14769316  -3.20167443
| 48> O   -0.21787630  -0.20915044  -4.26542152
| 49> H    2.78653259  -2.80236118   0.31345228
| 50> H    1.61776153  -4.15272913  -0.77195786
| 51> H    0.48674524   0.29173007  -4.65937075
| 52> *
| 53>
| 54>                          ****END OF INPUT****

CARTESIAN COORDINATES (ANGSTROEM)
---------------------------------
  C     -2.210708   -0.091857    0.732596
  C     -1.853168    1.019771    1.441173
  C     -3.599057   -0.396498    0.629371
  C     -4.575003    0.490753    1.050364
  C     -4.213093    1.678522    1.648903
  C     -2.883942    1.925555    1.875605
  H     -2.522091   -1.660623   -1.884893
  H     -3.909385   -1.407690    0.445273
  H     -2.604095    2.936189    2.155087
  H     -5.627682    0.292512    0.830913
  H     -4.965850    2.343983    2.043698
  C     -0.453502    1.475026    1.833724
  C      0.746171    0.418813    1.939562
  H     -0.474334    1.996320    2.766142
  H     -0.228608    2.181399    1.055460
  C      1.765350    0.615393    0.876012
  H      0.355546   -0.576652    1.942885
  H      1.233134    0.554041    2.907689
  C      1.625599    0.039554   -0.390681
  C      2.617353    0.237540   -1.352519
  C      3.632539    1.172359   -1.122604
  C      2.868262    1.430288    1.115364
  C      3.759202    1.780480    0.101488
  H      2.654873   -0.339450   -2.249157
  H      4.373000    1.360010   -1.905844
  H      3.042197    1.792921    2.120438
  H      4.455549    2.601258    0.245039
  Pd     0.076654   -1.297154   -0.713382
  Br    -1.536798   -3.710343   -0.692402
  P      1.456305   -3.009611    0.004519
  H      1.069524   -3.597830    1.221197
  C      0.281646   -1.504444   -3.904987
  O      1.515637   -1.729008   -4.179940
  O     -0.546527   -2.147693   -3.201674
  O     -0.217876   -0.209150   -4.265422
  H      2.786533   -2.802361    0.313452
  H      1.617762   -4.152729   -0.771958
  H      0.486745    0.291730   -4.659371

 Total Charge           Charge          ....   -1
 Multiplicity           Mult            ....    1
 Number of Electrons    NEL             ....  200
 Basis Dimension        Dim             ....  385

ORBITAL ENERGIES
----------------

  NO   OCC          E(Eh)            E(eV)
   0   2.0000    -484.366747    -13180.2893
   1   2.0000     -77.682777     -2113.8558
   2   2.0000     -63.027816     -1715.0741
   3   2.0000     -56.731324     -1543.7378
   4   2.0000     -56.730669     -1543.7200
   5   2.0000     -56.730294     -1543.7098
   6   2.0000     -19.354996      -526.6762
   7   2.0000     -19.310959      -525.4779
   8   2.0000     -19.293160      -524.9936
   9   2.0000     -10.435733      -283.9707
  10   2.0000     -10.362530      -281.9788
  11   2.0000     -10.354445      -281.7588
  12   2.0000     -10.350772      -281.6588
  13   2.0000     -10.350066      -281.6396
  14   2.0000     -10.348720      -281.6030
  15   2.0000     -10.343464      -281.4600
  16   2.0000     -10.341433      -281.4047
  17   2.0000     -10.340405      -281.3767
  18   2.0000     -10.338342      -281.3206
  19   2.0000     -10.335430      -281.2414
  20   2.0000     -10.332832      -281.1706
  21   2.0000     -10.332790      -281.1695
  22   2.0000     -10.331739      -281.1409
  23   2.0000     -10.329410      -281.0775
  24   2.0000      -8.854564      -240.9449
  25   2.0000      -6.758174      -183.8993
  26   2.0000      -6.624330      -180.2572
  27   2.0000      -6.620454      -180.1517
  28   2.0000      -6.617028      -180.0585
  29   2.0000      -4.849256      -131.9550
  30   2.0000      -4.848871      -131.9445
  31   2.0000      -4.847437      -131.9055
  32   2.0000      -3.530992       -96.0832
  33   2.0000      -2.638680       -71.8021
  34   2.0000      -2.638134       -71.7873
  35   2.0000      -2.635259       -71.7090
  36   2.0000      -2.631954       -71.6191
  37   2.0000      -2.631502       -71.6068
  38   2.0000      -2.179313       -59.3021
  39   2.0000      -2.171146       -59.0799
  40   2.0000      -2.147807       -58.4448
  41   2.0000      -1.029102       -28.0033
  42   2.0000      -0.931931       -25.3591
  43   2.0000      -0.895833       -24.3769
  44   2.0000      -0.860032       -23.4027
  45   2.0000      -0.839641       -22.8478
  46   2.0000      -0.784486       -21.3469
  47   2.0000      -0.743523       -20.2323
  48   2.0000      -0.730597       -19.8806
  49   2.0000      -0.710508       -19.3339
  50   2.0000      -0.685643       -18.6573
  51   2.0000      -0.672547       -18.3009
  52   2.0000      -0.651398       -17.7255
  53   2.0000      -0.621701       -16.9173
  54   2.0000      -0.578381       -15.7386
  55   2.0000      -0.561112       -15.2686
  56   2.0000      -0.551601       -15.0098
  57   2.0000      -0.522521       -14.2185
  58   2.0000      -0.498423       -13.5628
  59   2.0000      -0.471770       -12.8375
  60   2.0000      -0.457307       -12.4440
  61   2.0000      -0.432223       -11.7614
  62   2.0000      -0.417230       -11.3534
  63   2.0000      -0.402750       -10.9594
  64   2.0000      -0.394800       -10.7430
  65   2.0000      -0.385516       -10.4904
  66   2.0000      -0.382131       -10.3983
  67   2.0000      -0.379843       -10.3360
  68   2.0000      -0.378319       -10.2946
  69   2.0000      -0.369454       -10.0534
  70   2.0000      -0.355725        -9.6798
  71   2.0000      -0.352763        -9.5992
  72   2.0000      -0.347359        -9.4521
  73   2.0000      -0.340287        -9.2597
  74   2.0000      -0.337214        -9.1761
  75   2.0000      -0.334341        -9.0979
  76   2.0000      -0.320816        -8.7299
  77   2.0000      -0.310435        -8.4474
  78   2.0000      -0.299965        -8.1625
  79   2.0000      -0.294564        -8.0155
  80   2.0000      -0.293759        -7.9936
  81   2.0000      -0.285147        -7.7592
  82   2.0000      -0.278728        -7.5846
  83   2.0000      -0.262245        -7.1361
  84   2.0000      -0.260312        -7.0834
  85   2.0000      -0.230232        -6.2649
  86   2.0000      -0.224029        -6.0961
  87   2.0000      -0.217293        -5.9128
  88   2.0000      -0.214571        -5.8388
  89   2.0000      -0.195606        -5.3227
  90   2.0000      -0.184649        -5.0246
  91   2.0000      -0.183416        -4.9910
  92   2.0000      -0.179751        -4.8913
  93   2.0000      -0.175121        -4.7653
  94   2.0000      -0.170937        -4.6514
  95   2.0000      -0.170351        -4.6355
  96   2.0000      -0.162717        -4.4278
  97   2.0000      -0.152874        -4.1599
  98   2.0000      -0.144977        -3.9450
  99   2.0000      -0.107196        -2.9169
 100   0.0000      -0.023105        -0.6287
 101   0.0000       0.039731         1.0811
 102   0.0000       0.111134         3.0241
 103   0.0000       0.121090         3.2950
 104   0.0000       0.124708         3.3935

MULLIKEN ATOMIC CHARGES
-----------------------
   0 C :   -0.075224
   1 C :    0.029439
   2 C :   -0.321081
   3 C :   -0.223481
   4 C :   -0.216029
   5 C :   -0.255298
   6 H :    0.239407
   7 H :    0.223573
   8 H :    0.182947
   9 H :    0.183476
  10 H :    0.180892
  11 C :   -0.468865
  12 C :   -0.529387
  13 H :    0.213532
  14 H :    0.257199
  15 C :    0.136076
  16 H :    0.281711
  17 H :    0.205196
  18 C :   -0.146347
  19 C :   -0.267560
  20 C :   -0.242934
  21 C :   -0.291876
  22 C :   -0.215966
  23 H :    0.284301
  24 H :    0.196588
  25 H :    0.184146
  26 H :    0.190366
  27 Pd:    0.129767
  28 Br:   -0.389447
  29 P :   -0.152907
  30 H :    0.125383
  31 C :    0.665988
  32 O :   -0.588973
  33 O :   -0.512661
  34 O :   -0.658176
  35 H :    0.095352
  36 H :    0.148233
  37 H :    0.402639
Sum of atomic charges:   -1.0000000

LOEWDIN ATOMIC CHARGES
----------------------
   0 C :   -0.079578
   1 C :   -0.066047
   2 C :   -0.152002
   3 C :   -0.165965
   4 C :   -0.166390
   5 C :   -0.154132
   6 H :    0.283371
   7 H :    0.133820
   8 H :    0.121052
   9 H :    0.119267
  10 H :    0.119069
  11 C :   -0.220479
  12 C :   -0.211819
  13 H :    0.126398
  14 H :    0.150751
  15 C :   -0.041851
  16 H :    0.161117
  17 H :    0.120291
  18 C :    0.012211
  19 C :   -0.121398
  20 C :   -0.146633
  21 C :   -0.143759
  22 C :   -0.158171
  23 H :    0.170022
  24 H :    0.126798
  25 H :    0.122787
  26 H :    0.124579
  27 Pd:   -0.734708
  28 Br:   -0.226753
  29 P :    0.393980
  30 H :    0.057943
  31 C :    0.149206
  32 O :   -0.418780
  33 O :   -0.291838
  34 O :   -0.399609
  35 H :    0.034202
  36 H :    0.071476
  37 H :    0.301569

  Mayer bond orders larger than 0.100000
B(  0-C ,  1-C ) :   1.4996 B(  0-C ,  2-C ) :   1.3764 B(  0-C ,  6-H ) :   0.2167
B(  0-C , 27-Pd) :   0.4055 B(  1-C ,  5-C ) :   1.2976 B(  1-C , 11-C ) :   0.9528
B(  2-C ,  3-C ) :   1.4567 B(  2-C ,  5-C ) :   0.1003 B(  2-C ,  7-H ) :   0.9123
B(  3-C ,  4-C ) :   1.3838 B(  3-C ,  9-H ) :   0.9261 B(  4-C ,  5-C ) :   1.4938
B(  4-C , 10-H ) :   0.9278 B(  5-C ,  8-H ) :   0.9234 B(  6-H , 27-Pd) :   0.1664
B(  6-H , 28-Br) :   0.3568 B(  6-H , 33-O ) :   0.1010 B( 11-C , 12-C ) :   0.9338
B( 11-C , 13-H ) :   0.9307 B( 11-C , 14-H ) :   0.9027 B( 12-C , 15-C ) :   0.9681
B( 12-C , 16-H ) :   0.8823 B( 12-C , 17-H ) :   0.9303 B( 15-C , 18-C ) :   1.3362
B( 15-C , 21-C ) :   1.4184 B( 18-C , 19-C ) :   1.4187 B( 18-C , 27-Pd) :   0.8314
B( 19-C , 20-C ) :   1.3945 B( 19-C , 23-H ) :   0.8636 B( 20-C , 22-C ) :   1.4411
B( 20-C , 24-H ) :   0.9249 B( 21-C , 22-C ) :   1.4072 B( 21-C , 25-H ) :   0.9255
B( 22-C , 26-H ) :   0.9275 B( 27-Pd, 28-Br) :   0.2868 B( 27-Pd, 29-P ) :   0.6113
B( 27-Pd, 33-O ) :   0.1941 B( 28-Br, 29-P ) :   0.1035 B( 29-P , 30-H ) :   0.9312
B( 29-P , 35-H ) :   0.9142 B( 29-P , 36-H ) :   0.9288 B( 31-C , 32-O ) :   1.7140
B( 31-C , 33-O ) :   1.5859 B( 31-C , 34-O ) :   0.9528 B( 34-O , 37-H ) :   0.7881

Dispersion correction           -0.031221971
FINAL SINGLE POINT ENERGY     -3847.434071661717
Dispersion correction            ... done

DIPOLE MOMENT
-------------
                                X             Y             Z
Electronic contribution:      2.96170     -62.97491     -26.49204
Nuclear contribution   :     -1.70530      63.67147      29.27297
                        -----------------------------------------
Total Dipole Moment    :      1.25640       0.69655       2.78093
                        -----------------------------------------
Magnitude (a.u.)       :      3.13006
Magnitude (Debye)      :      7.95598

Rotational constants in cm-1:     0.006564     0.006233     0.004278
Rotational constants in MHz :   196.785892   186.862456   128.251344

                             ****ORCA TERMINATED NORMALLY****
TOTAL RUN TIME: 0 days 0 hours 21 minutes 49 seconds 644 msec
