                         Program Version 5.0.3 -  RELEASE  -
|  1> ! EnGrad PBEh-3c
|  2> %output
|  3> xyzfile=True
|  4> end
|  5> %scf
|  6> maxiter 250
|  7> end
|  8> %output
|  9> Print[P_Hirshfeld] = 1
| 10> end
| 11> % maxcore
| 12> 4000
| 13> *xyz -1 1
| 14> C   -2.21312398  -0.10955699   0.74088020
| 15> C   -1.85495173   1.03974517   1.43229899
| 16> C   -3.59309958  -0.39779691   0.62955485
| 17> C   -4.57813004   0.47740820   1.06142786
| 18> C   -4.21262762   1.69066739   1.63711618
| 19> C   -2.88086809   1.92287621   1.87552722
| 20> H   -2.48810736  -1.67491117  -1.86969288
| 21> H   -3.90595838  -1.41155078   0.42205620
| 22> H   -2.59717061   2.93137947   2.17156050
| 23> H   -5.62339275   0.28743253   0.83566529
| 24> H   -4.96502704   2.35025028   2.03887571
| 25> C   -0.44855137   1.46999318   1.82501481
| 26> C    0.74302498   0.42196490   1.94056574
| 27> H   -0.48056460   2.00215258   2.77234171
| 28> H   -0.21523072   2.18852610   1.05473984
| 29> C    1.77085289   0.60857189   0.87691146
| 30> H    0.34912586  -0.58530937   1.94131651
| 31> H    1.22911334   0.55957591   2.90798892
| 32> C    1.62838792   0.02340660  -0.38868355
| 33> C    2.61611707   0.23607818  -1.34940638
| 34> C    3.62848540   1.17065060  -1.13026522
| 35> C    2.85715607   1.44877352   1.11014769
| 36> C    3.75875482   1.77973635   0.10706159
| 37> H    2.64676813  -0.34229663  -2.26005544
| 38> H    4.36745615   1.35974578  -1.90348173
| 39> H    3.04000556   1.79522334   2.12135931
| 40> H    4.46133028   2.59376689   0.25040233
| 41> Pd   0.05299501  -1.30437135  -0.71106432
| 42> Br  -1.54577961  -3.68857515  -0.69680342
| 43> P    1.45952498  -3.00502250   0.00298002
| 44> H    1.06820241  -3.59628945   1.21855363
| 45> C    0.30798256  -1.50182982  -3.92500918
| 46> O    1.49314253  -1.71723858  -4.17337267
| 47> O   -0.56049285  -2.14910358  -3.18370675
| 48> O   -0.22329901  -0.21459650  -4.25718132
| 49> H    2.79472477  -2.79818028   0.31540468
| 50> H    1.61293328  -4.15233555  -0.77525199
| 51> H    0.49736814   0.29265868  -4.66431214
| 52> *
| 53>
| 54>                          ****END OF INPUT****

CARTESIAN COORDINATES (ANGSTROEM)
---------------------------------
  C     -2.213124   -0.109557    0.740880
  C     -1.854952    1.039745    1.432299
  C     -3.593100   -0.397797    0.629555
  C     -4.578130    0.477408    1.061428
  C     -4.212628    1.690667    1.637116
  C     -2.880868    1.922876    1.875527
  H     -2.488107   -1.674911   -1.869693
  H     -3.905958   -1.411551    0.422056
  H     -2.597171    2.931379    2.171561
  H     -5.623393    0.287433    0.835665
  H     -4.965027    2.350250    2.038876
  C     -0.448551    1.469993    1.825015
  C      0.743025    0.421965    1.940566
  H     -0.480565    2.002153    2.772342
  H     -0.215231    2.188526    1.054740
  C      1.770853    0.608572    0.876911
  H      0.349126   -0.585309    1.941317
  H      1.229113    0.559576    2.907989
  C      1.628388    0.023407   -0.388684
  C      2.616117    0.236078   -1.349406
  C      3.628485    1.170651   -1.130265
  C      2.857156    1.448774    1.110148
  C      3.758755    1.779736    0.107062
  H      2.646768   -0.342297   -2.260055
  H      4.367456    1.359746   -1.903482
  H      3.040006    1.795223    2.121359
  H      4.461330    2.593767    0.250402
  Pd     0.052995   -1.304371   -0.711064
  Br    -1.545780   -3.688575   -0.696803
  P      1.459525   -3.005022    0.002980
  H      1.068202   -3.596289    1.218554
  C      0.307983   -1.501830   -3.925009
  O      1.493143   -1.717239   -4.173373
  O     -0.560493   -2.149104   -3.183707
  O     -0.223299   -0.214596   -4.257181
  H      2.794725   -2.798180    0.315405
  H      1.612933   -4.152336   -0.775252
  H      0.497368    0.292659   -4.664312

 Total Charge           Charge          ....   -1
 Multiplicity           Mult            ....    1
 Number of Electrons    NEL             ....  200
 Basis Dimension        Dim             ....  385

ORBITAL ENERGIES
----------------

  NO   OCC          E(Eh)            E(eV)
   0   2.0000    -484.369389    -13180.3612
   1   2.0000     -77.682297     -2113.8428
   2   2.0000     -63.030414     -1715.1448
   3   2.0000     -56.733971     -1543.8098
   4   2.0000     -56.733261     -1543.7905
   5   2.0000     -56.732851     -1543.7794
   6   2.0000     -19.361485      -526.8528
   7   2.0000     -19.310801      -525.4736
   8   2.0000     -19.309300      -525.4328
   9   2.0000     -10.440805      -284.1088
  10   2.0000     -10.361247      -281.9439
  11   2.0000     -10.352957      -281.7183
  12   2.0000     -10.350180      -281.6427
  13   2.0000     -10.348676      -281.6018
  14   2.0000     -10.348355      -281.5931
  15   2.0000     -10.340880      -281.3897
  16   2.0000     -10.339690      -281.3573
  17   2.0000     -10.339120      -281.3418
  18   2.0000     -10.336381      -281.2672
  19   2.0000     -10.330563      -281.1089
  20   2.0000     -10.329728      -281.0862
  21   2.0000     -10.328290      -281.0471
  22   2.0000     -10.325991      -280.9845
  23   2.0000     -10.323812      -280.9252
  24   2.0000      -8.857151      -241.0153
  25   2.0000      -6.757419      -183.8787
  26   2.0000      -6.627153      -180.3340
  27   2.0000      -6.622927      -180.2190
  28   2.0000      -6.619478      -180.1251
  29   2.0000      -4.848493      -131.9342
  30   2.0000      -4.848136      -131.9245
  31   2.0000      -4.846675      -131.8847
  32   2.0000      -3.527781       -95.9958
  33   2.0000      -2.641450       -71.8775
  34   2.0000      -2.640832       -71.8607
  35   2.0000      -2.637934       -71.7818
  36   2.0000      -2.634328       -71.6837
  37   2.0000      -2.633898       -71.6720
  38   2.0000      -2.176233       -59.2183
  39   2.0000      -2.167643       -58.9846
  40   2.0000      -2.144353       -58.3508
  41   2.0000      -1.037710       -28.2375
  42   2.0000      -0.938616       -25.5410
  43   2.0000      -0.901019       -24.5180
  44   2.0000      -0.857879       -23.3441
  45   2.0000      -0.833683       -22.6857
  46   2.0000      -0.781005       -21.2522
  47   2.0000      -0.738955       -20.1080
  48   2.0000      -0.729904       -19.8617
  49   2.0000      -0.705756       -19.2046
  50   2.0000      -0.681630       -18.5481
  51   2.0000      -0.673717       -18.3328
  52   2.0000      -0.650918       -17.7124
  53   2.0000      -0.617110       -16.7924
  54   2.0000      -0.575579       -15.6623
  55   2.0000      -0.553414       -15.0592
  56   2.0000      -0.550112       -14.9693
  57   2.0000      -0.520738       -14.1700
  58   2.0000      -0.496563       -13.5122
  59   2.0000      -0.469929       -12.7874
  60   2.0000      -0.451874       -12.2961
  61   2.0000      -0.429797       -11.6954
  62   2.0000      -0.414517       -11.2796
  63   2.0000      -0.398648       -10.8478
  64   2.0000      -0.390119       -10.6157
  65   2.0000      -0.387681       -10.5493
  66   2.0000      -0.381242       -10.3741
  67   2.0000      -0.380204       -10.3459
  68   2.0000      -0.376538       -10.2461
  69   2.0000      -0.366743        -9.9796
  70   2.0000      -0.359979        -9.7955
  71   2.0000      -0.353037        -9.6066
  72   2.0000      -0.345680        -9.4064
  73   2.0000      -0.342522        -9.3205
  74   2.0000      -0.336047        -9.1443
  75   2.0000      -0.332435        -9.0460
  76   2.0000      -0.318200        -8.6587
  77   2.0000      -0.305162        -8.3039
  78   2.0000      -0.303311        -8.2535
  79   2.0000      -0.298033        -8.1099
  80   2.0000      -0.290768        -7.9122
  81   2.0000      -0.280303        -7.6274
  82   2.0000      -0.270853        -7.3703
  83   2.0000      -0.260215        -7.0808
  84   2.0000      -0.258827        -7.0430
  85   2.0000      -0.228531        -6.2186
  86   2.0000      -0.221195        -6.0190
  87   2.0000      -0.218651        -5.9498
  88   2.0000      -0.216088        -5.8801
  89   2.0000      -0.201628        -5.4866
  90   2.0000      -0.187929        -5.1138
  91   2.0000      -0.185146        -5.0381
  92   2.0000      -0.181224        -4.9314
  93   2.0000      -0.174018        -4.7353
  94   2.0000      -0.171113        -4.6562
  95   2.0000      -0.166364        -4.5270
  96   2.0000      -0.158923        -4.3245
  97   2.0000      -0.153180        -4.1682
  98   2.0000      -0.151414        -4.1202
  99   2.0000      -0.104881        -2.8539
 100   0.0000      -0.017636        -0.4799
 101   0.0000       0.042261         1.1500
 102   0.0000       0.113270         3.0822
 103   0.0000       0.120488         3.2786
 104   0.0000       0.131960         3.5908

MULLIKEN ATOMIC CHARGES
-----------------------
   0 C :   -0.073437
   1 C :    0.027641
   2 C :   -0.324656
   3 C :   -0.226058
   4 C :   -0.222097
   5 C :   -0.252031
   6 H :    0.250131
   7 H :    0.216478
   8 H :    0.178592
   9 H :    0.182298
  10 H :    0.178874
  11 C :   -0.467405
  12 C :   -0.524573
  13 H :    0.207072
  14 H :    0.254635
  15 C :    0.122484
  16 H :    0.280297
  17 H :    0.203736
  18 C :   -0.133706
  19 C :   -0.274442
  20 C :   -0.239303
  21 C :   -0.280453
  22 C :   -0.223508
  23 H :    0.277053
  24 H :    0.196383
  25 H :    0.183250
  26 H :    0.189333
  27 Pd:    0.125800
  28 Br:   -0.376116
  29 P :   -0.155275
  30 H :    0.124799
  31 C :    0.665504
  32 O :   -0.530672
  33 O :   -0.548204
  34 O :   -0.648375
  35 H :    0.095235
  36 H :    0.144215
  37 H :    0.396500
Sum of atomic charges:   -1.0000000

LOEWDIN ATOMIC CHARGES
----------------------
   0 C :   -0.091276
   1 C :   -0.065622
   2 C :   -0.157760
   3 C :   -0.167092
   4 C :   -0.168115
   5 C :   -0.156127
   6 H :    0.295678
   7 H :    0.130670
   8 H :    0.118739
   9 H :    0.118543
  10 H :    0.118282
  11 C :   -0.219415
  12 C :   -0.212227
  13 H :    0.124597
  14 H :    0.149340
  15 C :   -0.041533
  16 H :    0.161963
  17 H :    0.119671
  18 C :    0.009393
  19 C :   -0.123770
  20 C :   -0.148481
  21 C :   -0.144449
  22 C :   -0.158504
  23 H :    0.167133
  24 H :    0.126437
  25 H :    0.123035
  26 H :    0.123974
  27 Pd:   -0.749607
  28 Br:   -0.205509
  29 P :    0.390298
  30 H :    0.057726
  31 C :    0.144326
  32 O :   -0.347589
  33 O :   -0.334603
  34 O :   -0.393882
  35 H :    0.034624
  36 H :    0.069301
  37 H :    0.301830

  Mayer bond orders larger than 0.100000
B(  0-C ,  1-C ) :   1.4669 B(  0-C ,  2-C ) :   1.3974 B(  0-C ,  6-H ) :   0.1835
B(  0-C , 27-Pd) :   0.4281 B(  1-C ,  5-C ) :   1.3229 B(  1-C , 11-C ) :   0.9530
B(  2-C ,  3-C ) :   1.4416 B(  2-C ,  7-H ) :   0.9133 B(  3-C ,  4-C ) :   1.3939
B(  3-C ,  9-H ) :   0.9264 B(  4-C ,  5-C ) :   1.4761 B(  4-C , 10-H ) :   0.9284
B(  5-C ,  8-H ) :   0.9244 B(  6-H , 27-Pd) :   0.1557 B(  6-H , 28-Br) :   0.3787
B(  6-H , 33-O ) :   0.1313 B( 11-C , 12-C ) :   0.9322 B( 11-C , 13-H ) :   0.9336
B( 11-C , 14-H ) :   0.9025 B( 12-C , 15-C ) :   0.9707 B( 12-C , 16-H ) :   0.8827
B( 12-C , 17-H ) :   0.9292 B( 15-C , 18-C ) :   1.3431 B( 15-C , 21-C ) :   1.4102
B( 18-C , 19-C ) :   1.4113 B( 18-C , 27-Pd) :   0.8254 B( 19-C , 20-C ) :   1.4038
B( 19-C , 23-H ) :   0.8703 B( 20-C , 22-C ) :   1.4322 B( 20-C , 24-H ) :   0.9250
B( 21-C , 22-C ) :   1.4165 B( 21-C , 25-H ) :   0.9256 B( 22-C , 26-H ) :   0.9274
B( 27-Pd, 28-Br) :   0.2913 B( 27-Pd, 29-P ) :   0.5980 B( 27-Pd, 33-O ) :   0.2118
B( 29-P , 30-H ) :   0.9311 B( 29-P , 35-H ) :   0.9151 B( 29-P , 36-H ) :   0.9286
B( 31-C , 32-O ) :   1.8064 B( 31-C , 33-O ) :   1.4881 B( 31-C , 34-O ) :   0.9605
B( 34-O , 37-H ) :   0.7922

Dispersion correction           -0.031258874
FINAL SINGLE POINT ENERGY     -3847.442671554718
Dispersion correction            ... done

DIPOLE MOMENT
-------------
                                X             Y             Z
Electronic contribution:      1.94750     -63.56651     -26.76264
Nuclear contribution   :     -0.46600      64.07020      29.16438
                        -----------------------------------------
Total Dipole Moment    :      1.48150       0.50369       2.40175
                        -----------------------------------------
Magnitude (a.u.)       :      2.86652
Magnitude (Debye)      :      7.28611

Rotational constants in cm-1:     0.006585     0.006252     0.004288
Rotational constants in MHz :   197.423604   187.440629   128.543707

                             ****ORCA TERMINATED NORMALLY****
TOTAL RUN TIME: 0 days 0 hours 25 minutes 15 seconds 770 msec
