                         Program Version 5.0.3 -  RELEASE  -
|  1> ! EnGrad PBEh-3c
|  2> %output
|  3> xyzfile=True
|  4> end
|  5> %scf
|  6> maxiter 250
|  7> end
|  8> %output
|  9> Print[P_Hirshfeld] = 1
| 10> end
| 11> % maxcore
| 12> 4000
| 13> *xyz -1 1
| 14> C   -2.21186236  -0.13865808   0.75903345
| 15> C   -1.86204430   1.06906650   1.41427741
| 16> C   -3.58134576  -0.40875152   0.63495046
| 17> C   -4.58003017   0.45997688   1.08528335
| 18> C   -4.21406364   1.70277757   1.61376399
| 19> C   -2.87022626   1.92473096   1.86935265
| 20> H   -2.40224209  -1.71106505  -1.82974805
| 21> H   -3.89799605  -1.41772869   0.36825226
| 22> H   -2.58190161   2.91807819   2.21211820
| 23> H   -5.61685297   0.27341143   0.84900398
| 24> H   -4.96415798   2.36651422   2.02744580
| 25> C   -0.43654211   1.46208903   1.80749476
| 26> C    0.72950149   0.42780142   1.94138146
| 27> H   -0.49415166   2.01352129   2.77709214
| 28> H   -0.18243208   2.20528393   1.05086951
| 29> C    1.77860405   0.59368421   0.87443949
| 30> H    0.33539433  -0.60101355   1.93766044
| 31> H    1.21885185   0.57245947   2.90920500
| 32> C    1.62809368  -0.01575793  -0.38153605
| 33> C    2.61312293   0.22807781  -1.34867809
| 34> C    3.62066581   1.16753802  -1.13747037
| 35> C    2.83554345   1.48415568   1.10164712
| 36> C    3.75431041   1.77929873   0.11075296
| 37> H    2.62788238  -0.34575224  -2.28120146
| 38> H    4.35666591   1.35929504  -1.90064262
| 39> H    3.03280039   1.80311070   2.12232526
| 40> H    4.47614263   2.57528120   0.26317245
| 41> Pd   0.00611536  -1.32111277  -0.70144263
| 42> Br  -1.57041784  -3.63350535  -0.71045331
| 43> P    1.46228417  -2.99119883  -0.00168912
| 44> H    1.06479425  -3.59223702   1.21215276
| 45> C    0.33042544  -1.47068520  -3.94618592
| 46> O    1.46706963  -1.70195732  -4.16845022
| 47> O   -0.58478218  -2.15487925  -3.15123891
| 48> O   -0.21907416  -0.22718361  -4.24918374
| 49> H    2.81414796  -2.78855815   0.32113424
| 50> H    1.60242936  -4.15164073  -0.78202841
| 51> H    0.51037488   0.28783084  -4.67057284
| 52> *
| 53>
| 54>                          ****END OF INPUT****

CARTESIAN COORDINATES (ANGSTROEM)
---------------------------------
  C     -2.211862   -0.138658    0.759033
  C     -1.862044    1.069066    1.414277
  C     -3.581346   -0.408752    0.634950
  C     -4.580030    0.459977    1.085283
  C     -4.214064    1.702778    1.613764
  C     -2.870226    1.924731    1.869353
  H     -2.402242   -1.711065   -1.829748
  H     -3.897996   -1.417729    0.368252
  H     -2.581902    2.918078    2.212118
  H     -5.616853    0.273411    0.849004
  H     -4.964158    2.366514    2.027446
  C     -0.436542    1.462089    1.807495
  C      0.729501    0.427801    1.941381
  H     -0.494152    2.013521    2.777092
  H     -0.182432    2.205284    1.050870
  C      1.778604    0.593684    0.874439
  H      0.335394   -0.601014    1.937660
  H      1.218852    0.572459    2.909205
  C      1.628094   -0.015758   -0.381536
  C      2.613123    0.228078   -1.348678
  C      3.620666    1.167538   -1.137470
  C      2.835543    1.484156    1.101647
  C      3.754310    1.779299    0.110753
  H      2.627882   -0.345752   -2.281201
  H      4.356666    1.359295   -1.900643
  H      3.032800    1.803111    2.122325
  H      4.476143    2.575281    0.263172
  Pd     0.006115   -1.321113   -0.701443
  Br    -1.570418   -3.633505   -0.710453
  P      1.462284   -2.991199   -0.001689
  H      1.064794   -3.592237    1.212153
  C      0.330425   -1.470685   -3.946186
  O      1.467070   -1.701957   -4.168450
  O     -0.584782   -2.154879   -3.151239
  O     -0.219074   -0.227184   -4.249184
  H      2.814148   -2.788558    0.321134
  H      1.602429   -4.151641   -0.782028
  H      0.510375    0.287831   -4.670573

 Total Charge           Charge          ....   -1
 Multiplicity           Mult            ....    1
 Number of Electrons    NEL             ....  200
 Basis Dimension        Dim             ....  385

ORBITAL ENERGIES
----------------

  NO   OCC          E(Eh)            E(eV)
   0   2.0000    -484.377041    -13180.5694
   1   2.0000     -77.682182     -2113.8396
   2   2.0000     -63.037981     -1715.3507
   3   2.0000     -56.741669     -1544.0193
   4   2.0000     -56.740804     -1543.9958
   5   2.0000     -56.740308     -1543.9823
   6   2.0000     -19.380472      -527.3694
   7   2.0000     -19.331250      -526.0301
   8   2.0000     -19.310577      -525.4675
   9   2.0000     -10.449909      -284.3565
  10   2.0000     -10.359235      -281.8891
  11   2.0000     -10.350504      -281.6515
  12   2.0000     -10.348942      -281.6090
  13   2.0000     -10.347247      -281.5629
  14   2.0000     -10.346553      -281.5440
  15   2.0000     -10.342178      -281.4250
  16   2.0000     -10.336134      -281.2605
  17   2.0000     -10.332891      -281.1722
  18   2.0000     -10.330932      -281.1190
  19   2.0000     -10.325801      -280.9793
  20   2.0000     -10.323109      -280.9061
  21   2.0000     -10.322505      -280.8896
  22   2.0000     -10.315943      -280.7111
  23   2.0000     -10.313579      -280.6467
  24   2.0000      -8.864724      -241.2214
  25   2.0000      -6.756502      -183.8538
  26   2.0000      -6.635240      -180.5540
  27   2.0000      -6.630274      -180.4189
  28   2.0000      -6.626732      -180.3226
  29   2.0000      -4.847548      -131.9085
  30   2.0000      -4.847270      -131.9009
  31   2.0000      -4.845772      -131.8602
  32   2.0000      -3.523063       -95.8674
  33   2.0000      -2.649447       -72.0951
  34   2.0000      -2.648663       -72.0738
  35   2.0000      -2.645687       -71.9928
  36   2.0000      -2.641435       -71.8771
  37   2.0000      -2.641040       -71.8664
  38   2.0000      -2.171816       -59.0981
  39   2.0000      -2.162438       -58.8429
  40   2.0000      -2.139231       -58.2114
  41   2.0000      -1.068206       -29.0674
  42   2.0000      -0.971689       -26.4410
  43   2.0000      -0.876502       -23.8508
  44   2.0000      -0.852850       -23.2072
  45   2.0000      -0.824028       -22.4229
  46   2.0000      -0.774699       -21.0806
  47   2.0000      -0.731163       -19.8959
  48   2.0000      -0.727066       -19.7845
  49   2.0000      -0.696764       -18.9599
  50   2.0000      -0.679680       -18.4950
  51   2.0000      -0.675014       -18.3681
  52   2.0000      -0.648858       -17.6563
  53   2.0000      -0.607609       -16.5339
  54   2.0000      -0.571253       -15.5446
  55   2.0000      -0.547919       -14.9096
  56   2.0000      -0.539776       -14.6881
  57   2.0000      -0.515753       -14.0344
  58   2.0000      -0.513093       -13.9620
  59   2.0000      -0.466216       -12.6864
  60   2.0000      -0.443002       -12.0547
  61   2.0000      -0.424168       -11.5422
  62   2.0000      -0.410149       -11.1607
  63   2.0000      -0.404817       -11.0156
  64   2.0000      -0.390367       -10.6224
  65   2.0000      -0.382361       -10.4046
  66   2.0000      -0.377935       -10.2841
  67   2.0000      -0.376582       -10.2473
  68   2.0000      -0.374980       -10.2037
  69   2.0000      -0.372233       -10.1290
  70   2.0000      -0.366135        -9.9630
  71   2.0000      -0.357995        -9.7415
  72   2.0000      -0.348756        -9.4901
  73   2.0000      -0.337029        -9.1710
  74   2.0000      -0.329112        -8.9556
  75   2.0000      -0.326320        -8.8796
  76   2.0000      -0.315549        -8.5865
  77   2.0000      -0.312060        -8.4916
  78   2.0000      -0.298091        -8.1115
  79   2.0000      -0.293966        -7.9992
  80   2.0000      -0.284893        -7.7523
  81   2.0000      -0.271439        -7.3862
  82   2.0000      -0.261426        -7.1138
  83   2.0000      -0.258947        -7.0463
  84   2.0000      -0.254132        -6.9153
  85   2.0000      -0.234121        -6.3708
  86   2.0000      -0.227133        -6.1806
  87   2.0000      -0.225796        -6.1442
  88   2.0000      -0.215448        -5.8626
  89   2.0000      -0.206385        -5.6160
  90   2.0000      -0.196594        -5.3496
  91   2.0000      -0.185451        -5.0464
  92   2.0000      -0.180963        -4.9243
  93   2.0000      -0.176846        -4.8122
  94   2.0000      -0.170245        -4.6326
  95   2.0000      -0.160225        -4.3599
  96   2.0000      -0.152504        -4.1498
  97   2.0000      -0.148610        -4.0439
  98   2.0000      -0.146819        -3.9952
  99   2.0000      -0.100856        -2.7444
 100   0.0000      -0.004228        -0.1151
 101   0.0000       0.046860         1.2751
 102   0.0000       0.114657         3.1200
 103   0.0000       0.121178         3.2974
 104   0.0000       0.142557         3.8792

MULLIKEN ATOMIC CHARGES
-----------------------
   0 C :   -0.075833
   1 C :    0.029665
   2 C :   -0.330805
   3 C :   -0.227496
   4 C :   -0.230321
   5 C :   -0.250419
   6 H :    0.265534
   7 H :    0.205043
   8 H :    0.173681
   9 H :    0.178754
  10 H :    0.173767
  11 C :   -0.463121
  12 C :   -0.513368
  13 H :    0.195039
  14 H :    0.248472
  15 C :    0.092315
  16 H :    0.277227
  17 H :    0.199612
  18 C :   -0.115071
  19 C :   -0.286924
  20 C :   -0.231256
  21 C :   -0.259229
  22 C :   -0.233974
  23 H :    0.266340
  24 H :    0.195084
  25 H :    0.182106
  26 H :    0.187505
  27 Pd:    0.112760
  28 Br:   -0.344236
  29 P :   -0.157178
  30 H :    0.122624
  31 C :    0.653748
  32 O :   -0.466710
  33 O :   -0.586186
  34 O :   -0.615021
  35 H :    0.095253
  36 H :    0.136617
  37 H :    0.396003
Sum of atomic charges:   -1.0000000

LOEWDIN ATOMIC CHARGES
----------------------
   0 C :   -0.113088
   1 C :   -0.064236
   2 C :   -0.165092
   3 C :   -0.168666
   4 C :   -0.170249
   5 C :   -0.159531
   6 H :    0.312987
   7 H :    0.124873
   8 H :    0.115266
   9 H :    0.116930
  10 H :    0.116341
  11 C :   -0.217097
  12 C :   -0.213119
  13 H :    0.120334
  14 H :    0.145973
  15 C :   -0.040365
  16 H :    0.162943
  17 H :    0.118034
  18 C :    0.001354
  19 C :   -0.125891
  20 C :   -0.152594
  21 C :   -0.146678
  22 C :   -0.158209
  23 H :    0.162091
  24 H :    0.125684
  25 H :    0.123817
  26 H :    0.122634
  27 Pd:   -0.786211
  28 Br:   -0.155466
  29 P :    0.386123
  30 H :    0.056656
  31 C :    0.133848
  32 O :   -0.274677
  33 O :   -0.387698
  34 O :   -0.355108
  35 H :    0.035954
  36 H :    0.065244
  37 H :    0.306887

  Mayer bond orders larger than 0.100000
B(  0-C ,  1-C ) :   1.4115 B(  0-C ,  2-C ) :   1.4357 B(  0-C ,  6-H ) :   0.1165
B(  0-C , 27-Pd) :   0.4738 B(  1-C ,  5-C ) :   1.3725 B(  1-C , 11-C ) :   0.9523
B(  2-C ,  3-C ) :   1.4080 B(  2-C ,  7-H ) :   0.9139 B(  3-C ,  4-C ) :   1.4217
B(  3-C ,  9-H ) :   0.9270 B(  4-C ,  5-C ) :   1.4360 B(  4-C , 10-H ) :   0.9295
B(  5-C ,  8-H ) :   0.9250 B(  6-H , 27-Pd) :   0.1352 B(  6-H , 28-Br) :   0.4259
B(  6-H , 33-O ) :   0.1819 B( 11-C , 12-C ) :   0.9294 B( 11-C , 13-H ) :   0.9376
B( 11-C , 14-H ) :   0.9034 B( 12-C , 15-C ) :   0.9754 B( 12-C , 16-H ) :   0.8833
B( 12-C , 17-H ) :   0.9281 B( 15-C , 18-C ) :   1.3552 B( 15-C , 21-C ) :   1.3928
B( 18-C , 19-C ) :   1.3969 B( 18-C , 27-Pd) :   0.8095 B( 19-C , 20-C ) :   1.4176
B( 19-C , 23-H ) :   0.8774 B( 20-C , 22-C ) :   1.4196 B( 20-C , 24-H ) :   0.9253
B( 21-C , 22-C ) :   1.4303 B( 21-C , 25-H ) :   0.9252 B( 22-C , 26-H ) :   0.9272
B( 27-Pd, 28-Br) :   0.3024 B( 27-Pd, 29-P ) :   0.5766 B( 27-Pd, 33-O ) :   0.2365
B( 29-P , 30-H ) :   0.9303 B( 29-P , 35-H ) :   0.9172 B( 29-P , 36-H ) :   0.9273
B( 31-C , 32-O ) :   1.9010 B( 31-C , 33-O ) :   1.3526 B( 31-C , 34-O ) :   1.0097
B( 34-O , 37-H ) :   0.7899

Dispersion correction           -0.031359146
FINAL SINGLE POINT ENERGY     -3847.444319168154
Dispersion correction            ... done

DIPOLE MOMENT
-------------
                                X             Y             Z
Electronic contribution:     -0.27804     -64.77201     -26.89012
Nuclear contribution   :      1.99984      64.99182      28.66341
                        -----------------------------------------
Total Dipole Moment    :      1.72180       0.21981       1.77328
                        -----------------------------------------
Magnitude (a.u.)       :      2.48142
Magnitude (Debye)      :      6.30727

Rotational constants in cm-1:     0.006643     0.006295     0.004310
Rotational constants in MHz :   199.164069   188.711460   129.221087

                             ****ORCA TERMINATED NORMALLY****
TOTAL RUN TIME: 0 days 0 hours 24 minutes 34 seconds 142 msec
