                         Program Version 5.0.3 -  RELEASE  -
|  1> ! EnGrad PBEh-3c
|  2> %output
|  3> xyzfile=True
|  4> end
|  5> %scf
|  6> maxiter 250
|  7> end
|  8> %output
|  9> Print[P_Hirshfeld] = 1
| 10> end
| 11> % maxcore
| 12> 4000
| 13> *xyz -1 1
| 14> C   -2.20727864  -0.16345233   0.76634095
| 15> C   -1.86712687   1.08697336   1.41231638
| 16> C   -3.56406672  -0.42664006   0.65511744
| 17> C   -4.57862109   0.44636262   1.09684637
| 18> C   -4.21256223   1.70410898   1.60769244
| 19> C   -2.85706513   1.93441368   1.84421822
| 20> H   -2.28101548  -1.76464153  -1.77010296
| 21> H   -3.88972809  -1.42286657   0.30320781
| 22> H   -2.56447891   2.90049455   2.26649142
| 23> H   -5.61128563   0.25344089   0.87164523
| 24> H   -4.96278827   2.38595678   2.01018622
| 25> C   -0.42359864   1.45169908   1.78036220
| 26> C    0.70405911   0.43994924   1.94183232
| 27> H   -0.50881008   2.02649143   2.77049268
| 28> H   -0.13932598   2.22560505   1.04255444
| 29> C    1.77832501   0.58130578   0.86670381
| 30> H    0.31866289  -0.61520901   1.93358525
| 31> H    1.20365387   0.58687803   2.90997622
| 32> C    1.61757497  -0.06644877  -0.37784055
| 33> C    2.60513162   0.21604236  -1.34450963
| 34> C    3.61413028   1.15623843  -1.14267934
| 35> C    2.81788275   1.50641293   1.09361280
| 36> C    3.74016908   1.78788654   0.11198716
| 37> H    2.60516883  -0.34746253  -2.30503427
| 38> H    4.34502886   1.35889573  -1.89931319
| 39> H    3.01907346   1.81910088   2.12130315
| 40> H    4.49607546   2.54874498   0.27797475
| 41> Pd  -0.03145761  -1.34032318  -0.67818093
| 42> Br  -1.61073542  -3.55500607  -0.73495751
| 43> P    1.45635049  -2.96814746  -0.00986727
| 44> H    1.06031120  -3.58601463   1.20342706
| 45> C    0.33094052  -1.39370872  -3.93322029
| 46> O    1.45040263  -1.70069123  -4.17284160
| 47> O   -0.60361608  -2.16097123  -3.13107462
| 48> O   -0.20825600  -0.25277993  -4.24967204
| 49> H    2.83725939  -2.77712249   0.32993812
| 50> H    1.59125874  -4.15049340  -0.78821571
| 51> H    0.52294974   0.27779286  -4.67719124
| 52> *
| 53>
| 54>                          ****END OF INPUT****

CARTESIAN COORDINATES (ANGSTROEM)
---------------------------------
  C     -2.207279   -0.163452    0.766341
  C     -1.867127    1.086973    1.412316
  C     -3.564067   -0.426640    0.655117
  C     -4.578621    0.446363    1.096846
  C     -4.212562    1.704109    1.607692
  C     -2.857065    1.934414    1.844218
  H     -2.281015   -1.764642   -1.770103
  H     -3.889728   -1.422867    0.303208
  H     -2.564479    2.900495    2.266491
  H     -5.611286    0.253441    0.871645
  H     -4.962788    2.385957    2.010186
  C     -0.423599    1.451699    1.780362
  C      0.704059    0.439949    1.941832
  H     -0.508810    2.026491    2.770493
  H     -0.139326    2.225605    1.042554
  C      1.778325    0.581306    0.866704
  H      0.318663   -0.615209    1.933585
  H      1.203654    0.586878    2.909976
  C      1.617575   -0.066449   -0.377841
  C      2.605132    0.216042   -1.344510
  C      3.614130    1.156238   -1.142679
  C      2.817883    1.506413    1.093613
  C      3.740169    1.787887    0.111987
  H      2.605169   -0.347463   -2.305034
  H      4.345029    1.358896   -1.899313
  H      3.019073    1.819101    2.121303
  H      4.496075    2.548745    0.277975
  Pd    -0.031458   -1.340323   -0.678181
  Br    -1.610735   -3.555006   -0.734958
  P      1.456350   -2.968147   -0.009867
  H      1.060311   -3.586015    1.203427
  C      0.330941   -1.393709   -3.933220
  O      1.450403   -1.700691   -4.172842
  O     -0.603616   -2.160971   -3.131075
  O     -0.208256   -0.252780   -4.249672
  H      2.837259   -2.777122    0.329938
  H      1.591259   -4.150493   -0.788216
  H      0.522950    0.277793   -4.677191

 Total Charge           Charge          ....   -1
 Multiplicity           Mult            ....    1
 Number of Electrons    NEL             ....  200
 Basis Dimension        Dim             ....  385

ORBITAL ENERGIES
----------------

  NO   OCC          E(Eh)            E(eV)
   0   2.0000    -484.388689    -13180.8863
   1   2.0000     -77.684195     -2113.8944
   2   2.0000     -63.049585     -1715.6664
   3   2.0000     -56.753480     -1544.3407
   4   2.0000     -56.752352     -1544.3100
   5   2.0000     -56.751748     -1544.2936
   6   2.0000     -19.409304      -528.1540
   7   2.0000     -19.332448      -526.0627
   8   2.0000     -19.308511      -525.4113
   9   2.0000     -10.454360      -284.4776
  10   2.0000     -10.358219      -281.8615
  11   2.0000     -10.349613      -281.6273
  12   2.0000     -10.348277      -281.5909
  13   2.0000     -10.346585      -281.5449
  14   2.0000     -10.345133      -281.5054
  15   2.0000     -10.343467      -281.4600
  16   2.0000     -10.333205      -281.1808
  17   2.0000     -10.330297      -281.1017
  18   2.0000     -10.323934      -280.9285
  19   2.0000     -10.322959      -280.9020
  20   2.0000     -10.319599      -280.8106
  21   2.0000     -10.316054      -280.7141
  22   2.0000     -10.309795      -280.5438
  23   2.0000     -10.303207      -280.3645
  24   2.0000      -8.876417      -241.5396
  25   2.0000      -6.757290      -183.8752
  26   2.0000      -6.647519      -180.8882
  27   2.0000      -6.641774      -180.7319
  28   2.0000      -6.638008      -180.6294
  29   2.0000      -4.848311      -131.9293
  30   2.0000      -4.848121      -131.9241
  31   2.0000      -4.846622      -131.8833
  32   2.0000      -3.522463       -95.8511
  33   2.0000      -2.661681       -72.4280
  34   2.0000      -2.660697       -72.4012
  35   2.0000      -2.657538       -72.3153
  36   2.0000      -2.652600       -72.1809
  37   2.0000      -2.652212       -72.1704
  38   2.0000      -2.171626       -59.0930
  39   2.0000      -2.161753       -58.8243
  40   2.0000      -2.138040       -58.1790
  41   2.0000      -1.101703       -29.9789
  42   2.0000      -0.991047       -26.9678
  43   2.0000      -0.856507       -23.3067
  44   2.0000      -0.847499       -23.0616
  45   2.0000      -0.816564       -22.2198
  46   2.0000      -0.769897       -20.9500
  47   2.0000      -0.726228       -19.7617
  48   2.0000      -0.722802       -19.6684
  49   2.0000      -0.691931       -18.8284
  50   2.0000      -0.689390       -18.7593
  51   2.0000      -0.670269       -18.2389
  52   2.0000      -0.645599       -17.5676
  53   2.0000      -0.598888       -16.2966
  54   2.0000      -0.566544       -15.4165
  55   2.0000      -0.550054       -14.9677
  56   2.0000      -0.544289       -14.8109
  57   2.0000      -0.528794       -14.3892
  58   2.0000      -0.511436       -13.9169
  59   2.0000      -0.462935       -12.5971
  60   2.0000      -0.436472       -11.8770
  61   2.0000      -0.419850       -11.4247
  62   2.0000      -0.419211       -11.4073
  63   2.0000      -0.405989       -11.0475
  64   2.0000      -0.391536       -10.6542
  65   2.0000      -0.387171       -10.5354
  66   2.0000      -0.383810       -10.4440
  67   2.0000      -0.375619       -10.2211
  68   2.0000      -0.372243       -10.1292
  69   2.0000      -0.368314       -10.0223
  70   2.0000      -0.366842        -9.9823
  71   2.0000      -0.356057        -9.6888
  72   2.0000      -0.346565        -9.4305
  73   2.0000      -0.333163        -9.0658
  74   2.0000      -0.324910        -8.8413
  75   2.0000      -0.319655        -8.6983
  76   2.0000      -0.314998        -8.5715
  77   2.0000      -0.312667        -8.5081
  78   2.0000      -0.297429        -8.0935
  79   2.0000      -0.287463        -7.8223
  80   2.0000      -0.279055        -7.5935
  81   2.0000      -0.270561        -7.3624
  82   2.0000      -0.263629        -7.1737
  83   2.0000      -0.259127        -7.0512
  84   2.0000      -0.245681        -6.6853
  85   2.0000      -0.243585        -6.6283
  86   2.0000      -0.236987        -6.4487
  87   2.0000      -0.229368        -6.2414
  88   2.0000      -0.214830        -5.8458
  89   2.0000      -0.207559        -5.6480
  90   2.0000      -0.199469        -5.4278
  91   2.0000      -0.185394        -5.0448
  92   2.0000      -0.181682        -4.9438
  93   2.0000      -0.179429        -4.8825
  94   2.0000      -0.169236        -4.6051
  95   2.0000      -0.156097        -4.2476
  96   2.0000      -0.146564        -3.9882
  97   2.0000      -0.142372        -3.8741
  98   2.0000      -0.138938        -3.7807
  99   2.0000      -0.098023        -2.6673
 100   0.0000       0.017584         0.4785
 101   0.0000       0.051372         1.3979
 102   0.0000       0.116091         3.1590
 103   0.0000       0.121155         3.2968
 104   0.0000       0.148267         4.0346

MULLIKEN ATOMIC CHARGES
-----------------------
   0 C :   -0.082441
   1 C :    0.034354
   2 C :   -0.334570
   3 C :   -0.225369
   4 C :   -0.238149
   5 C :   -0.248888
   6 H :    0.279890
   7 H :    0.191157
   8 H :    0.167859
   9 H :    0.175961
  10 H :    0.169559
  11 C :   -0.456756
  12 C :   -0.502588
  13 H :    0.181274
  14 H :    0.242890
  15 C :    0.066508
  16 H :    0.272568
  17 H :    0.196953
  18 C :   -0.100858
  19 C :   -0.300822
  20 C :   -0.224768
  21 C :   -0.244526
  22 C :   -0.239194
  23 H :    0.257843
  24 H :    0.194752
  25 H :    0.181338
  26 H :    0.186985
  27 Pd:    0.096260
  28 Br:   -0.300071
  29 P :   -0.153918
  30 H :    0.118797
  31 C :    0.635564
  32 O :   -0.471145
  33 O :   -0.612115
  34 O :   -0.545485
  35 H :    0.095199
  36 H :    0.129546
  37 H :    0.406407
Sum of atomic charges:   -1.0000000

LOEWDIN ATOMIC CHARGES
----------------------
   0 C :   -0.134717
   1 C :   -0.062711
   2 C :   -0.170258
   3 C :   -0.169514
   4 C :   -0.172108
   5 C :   -0.162120
   6 H :    0.324143
   7 H :    0.118388
   8 H :    0.111939
   9 H :    0.115639
  10 H :    0.114481
  11 C :   -0.213474
  12 C :   -0.214035
  13 H :    0.115287
  14 H :    0.142643
  15 C :   -0.036303
  16 H :    0.163509
  17 H :    0.116678
  18 C :   -0.009747
  19 C :   -0.127327
  20 C :   -0.157494
  21 C :   -0.150363
  22 C :   -0.156673
  23 H :    0.158539
  24 H :    0.125433
  25 H :    0.124421
  26 H :    0.121298
  27 Pd:   -0.826413
  28 Br:   -0.090431
  29 P :    0.390706
  30 H :    0.054421
  31 C :    0.112253
  32 O :   -0.280547
  33 O :   -0.427511
  34 O :   -0.268430
  35 H :    0.037758
  36 H :    0.061411
  37 H :    0.321231

  Mayer bond orders larger than 0.100000
B(  0-C ,  1-C ) :   1.3701 B(  0-C ,  2-C ) :   1.4735 B(  0-C , 27-Pd) :   0.5107
B(  1-C ,  5-C ) :   1.4191 B(  1-C , 11-C ) :   0.9510 B(  2-C ,  3-C ) :   1.3792
B(  2-C ,  7-H ) :   0.9145 B(  3-C ,  4-C ) :   1.4494 B(  3-C ,  9-H ) :   0.9275
B(  4-C ,  5-C ) :   1.4042 B(  4-C , 10-H ) :   0.9305 B(  5-C ,  8-H ) :   0.9255
B(  6-H , 27-Pd) :   0.1100 B(  6-H , 28-Br) :   0.4899 B(  6-H , 33-O ) :   0.2100
B( 11-C , 12-C ) :   0.9261 B( 11-C , 13-H ) :   0.9410 B( 11-C , 14-H ) :   0.9041
B( 12-C , 15-C ) :   0.9755 B( 12-C , 16-H ) :   0.8838 B( 12-C , 17-H ) :   0.9280
B( 15-C , 18-C ) :   1.3642 B( 15-C , 21-C ) :   1.3750 B( 18-C , 19-C ) :   1.3802
B( 18-C , 27-Pd) :   0.7939 B( 19-C , 20-C ) :   1.4287 B( 19-C , 23-H ) :   0.8795
B( 20-C , 22-C ) :   1.4068 B( 20-C , 24-H ) :   0.9256 B( 21-C , 22-C ) :   1.4462
B( 21-C , 25-H ) :   0.9252 B( 22-C , 26-H ) :   0.9268 B( 27-Pd, 28-Br) :   0.3142
B( 27-Pd, 29-P ) :   0.5759 B( 27-Pd, 33-O ) :   0.2557 B( 29-P , 30-H ) :   0.9280
B( 29-P , 35-H ) :   0.9193 B( 29-P , 36-H ) :   0.9244 B( 31-C , 32-O ) :   1.9003
B( 31-C , 33-O ) :   1.2641 B( 31-C , 34-O ) :   1.1245 B( 34-O , 37-H ) :   0.7745

Dispersion correction           -0.031500013
FINAL SINGLE POINT ENERGY     -3847.450331110703
Dispersion correction            ... done

DIPOLE MOMENT
-------------
                                X             Y             Z
Electronic contribution:     -2.18976     -65.95706     -26.06518
Nuclear contribution   :      3.94839      66.04465      27.40456
                        -----------------------------------------
Total Dipole Moment    :      1.75864       0.08760       1.33937
                        -----------------------------------------
Magnitude (a.u.)       :      2.21233
Magnitude (Debye)      :      5.62330

Rotational constants in cm-1:     0.006734     0.006352     0.004341
Rotational constants in MHz :   201.874243   190.424259   130.148722

                             ****ORCA TERMINATED NORMALLY****
TOTAL RUN TIME: 0 days 0 hours 19 minutes 7 seconds 874 msec
