                         Program Version 5.0.3 -  RELEASE  -
|  1> ! EnGrad PBEh-3c
|  2> %output
|  3> xyzfile=True
|  4> end
|  5> %scf
|  6> maxiter 250
|  7> end
|  8> %output
|  9> Print[P_Hirshfeld] = 1
| 10> end
| 11> % maxcore
| 12> 4000
| 13> *xyz 0 1
| 14> Lu   0.12199713  -0.42311618   0.31482489
| 15> C    0.57391514   0.39081004   2.70501465
| 16> C    1.75429572  -0.26411741   2.29050127
| 17> C    2.33876270   0.50398818   1.26290244
| 18> C    1.50813831   1.61410595   1.01514987
| 19> C    0.42912321   1.55101398   1.92445480
| 20> H    1.69512798   2.40439255   0.30152197
| 21> H   -0.33126287   2.30688656   2.05539980
| 22> H   -0.07865810   0.08838280   3.50956191
| 23> H    2.14835865  -1.17920428   2.71112095
| 24> H    3.26504386   0.27933736   0.75587590
| 25> C    0.58164061  -0.16928382  -2.20624398
| 26> C   -0.55660191  -0.99881022  -2.11834754
| 27> C    1.21937145  -2.14991340  -1.27026496
| 28> C    1.68129735  -0.89088873  -1.70312093
| 29> H    0.61235500   0.81264673  -2.65621985
| 30> C   -0.16552696  -2.21627048  -1.53915963
| 31> H   -1.54246268  -0.77016090  -2.49345879
| 32> H    2.70453991  -0.54913841  -1.66814843
| 33> H    1.81916643  -2.94294409  -0.84553566
| 34> H   -0.80876612  -3.06561418  -1.36531193
| 35> C   -2.00131926  -1.24753216   1.09352172
| 36> H   -2.38142010  -0.85478739   2.03947835
| 37> H   -2.03882456  -2.34229122   1.18102945
| 38> H   -2.75114407  -1.01960528   0.32680661
| 39> C   -1.92750773   2.25497745  -1.14556396
| 40> H   -2.17565891   1.28406890  -0.25462282
| 41> H   -0.91007176   2.63582717  -1.20996908
| 42> H   -2.56996563   3.09582720  -0.89302098
| 43> H   -2.21395279   1.86143797  -2.11819203
| 44> *
| 45>
| 46>                          ****END OF INPUT****

CARTESIAN COORDINATES (ANGSTROEM)
---------------------------------
  Lu     0.121997   -0.423116    0.314825
  C      0.573915    0.390810    2.705015
  C      1.754296   -0.264117    2.290501
  C      2.338763    0.503988    1.262902
  C      1.508138    1.614106    1.015150
  C      0.429123    1.551014    1.924455
  H      1.695128    2.404393    0.301522
  H     -0.331263    2.306887    2.055400
  H     -0.078658    0.088383    3.509562
  H      2.148359   -1.179204    2.711121
  H      3.265044    0.279337    0.755876
  C      0.581641   -0.169284   -2.206244
  C     -0.556602   -0.998810   -2.118348
  C      1.219371   -2.149913   -1.270265
  C      1.681297   -0.890889   -1.703121
  H      0.612355    0.812647   -2.656220
  C     -0.165527   -2.216270   -1.539160
  H     -1.542463   -0.770161   -2.493459
  H      2.704540   -0.549138   -1.668148
  H      1.819166   -2.942944   -0.845536
  H     -0.808766   -3.065614   -1.365312
  C     -2.001319   -1.247532    1.093522
  H     -2.381420   -0.854787    2.039478
  H     -2.038825   -2.342291    1.181029
  H     -2.751144   -1.019605    0.326807
  C     -1.927508    2.254977   -1.145564
  H     -2.175659    1.284069   -0.254623
  H     -0.910072    2.635827   -1.209969
  H     -2.569966    3.095827   -0.893021
  H     -2.213953    1.861438   -2.118192

 Total Charge           Charge          ....    0
 Multiplicity           Mult            ....    1
 Number of Electrons    NEL             ....  132
 Basis Dimension        Dim             ....  295

ORBITAL ENERGIES
----------------

  NO   OCC          E(Eh)            E(eV)
   0   2.0000     -19.244692      -523.6747
   1   2.0000     -12.617258      -343.3331
   2   2.0000     -12.614607      -343.2609
   3   2.0000     -12.614129      -343.2479
   4   2.0000     -10.460420      -284.6425
   5   2.0000     -10.448960      -284.3307
   6   2.0000     -10.447033      -284.2782
   7   2.0000     -10.446981      -284.2768
   8   2.0000     -10.446848      -284.2732
   9   2.0000     -10.445654      -284.2407
  10   2.0000     -10.444747      -284.2160
  11   2.0000     -10.444649      -284.2134
  12   2.0000     -10.444333      -284.2047
  13   2.0000     -10.443029      -284.1693
  14   2.0000     -10.442271      -284.1486
  15   2.0000     -10.358672      -281.8738
  16   2.0000      -5.886232      -160.1725
  17   2.0000      -5.885890      -160.1632
  18   2.0000      -5.885350      -160.1485
  19   2.0000      -5.883771      -160.1055
  20   2.0000      -5.883665      -160.1027
  21   2.0000      -2.428631       -66.0864
  22   2.0000      -1.269219       -34.5372
  23   2.0000      -1.267542       -34.4916
  24   2.0000      -1.255851       -34.1734
  25   2.0000      -0.982328       -26.7305
  26   2.0000      -0.971680       -26.4408
  27   2.0000      -0.796268       -21.6676
  28   2.0000      -0.795941       -21.6587
  29   2.0000      -0.793967       -21.6049
  30   2.0000      -0.792346       -21.5608
  31   2.0000      -0.782469       -21.2921
  32   2.0000      -0.696198       -18.9445
  33   2.0000      -0.616933       -16.7876
  34   2.0000      -0.613333       -16.6896
  35   2.0000      -0.611426       -16.6378
  36   2.0000      -0.610132       -16.6025
  37   2.0000      -0.598441       -16.2844
  38   2.0000      -0.593017       -16.1368
  39   2.0000      -0.554206       -15.0807
  40   2.0000      -0.552649       -15.0383
  41   2.0000      -0.552548       -15.0356
  42   2.0000      -0.551381       -15.0039
  43   2.0000      -0.550921       -14.9913
  44   2.0000      -0.549624       -14.9560
  45   2.0000      -0.547832       -14.9073
  46   2.0000      -0.471995       -12.8436
  47   2.0000      -0.470209       -12.7950
  48   2.0000      -0.465639       -12.6707
  49   2.0000      -0.454384       -12.3644
  50   2.0000      -0.454312       -12.3625
  51   2.0000      -0.450861       -12.2686
  52   2.0000      -0.449910       -12.2427
  53   2.0000      -0.435595       -11.8531
  54   2.0000      -0.434313       -11.8183
  55   2.0000      -0.432361       -11.7652
  56   2.0000      -0.431375       -11.7383
  57   2.0000      -0.429674       -11.6920
  58   2.0000      -0.429102       -11.6765
  59   2.0000      -0.392489       -10.6802
  60   2.0000      -0.384261       -10.4563
  61   2.0000      -0.290886        -7.9154
  62   2.0000      -0.289621        -7.8810
  63   2.0000      -0.279960        -7.6181
  64   2.0000      -0.268791        -7.3142
  65   2.0000      -0.251178        -6.8349
  66   0.0000      -0.018038        -0.4908
  67   0.0000       0.004086         0.1112
  68   0.0000       0.042503         1.1566
  69   0.0000       0.051355         1.3975
  70   0.0000       0.053163         1.4466

MULLIKEN ATOMIC CHARGES
-----------------------
   0 Lu:    0.825645
   1 C :   -0.261727
   2 C :   -0.315017
   3 C :   -0.256073
   4 C :   -0.307409
   5 C :   -0.287826
   6 H :    0.237177
   7 H :    0.242685
   8 H :    0.246591
   9 H :    0.243174
  10 H :    0.235696
  11 C :   -0.314069
  12 C :   -0.275163
  13 C :   -0.316703
  14 C :   -0.257464
  15 H :    0.233541
  16 C :   -0.256114
  17 H :    0.238123
  18 H :    0.232896
  19 H :    0.239995
  20 H :    0.244311
  21 C :   -1.055735
  22 H :    0.213534
  23 H :    0.213430
  24 H :    0.205438
  25 C :   -0.884543
  26 H :    0.200074
  27 H :    0.236607
  28 H :    0.251436
  29 H :    0.247488
Sum of atomic charges:    0.0000000

LOEWDIN ATOMIC CHARGES
----------------------
   0 Lu:   -0.025072
   1 C :   -0.123096
   2 C :   -0.147468
   3 C :   -0.126613
   4 C :   -0.147794
   5 C :   -0.136614
   6 H :    0.154480
   7 H :    0.157342
   8 H :    0.160825
   9 H :    0.156594
  10 H :    0.153026
  11 C :   -0.152067
  12 C :   -0.133712
  13 C :   -0.151370
  14 C :   -0.128061
  15 H :    0.152775
  16 C :   -0.123985
  17 H :    0.155376
  18 H :    0.151945
  19 H :    0.154976
  20 H :    0.158685
  21 C :   -0.650677
  22 H :    0.128492
  23 H :    0.135482
  24 H :    0.131313
  25 C :   -0.490748
  26 H :    0.168281
  27 H :    0.140764
  28 H :    0.138819
  29 H :    0.138103

  Mayer bond orders larger than 0.100000
B(  0-Lu,  1-C ) :   0.2391 B(  0-Lu,  2-C ) :   0.2782 B(  0-Lu,  3-C ) :   0.2584
B(  0-Lu,  4-C ) :   0.2742 B(  0-Lu,  5-C ) :   0.2691 B(  0-Lu, 11-C ) :   0.2745
B(  0-Lu, 12-C ) :   0.2538 B(  0-Lu, 13-C ) :   0.2764 B(  0-Lu, 14-C ) :   0.2591
B(  0-Lu, 16-C ) :   0.2373 B(  0-Lu, 21-C ) :   0.8141 B(  1-C ,  2-C ) :   1.2803
B(  1-C ,  5-C ) :   1.3056 B(  1-C ,  8-H ) :   0.9160 B(  2-C ,  3-C ) :   1.2882
B(  2-C ,  9-H ) :   0.9133 B(  3-C ,  4-C ) :   1.2923 B(  3-C , 10-H ) :   0.9160
B(  4-C ,  5-C ) :   1.2680 B(  4-C ,  6-H ) :   0.9162 B(  5-C ,  7-H ) :   0.9170
B( 11-C , 12-C ) :   1.2692 B( 11-C , 14-C ) :   1.2938 B( 11-C , 15-H ) :   0.9183
B( 12-C , 16-C ) :   1.3198 B( 12-C , 17-H ) :   0.9177 B( 13-C , 14-C ) :   1.2870
B( 13-C , 16-C ) :   1.2810 B( 13-C , 19-H ) :   0.9145 B( 14-C , 18-H ) :   0.9178
B( 16-C , 20-H ) :   0.9154 B( 21-C , 22-H ) :   0.9133 B( 21-C , 23-H ) :   0.9076
B( 21-C , 24-H ) :   0.9009 B( 25-C , 26-H ) :   0.8981 B( 25-C , 27-H ) :   0.9081
B( 25-C , 28-H ) :   0.9119 B( 25-C , 29-H ) :   0.9093

Dispersion correction           -0.017593692
FINAL SINGLE POINT ENERGY     -1702.366473706712
Dispersion correction            ... done

DIPOLE MOMENT
-------------
                                X             Y             Z
Electronic contribution:     -0.49221     -18.39332      14.88041
Nuclear contribution   :      0.92737      18.93798     -15.24564
                        -----------------------------------------
Total Dipole Moment    :      0.43516       0.54465      -0.36523
                        -----------------------------------------
Magnitude (a.u.)       :      0.78702
Magnitude (Debye)      :      2.00045

Rotational constants in cm-1:     0.028030     0.019734     0.017674
Rotational constants in MHz :   840.317055   591.620521   529.850401

                             ****ORCA TERMINATED NORMALLY****
TOTAL RUN TIME: 0 days 0 hours 9 minutes 14 seconds 203 msec
