                         Program Version 5.0.3 -  RELEASE  -
|  1> ! EnGrad PBEh-3c
|  2> %output
|  3> xyzfile=True
|  4> end
|  5> %scf
|  6> maxiter 250
|  7> end
|  8> %output
|  9> Print[P_Hirshfeld] = 1
| 10> end
| 11> % maxcore
| 12> 4000
| 13> *xyz 0 1
| 14> Lu   0.07799529  -0.42138225   0.32051544
| 15> C    0.55229254   0.46822951   2.69520329
| 16> C    1.69569326  -0.25569205   2.28925777
| 17> C    2.32702387   0.46863231   1.25809569
| 18> C    1.56432635   1.62251007   1.00312382
| 19> C    0.47074795   1.62541202   1.89808940
| 20> H    1.80594731   2.39392072   0.28540959
| 21> H   -0.27360789   2.40572290   1.98327716
| 22> H   -0.13567463   0.18480134   3.47670241
| 23> H    2.05344675  -1.17782236   2.72559156
| 24> H    3.25133510   0.19867016   0.76866445
| 25> C    0.63016539  -0.15266154  -2.23190790
| 26> C   -0.53072699  -0.95618504  -2.17312622
| 27> C    1.18776526  -2.13077075  -1.24534784
| 28> C    1.69214845  -0.88674892  -1.67568029
| 29> H    0.70953833   0.82471084  -2.68776161
| 30> C   -0.18732325  -2.17710889  -1.56859324
| 31> H   -1.50620479  -0.69022350  -2.55401484
| 32> H    2.72294099  -0.56783766  -1.62498342
| 33> H    1.76892897  -2.93386184  -0.81495621
| 34> H   -0.85727269  -3.00334336  -1.38499962
| 35> C   -1.97070429  -1.29824877   1.09575550
| 36> H   -2.34175829  -0.92529612   2.05788644
| 37> H   -1.94607300  -2.39571837   1.19490726
| 38> H   -2.77690829  -1.10748437   0.37031788
| 39> C   -1.99370084   2.19642102  -1.08465598
| 40> H   -2.14216267   1.39511871  -0.29900236
| 41> H   -0.93255129   2.45863835  -1.07678563
| 42> H   -2.62267677   3.03902394  -0.78396392
| 43> H   -2.30602260   1.78112216  -2.04691291
| 44> *
| 45>
| 46>                          ****END OF INPUT****

CARTESIAN COORDINATES (ANGSTROEM)
---------------------------------
  Lu     0.077995   -0.421382    0.320515
  C      0.552293    0.468230    2.695203
  C      1.695693   -0.255692    2.289258
  C      2.327024    0.468632    1.258096
  C      1.564326    1.622510    1.003124
  C      0.470748    1.625412    1.898089
  H      1.805947    2.393921    0.285410
  H     -0.273608    2.405723    1.983277
  H     -0.135675    0.184801    3.476702
  H      2.053447   -1.177822    2.725592
  H      3.251335    0.198670    0.768664
  C      0.630165   -0.152662   -2.231908
  C     -0.530727   -0.956185   -2.173126
  C      1.187765   -2.130771   -1.245348
  C      1.692148   -0.886749   -1.675680
  H      0.709538    0.824711   -2.687762
  C     -0.187323   -2.177109   -1.568593
  H     -1.506205   -0.690223   -2.554015
  H      2.722941   -0.567838   -1.624983
  H      1.768929   -2.933862   -0.814956
  H     -0.857273   -3.003343   -1.385000
  C     -1.970704   -1.298249    1.095755
  H     -2.341758   -0.925296    2.057886
  H     -1.946073   -2.395718    1.194907
  H     -2.776908   -1.107484    0.370318
  C     -1.993701    2.196421   -1.084656
  H     -2.142163    1.395119   -0.299002
  H     -0.932551    2.458638   -1.076786
  H     -2.622677    3.039024   -0.783964
  H     -2.306023    1.781122   -2.046913

 Total Charge           Charge          ....    0
 Multiplicity           Mult            ....    1
 Number of Electrons    NEL             ....  132
 Basis Dimension        Dim             ....  295

ORBITAL ENERGIES
----------------

  NO   OCC          E(Eh)            E(eV)
   0   2.0000     -19.247441      -523.7495
   1   2.0000     -12.620015      -343.4081
   2   2.0000     -12.617412      -343.3372
   3   2.0000     -12.616835      -343.3215
   4   2.0000     -10.447978      -284.3039
   5   2.0000     -10.447717      -284.2968
   6   2.0000     -10.447079      -284.2795
   7   2.0000     -10.446346      -284.2595
   8   2.0000     -10.446015      -284.2505
   9   2.0000     -10.445271      -284.2303
  10   2.0000     -10.444965      -284.2219
  11   2.0000     -10.444272      -284.2031
  12   2.0000     -10.443907      -284.1932
  13   2.0000     -10.443245      -284.1751
  14   2.0000     -10.442776      -284.1624
  15   2.0000     -10.361517      -281.9512
  16   2.0000      -5.889016      -160.2483
  17   2.0000      -5.888693      -160.2395
  18   2.0000      -5.888089      -160.2230
  19   2.0000      -5.886541      -160.1809
  20   2.0000      -5.886425      -160.1778
  21   2.0000      -2.431351       -66.1604
  22   2.0000      -1.270648       -34.5761
  23   2.0000      -1.270314       -34.5670
  24   2.0000      -1.258606       -34.2484
  25   2.0000      -0.981583       -26.7102
  26   2.0000      -0.971916       -26.4472
  27   2.0000      -0.796729       -21.6801
  28   2.0000      -0.795552       -21.6481
  29   2.0000      -0.794833       -21.6285
  30   2.0000      -0.792099       -21.5541
  31   2.0000      -0.790286       -21.5048
  32   2.0000      -0.699561       -19.0360
  33   2.0000      -0.616152       -16.7663
  34   2.0000      -0.614162       -16.7122
  35   2.0000      -0.611040       -16.6272
  36   2.0000      -0.610057       -16.6005
  37   2.0000      -0.598169       -16.2770
  38   2.0000      -0.592641       -16.1266
  39   2.0000      -0.556991       -15.1565
  40   2.0000      -0.555413       -15.1135
  41   2.0000      -0.555339       -15.1115
  42   2.0000      -0.554236       -15.0815
  43   2.0000      -0.553601       -15.0643
  44   2.0000      -0.552424       -15.0322
  45   2.0000      -0.550553       -14.9813
  46   2.0000      -0.475608       -12.9419
  47   2.0000      -0.470119       -12.7926
  48   2.0000      -0.464119       -12.6293
  49   2.0000      -0.457125       -12.4390
  50   2.0000      -0.453516       -12.3408
  51   2.0000      -0.452230       -12.3058
  52   2.0000      -0.450735       -12.2651
  53   2.0000      -0.450000       -12.2451
  54   2.0000      -0.435336       -11.8461
  55   2.0000      -0.434089       -11.8122
  56   2.0000      -0.431774       -11.7492
  57   2.0000      -0.430981       -11.7276
  58   2.0000      -0.429740       -11.6938
  59   2.0000      -0.393544       -10.7089
  60   2.0000      -0.390984       -10.6392
  61   2.0000      -0.292618        -7.9625
  62   2.0000      -0.288317        -7.8455
  63   2.0000      -0.280294        -7.6272
  64   2.0000      -0.266526        -7.2525
  65   2.0000      -0.258361        -7.0304
  66   0.0000      -0.020442        -0.5563
  67   0.0000       0.007336         0.1996
  68   0.0000       0.043328         1.1790
  69   0.0000       0.051846         1.4108
  70   0.0000       0.054592         1.4855

MULLIKEN ATOMIC CHARGES
-----------------------
   0 Lu:    0.846367
   1 C :   -0.258436
   2 C :   -0.330635
   3 C :   -0.259214
   4 C :   -0.295617
   5 C :   -0.293964
   6 H :    0.235931
   7 H :    0.241513
   8 H :    0.248537
   9 H :    0.244608
  10 H :    0.235125
  11 C :   -0.307115
  12 C :   -0.277418
  13 C :   -0.333185
  14 C :   -0.253798
  15 H :    0.234627
  16 C :   -0.251856
  17 H :    0.236249
  18 H :    0.231788
  19 H :    0.240447
  20 H :    0.247204
  21 C :   -1.072788
  22 H :    0.216375
  23 H :    0.215480
  24 H :    0.213435
  25 C :   -0.919088
  26 H :    0.238455
  27 H :    0.233262
  28 H :    0.249547
  29 H :    0.244166
Sum of atomic charges:    0.0000000

LOEWDIN ATOMIC CHARGES
----------------------
   0 Lu:    0.008391
   1 C :   -0.127635
   2 C :   -0.150955
   3 C :   -0.129527
   4 C :   -0.147127
   5 C :   -0.142100
   6 H :    0.153009
   7 H :    0.155360
   8 H :    0.160725
   9 H :    0.157352
  10 H :    0.152664
  11 C :   -0.151694
  12 C :   -0.137665
  13 C :   -0.154819
  14 C :   -0.128409
  15 H :    0.152088
  16 C :   -0.125496
  17 H :    0.153771
  18 H :    0.151242
  19 H :    0.155572
  20 H :    0.159656
  21 C :   -0.649045
  22 H :    0.131425
  23 H :    0.138929
  24 H :    0.136091
  25 C :   -0.497888
  26 H :    0.153352
  27 H :    0.140273
  28 H :    0.141478
  29 H :    0.140983

  Mayer bond orders larger than 0.100000
B(  0-Lu,  1-C ) :   0.2370 B(  0-Lu,  2-C ) :   0.2858 B(  0-Lu,  3-C ) :   0.2532
B(  0-Lu,  4-C ) :   0.2603 B(  0-Lu,  5-C ) :   0.2644 B(  0-Lu, 11-C ) :   0.2655
B(  0-Lu, 12-C ) :   0.2520 B(  0-Lu, 13-C ) :   0.2870 B(  0-Lu, 14-C ) :   0.2535
B(  0-Lu, 16-C ) :   0.2380 B(  0-Lu, 21-C ) :   0.8190 B(  1-C ,  2-C ) :   1.2787
B(  1-C ,  5-C ) :   1.3078 B(  1-C ,  8-H ) :   0.9125 B(  2-C ,  3-C ) :   1.2840
B(  2-C ,  9-H ) :   0.9131 B(  3-C ,  4-C ) :   1.3020 B(  3-C , 10-H ) :   0.9169
B(  4-C ,  5-C ) :   1.2749 B(  4-C ,  6-H ) :   0.9171 B(  5-C ,  7-H ) :   0.9151
B( 11-C , 12-C ) :   1.2720 B( 11-C , 14-C ) :   1.3039 B( 11-C , 15-H ) :   0.9179
B( 12-C , 16-C ) :   1.3215 B( 12-C , 17-H ) :   0.9160 B( 13-C , 14-C ) :   1.2824
B( 13-C , 16-C ) :   1.2754 B( 13-C , 19-H ) :   0.9156 B( 14-C , 18-H ) :   0.9190
B( 16-C , 20-H ) :   0.9123 B( 21-C , 22-H ) :   0.9102 B( 21-C , 23-H ) :   0.9036
B( 21-C , 24-H ) :   0.9000 B( 25-C , 26-H ) :   0.8895 B( 25-C , 27-H ) :   0.9091
B( 25-C , 28-H ) :   0.9176 B( 25-C , 29-H ) :   0.9165

Dispersion correction           -0.017590995
FINAL SINGLE POINT ENERGY     -1702.392779759725
Dispersion correction            ... done

DIPOLE MOMENT
-------------
                                X             Y             Z
Electronic contribution:     -2.75998     -18.53308      15.10570
Nuclear contribution   :      3.10150      19.01922     -15.39665
                        -----------------------------------------
Total Dipole Moment    :      0.34151       0.48614      -0.29094
                        -----------------------------------------
Magnitude (a.u.)       :      0.66152
Magnitude (Debye)      :      1.68145

Rotational constants in cm-1:     0.028092     0.019662     0.017719
Rotational constants in MHz :   842.170803   589.463366   531.191647

                             ****ORCA TERMINATED NORMALLY****
TOTAL RUN TIME: 0 days 0 hours 9 minutes 42 seconds 340 msec
