                         Program Version 5.0.3 -  RELEASE  -
|  1> ! EnGrad PBEh-3c
|  2> %output
|  3> xyzfile=True
|  4> end
|  5> %scf
|  6> maxiter 250
|  7> end
|  8> %output
|  9> Print[P_Hirshfeld] = 1
| 10> end
| 11> % maxcore
| 12> 4000
| 13> *xyz 0 1
| 14> Lu   0.08737804  -0.41679053   0.31685472
| 15> C    0.56804824   0.41548108   2.70114099
| 16> C    1.73602141  -0.25983759   2.28879460
| 17> C    2.33937736   0.49285172   1.26014913
| 18> C    1.52873076   1.61840277   1.01565711
| 19> C    0.44159030   1.57569645   1.91388262
| 20> H    1.72615431   2.40222720   0.29488692
| 21> H   -0.30669136   2.33945987   2.03907592
| 22> H   -0.09231438   0.12004083   3.49873149
| 23> H    2.11902352  -1.17869453   2.71313723
| 24> H    3.26584594   0.25959139   0.76364019
| 25> C    0.59811988  -0.16497055  -2.22008892
| 26> C   -0.54823034  -0.98575581  -2.13377445
| 27> C    1.20786619  -2.14447330  -1.26725204
| 28> C    1.69127911  -0.88984654  -1.69827361
| 29> H    0.64057496   0.81591597  -2.66738447
| 30> C   -0.17152225  -2.20646196  -1.54821034
| 31> H   -1.52880143  -0.74918489  -2.51820535
| 32> H    2.71289777  -0.55798307  -1.66121145
| 33> H    1.80395788  -2.94059990  -0.83718177
| 34> H   -0.82022548  -3.04625497  -1.37676421
| 35> C   -1.97693797  -1.26536189   1.09156848
| 36> H   -2.37954405  -0.88012176   2.05114215
| 37> H   -2.02548320  -2.36295667   1.18784181
| 38> H   -2.76159539  -1.04933513   0.33790525
| 39> C   -1.97748750   2.12987123  -1.03088636
| 40> H   -2.16477382   1.38795818  -0.33646667
| 41> H   -0.91049493   2.61191969  -1.19675615
| 42> H   -2.57375018   3.08045009  -0.86811755
| 43> H   -2.23148568   1.84876719  -2.09500669
| 44> *
| 45>
| 46>                          ****END OF INPUT****

CARTESIAN COORDINATES (ANGSTROEM)
---------------------------------
  Lu     0.087378   -0.416791    0.316855
  C      0.568048    0.415481    2.701141
  C      1.736021   -0.259838    2.288795
  C      2.339377    0.492852    1.260149
  C      1.528731    1.618403    1.015657
  C      0.441590    1.575696    1.913883
  H      1.726154    2.402227    0.294887
  H     -0.306691    2.339460    2.039076
  H     -0.092314    0.120041    3.498731
  H      2.119024   -1.178695    2.713137
  H      3.265846    0.259591    0.763640
  C      0.598120   -0.164971   -2.220089
  C     -0.548230   -0.985756   -2.133774
  C      1.207866   -2.144473   -1.267252
  C      1.691279   -0.889847   -1.698274
  H      0.640575    0.815916   -2.667384
  C     -0.171522   -2.206462   -1.548210
  H     -1.528801   -0.749185   -2.518205
  H      2.712898   -0.557983   -1.661211
  H      1.803958   -2.940600   -0.837182
  H     -0.820225   -3.046255   -1.376764
  C     -1.976938   -1.265362    1.091568
  H     -2.379544   -0.880122    2.051142
  H     -2.025483   -2.362957    1.187842
  H     -2.761595   -1.049335    0.337905
  C     -1.977487    2.129871   -1.030886
  H     -2.164774    1.387958   -0.336467
  H     -0.910495    2.611920   -1.196756
  H     -2.573750    3.080450   -0.868118
  H     -2.231486    1.848767   -2.095007

 Total Charge           Charge          ....    0
 Multiplicity           Mult            ....    1
 Number of Electrons    NEL             ....  132
 Basis Dimension        Dim             ....  295

ORBITAL ENERGIES
----------------

  NO   OCC          E(Eh)            E(eV)
   0   2.0000     -19.246308      -523.7187
   1   2.0000     -12.618895      -343.3776
   2   2.0000     -12.616238      -343.3053
   3   2.0000     -12.615725      -343.2913
   4   2.0000     -10.450426      -284.3705
   5   2.0000     -10.447671      -284.2956
   6   2.0000     -10.446474      -284.2630
   7   2.0000     -10.446149      -284.2542
   8   2.0000     -10.445938      -284.2484
   9   2.0000     -10.444840      -284.2185
  10   2.0000     -10.444474      -284.2086
  11   2.0000     -10.444143      -284.1996
  12   2.0000     -10.443478      -284.1815
  13   2.0000     -10.442326      -284.1501
  14   2.0000     -10.441289      -284.1219
  15   2.0000     -10.363428      -282.0032
  16   2.0000      -5.887884      -160.2175
  17   2.0000      -5.887537      -160.2080
  18   2.0000      -5.886975      -160.1927
  19   2.0000      -5.885394      -160.1497
  20   2.0000      -5.885276      -160.1465
  21   2.0000      -2.430234       -66.1300
  22   2.0000      -1.269830       -34.5538
  23   2.0000      -1.269179       -34.5361
  24   2.0000      -1.257532       -34.2192
  25   2.0000      -0.980909       -26.6919
  26   2.0000      -0.970777       -26.4162
  27   2.0000      -0.795910       -21.6578
  28   2.0000      -0.794785       -21.6272
  29   2.0000      -0.793733       -21.5986
  30   2.0000      -0.791504       -21.5379
  31   2.0000      -0.788319       -21.4512
  32   2.0000      -0.697723       -18.9860
  33   2.0000      -0.616241       -16.7688
  34   2.0000      -0.613039       -16.6816
  35   2.0000      -0.610638       -16.6163
  36   2.0000      -0.609600       -16.5880
  37   2.0000      -0.597642       -16.2627
  38   2.0000      -0.592540       -16.1238
  39   2.0000      -0.555826       -15.1248
  40   2.0000      -0.554308       -15.0835
  41   2.0000      -0.554234       -15.0815
  42   2.0000      -0.553056       -15.0494
  43   2.0000      -0.552515       -15.0347
  44   2.0000      -0.551245       -15.0001
  45   2.0000      -0.549442       -14.9511
  46   2.0000      -0.505656       -13.7596
  47   2.0000      -0.466963       -12.7067
  48   2.0000      -0.454358       -12.3637
  49   2.0000      -0.453447       -12.3389
  50   2.0000      -0.452948       -12.3254
  51   2.0000      -0.450943       -12.2708
  52   2.0000      -0.443455       -12.0670
  53   2.0000      -0.434761       -11.8305
  54   2.0000      -0.434307       -11.8181
  55   2.0000      -0.432834       -11.7780
  56   2.0000      -0.430573       -11.7165
  57   2.0000      -0.429270       -11.6810
  58   2.0000      -0.428303       -11.6547
  59   2.0000      -0.390571       -10.6280
  60   2.0000      -0.387786       -10.5522
  61   2.0000      -0.291151        -7.9226
  62   2.0000      -0.288070        -7.8388
  63   2.0000      -0.279149        -7.5960
  64   2.0000      -0.266100        -7.2409
  65   2.0000      -0.259743        -7.0680
  66   0.0000      -0.017495        -0.4761
  67   0.0000       0.007065         0.1923
  68   0.0000       0.043515         1.1841
  69   0.0000       0.052717         1.4345
  70   0.0000       0.054125         1.4728

MULLIKEN ATOMIC CHARGES
-----------------------
   0 Lu:    0.855626
   1 C :   -0.260225
   2 C :   -0.317205
   3 C :   -0.259716
   4 C :   -0.293792
   5 C :   -0.300680
   6 H :    0.236188
   7 H :    0.242097
   8 H :    0.246929
   9 H :    0.242603
  10 H :    0.234531
  11 C :   -0.304308
  12 C :   -0.287506
  13 C :   -0.317627
  14 C :   -0.258867
  15 H :    0.232945
  16 C :   -0.252931
  17 H :    0.238235
  18 H :    0.231799
  19 H :    0.238831
  20 H :    0.244699
  21 C :   -1.071480
  22 H :    0.212484
  23 H :    0.218440
  24 H :    0.207040
  25 C :   -0.932828
  26 H :    0.273464
  27 H :    0.217373
  28 H :    0.244817
  29 H :    0.239065
Sum of atomic charges:   -0.0000000

LOEWDIN ATOMIC CHARGES
----------------------
   0 Lu:    0.004237
   1 C :   -0.125931
   2 C :   -0.148129
   3 C :   -0.128837
   4 C :   -0.145615
   5 C :   -0.142349
   6 H :    0.153406
   7 H :    0.156603
   8 H :    0.160410
   9 H :    0.156114
  10 H :    0.152462
  11 C :   -0.150528
  12 C :   -0.138845
  13 C :   -0.151231
  14 C :   -0.129694
  15 H :    0.151842
  16 C :   -0.125991
  17 H :    0.155095
  18 H :    0.151228
  19 H :    0.154201
  20 H :    0.158730
  21 C :   -0.646116
  22 H :    0.129968
  23 H :    0.138302
  24 H :    0.133951
  25 C :   -0.506638
  26 H :    0.158789
  27 H :    0.144343
  28 H :    0.140821
  29 H :    0.139403

  Mayer bond orders larger than 0.100000
B(  0-Lu,  1-C ) :   0.2390 B(  0-Lu,  2-C ) :   0.2780 B(  0-Lu,  3-C ) :   0.2525
B(  0-Lu,  4-C ) :   0.2657 B(  0-Lu,  5-C ) :   0.2714 B(  0-Lu, 11-C ) :   0.2695
B(  0-Lu, 12-C ) :   0.2585 B(  0-Lu, 13-C ) :   0.2758 B(  0-Lu, 14-C ) :   0.2531
B(  0-Lu, 16-C ) :   0.2374 B(  0-Lu, 21-C ) :   0.8110 B(  1-C ,  2-C ) :   1.2833
B(  1-C ,  5-C ) :   1.3007 B(  1-C ,  8-H ) :   0.9151 B(  2-C ,  3-C ) :   1.2879
B(  2-C ,  9-H ) :   0.9136 B(  3-C ,  4-C ) :   1.2997 B(  3-C , 10-H ) :   0.9174
B(  4-C ,  5-C ) :   1.2716 B(  4-C ,  6-H ) :   0.9159 B(  5-C ,  7-H ) :   0.9172
B( 11-C , 12-C ) :   1.2707 B( 11-C , 14-C ) :   1.2999 B( 11-C , 15-H ) :   0.9181
B( 12-C , 16-C ) :   1.3136 B( 12-C , 17-H ) :   0.9171 B( 13-C , 14-C ) :   1.2879
B( 13-C , 16-C ) :   1.2833 B( 13-C , 19-H ) :   0.9150 B( 14-C , 18-H ) :   0.9190
B( 16-C , 20-H ) :   0.9153 B( 21-C , 22-H ) :   0.9122 B( 21-C , 23-H ) :   0.9053
B( 21-C , 24-H ) :   0.8985 B( 25-C , 26-H ) :   0.8795 B( 25-C , 27-H ) :   0.9187
B( 25-C , 28-H ) :   0.9189 B( 25-C , 29-H ) :   0.9170

Dispersion correction           -0.017567296
FINAL SINGLE POINT ENERGY     -1702.377513090619
Dispersion correction            ... done

DIPOLE MOMENT
-------------
                                X             Y             Z
Electronic contribution:     -2.29081     -18.00258      14.89834
Nuclear contribution   :      2.64630      18.54331     -15.24286
                        -----------------------------------------
Total Dipole Moment    :      0.35550       0.54072      -0.34452
                        -----------------------------------------
Magnitude (a.u.)       :      0.73311
Magnitude (Debye)      :      1.86343

Rotational constants in cm-1:     0.028346     0.019793     0.017728
Rotational constants in MHz :   849.795239   593.373465   531.462979

                             ****ORCA TERMINATED NORMALLY****
TOTAL RUN TIME: 0 days 0 hours 9 minutes 25 seconds 770 msec
