                         Program Version 5.0.3 -  RELEASE  -
|  1> ! EnGrad PBEh-3c
|  2> %output
|  3> xyzfile=True
|  4> end
|  5> %scf
|  6> maxiter 250
|  7> end
|  8> %output
|  9> Print[P_Hirshfeld] = 1
| 10> end
| 11> % maxcore
| 12> 4000
| 13> *xyz 0 1
| 14> Lu   0.06363787  -0.41653854   0.32043806
| 15> C    0.56516910   0.43427920   2.69898688
| 16> C    1.72426608  -0.25870117   2.28757744
| 17> C    2.33541829   0.48572523   1.25901384
| 18> C    1.54489595   1.62284955   1.01504655
| 19> C    0.45187765   1.59047272   1.90857915
| 20> H    1.74727911   2.39951811   0.29162846
| 21> H   -0.29374781   2.36245382   2.02658824
| 22> H   -0.10301660   0.13997602   3.49182073
| 23> H    2.09939097  -1.17751228   2.71457775
| 24> H    3.26745995   0.24505447   0.76726758
| 25> C    0.61141825  -0.16504718  -2.22852861
| 26> C   -0.54212126  -0.97717167  -2.14563196
| 27> C    1.20386155  -2.14090859  -1.26263793
| 28> C    1.69005120  -0.88962237  -1.69438974
| 29> H    0.66000891   0.81934558  -2.67491326
| 30> C   -0.17532948  -2.19727999  -1.55605601
| 31> H   -1.52059797  -0.73396231  -2.53303955
| 32> H    2.72133216  -0.56235001  -1.65547101
| 33> H    1.79295333  -2.93774796  -0.83240083
| 34> H   -0.83000754  -3.03526455  -1.38243983
| 35> C   -1.96767421  -1.27474508   1.09291706
| 36> H   -2.37348931  -0.89895847   2.05109851
| 37> H   -2.01301122  -2.37385575   1.19194054
| 38> H   -2.76489086  -1.06950055   0.34909964
| 39> C   -1.98167556   2.14123404  -1.03882045
| 40> H   -2.16027010   1.42611091  -0.35879774
| 41> H   -0.94540794   2.56356649  -1.16690084
| 42> H   -2.56966914   3.04200610  -0.84542290
| 43> H   -2.24279396   1.83570252  -2.05242363
| 44> *
| 45>
| 46>                          ****END OF INPUT****

CARTESIAN COORDINATES (ANGSTROEM)
---------------------------------
  Lu     0.063638   -0.416539    0.320438
  C      0.565169    0.434279    2.698987
  C      1.724266   -0.258701    2.287577
  C      2.335418    0.485725    1.259014
  C      1.544896    1.622850    1.015047
  C      0.451878    1.590473    1.908579
  H      1.747279    2.399518    0.291628
  H     -0.293748    2.362454    2.026588
  H     -0.103017    0.139976    3.491821
  H      2.099391   -1.177512    2.714578
  H      3.267460    0.245054    0.767268
  C      0.611418   -0.165047   -2.228529
  C     -0.542121   -0.977172   -2.145632
  C      1.203862   -2.140909   -1.262638
  C      1.690051   -0.889622   -1.694390
  H      0.660009    0.819346   -2.674913
  C     -0.175329   -2.197280   -1.556056
  H     -1.520598   -0.733962   -2.533040
  H      2.721332   -0.562350   -1.655471
  H      1.792953   -2.937748   -0.832401
  H     -0.830008   -3.035265   -1.382440
  C     -1.967674   -1.274745    1.092917
  H     -2.373489   -0.898958    2.051099
  H     -2.013011   -2.373856    1.191941
  H     -2.764891   -1.069501    0.349100
  C     -1.981676    2.141234   -1.038820
  H     -2.160270    1.426111   -0.358798
  H     -0.945408    2.563566   -1.166901
  H     -2.569669    3.042006   -0.845423
  H     -2.242794    1.835703   -2.052424

 Total Charge           Charge          ....    0
 Multiplicity           Mult            ....    1
 Number of Electrons    NEL             ....  132
 Basis Dimension        Dim             ....  295

ORBITAL ENERGIES
----------------

  NO   OCC          E(Eh)            E(eV)
   0   2.0000     -19.247206      -523.7431
   1   2.0000     -12.619778      -343.4016
   2   2.0000     -12.617163      -343.3305
   3   2.0000     -12.616623      -343.3158
   4   2.0000     -10.447075      -284.2794
   5   2.0000     -10.445897      -284.2473
   6   2.0000     -10.445732      -284.2428
   7   2.0000     -10.445026      -284.2236
   8   2.0000     -10.444708      -284.2149
   9   2.0000     -10.444150      -284.1998
  10   2.0000     -10.443178      -284.1733
  11   2.0000     -10.443007      -284.1687
  12   2.0000     -10.441984      -284.1408
  13   2.0000     -10.441075      -284.1161
  14   2.0000     -10.433071      -283.8983
  15   2.0000     -10.363794      -282.0132
  16   2.0000      -5.888786      -160.2420
  17   2.0000      -5.888446      -160.2328
  18   2.0000      -5.887870      -160.2171
  19   2.0000      -5.886320      -160.1749
  20   2.0000      -5.886193      -160.1715
  21   2.0000      -2.431116       -66.1540
  22   2.0000      -1.270132       -34.5620
  23   2.0000      -1.269952       -34.5571
  24   2.0000      -1.258527       -34.2463
  25   2.0000      -0.980757       -26.6878
  26   2.0000      -0.971230       -26.4285
  27   2.0000      -0.804331       -21.8870
  28   2.0000      -0.795234       -21.6394
  29   2.0000      -0.794083       -21.6081
  30   2.0000      -0.791340       -21.5335
  31   2.0000      -0.790724       -21.5167
  32   2.0000      -0.700382       -19.0584
  33   2.0000      -0.615114       -16.7381
  34   2.0000      -0.612548       -16.6683
  35   2.0000      -0.609667       -16.5899
  36   2.0000      -0.609256       -16.5787
  37   2.0000      -0.597093       -16.2477
  38   2.0000      -0.591774       -16.1030
  39   2.0000      -0.556702       -15.1486
  40   2.0000      -0.555224       -15.1084
  41   2.0000      -0.555150       -15.1064
  42   2.0000      -0.553998       -15.0751
  43   2.0000      -0.553394       -15.0586
  44   2.0000      -0.552185       -15.0257
  45   2.0000      -0.550363       -14.9761
  46   2.0000      -0.506064       -13.7707
  47   2.0000      -0.467241       -12.7143
  48   2.0000      -0.460192       -12.5225
  49   2.0000      -0.453958       -12.3528
  50   2.0000      -0.453108       -12.3297
  51   2.0000      -0.450751       -12.2656
  52   2.0000      -0.447374       -12.1737
  53   2.0000      -0.444389       -12.0924
  54   2.0000      -0.434062       -11.8114
  55   2.0000      -0.433084       -11.7848
  56   2.0000      -0.431258       -11.7351
  57   2.0000      -0.430253       -11.7078
  58   2.0000      -0.428279       -11.6541
  59   2.0000      -0.392117       -10.6701
  60   2.0000      -0.388949       -10.5838
  61   2.0000      -0.291855        -7.9418
  62   2.0000      -0.286693        -7.8013
  63   2.0000      -0.278660        -7.5827
  64   2.0000      -0.265262        -7.2181
  65   2.0000      -0.263422        -7.1681
  66   0.0000      -0.017605        -0.4791
  67   0.0000       0.008599         0.2340
  68   0.0000       0.044612         1.2140
  69   0.0000       0.052353         1.4246
  70   0.0000       0.055334         1.5057

MULLIKEN ATOMIC CHARGES
-----------------------
   0 Lu:    0.870195
   1 C :   -0.258289
   2 C :   -0.320318
   3 C :   -0.263490
   4 C :   -0.283904
   5 C :   -0.309703
   6 H :    0.235652
   7 H :    0.241119
   8 H :    0.247290
   9 H :    0.242515
  10 H :    0.233196
  11 C :   -0.297720
  12 C :   -0.294022
  13 C :   -0.319082
  14 C :   -0.259109
  15 H :    0.232644
  16 C :   -0.253932
  17 H :    0.237575
  18 H :    0.230371
  19 H :    0.238682
  20 H :    0.244771
  21 C :   -1.083191
  22 H :    0.216222
  23 H :    0.220634
  24 H :    0.210754
  25 C :   -0.952553
  26 H :    0.272860
  27 H :    0.225823
  28 H :    0.250608
  29 H :    0.244401
Sum of atomic charges:    0.0000000

LOEWDIN ATOMIC CHARGES
----------------------
   0 Lu:    0.019305
   1 C :   -0.127966
   2 C :   -0.149930
   3 C :   -0.129500
   4 C :   -0.145951
   5 C :   -0.145464
   6 H :    0.152628
   7 H :    0.155965
   8 H :    0.160256
   9 H :    0.156033
  10 H :    0.151977
  11 C :   -0.150990
  12 C :   -0.142142
  13 C :   -0.152974
  14 C :   -0.129606
  15 H :    0.151432
  16 C :   -0.126982
  17 H :    0.154655
  18 H :    0.150876
  19 H :    0.154101
  20 H :    0.158688
  21 C :   -0.645106
  22 H :    0.131925
  23 H :    0.140164
  24 H :    0.136552
  25 C :   -0.506671
  26 H :    0.152283
  27 H :    0.144402
  28 H :    0.141628
  29 H :    0.140414

  Mayer bond orders larger than 0.100000
B(  0-Lu,  1-C ) :   0.2379 B(  0-Lu,  2-C ) :   0.2789 B(  0-Lu,  3-C ) :   0.2479
B(  0-Lu,  4-C ) :   0.2593 B(  0-Lu,  5-C ) :   0.2711 B(  0-Lu, 11-C ) :   0.2646
B(  0-Lu, 12-C ) :   0.2593 B(  0-Lu, 13-C ) :   0.2766 B(  0-Lu, 14-C ) :   0.2474
B(  0-Lu, 16-C ) :   0.2376 B(  0-Lu, 21-C ) :   0.8115 B(  1-C ,  2-C ) :   1.2823
B(  1-C ,  5-C ) :   1.3022 B(  1-C ,  8-H ) :   0.9139 B(  2-C ,  3-C ) :   1.2886
B(  2-C ,  9-H ) :   0.9139 B(  3-C ,  4-C ) :   1.3060 B(  3-C , 10-H ) :   0.9183
B(  4-C ,  5-C ) :   1.2720 B(  4-C ,  6-H ) :   0.9157 B(  5-C ,  7-H ) :   0.9170
B( 11-C , 12-C ) :   1.2691 B( 11-C , 14-C ) :   1.3069 B( 11-C , 15-H ) :   0.9177
B( 12-C , 16-C ) :   1.3148 B( 12-C , 17-H ) :   0.9169 B( 13-C , 14-C ) :   1.2888
B( 13-C , 16-C ) :   1.2819 B( 13-C , 19-H ) :   0.9156 B( 14-C , 18-H ) :   0.9195
B( 16-C , 20-H ) :   0.9146 B( 21-C , 22-H ) :   0.9102 B( 21-C , 23-H ) :   0.9039
B( 21-C , 24-H ) :   0.8968 B( 25-C , 26-H ) :   0.8809 B( 25-C , 27-H ) :   0.9184
B( 25-C , 28-H ) :   0.9199 B( 25-C , 29-H ) :   0.9183

Dispersion correction           -0.017561173
FINAL SINGLE POINT ENERGY     -1702.383775172384
Dispersion correction            ... done

DIPOLE MOMENT
-------------
                                X             Y             Z
Electronic contribution:     -3.55863     -18.07474      15.12317
Nuclear contribution   :      3.85332      18.60114     -15.44533
                        -----------------------------------------
Total Dipole Moment    :      0.29469       0.52639      -0.32216
                        -----------------------------------------
Magnitude (a.u.)       :      0.68390
Magnitude (Debye)      :      1.73834

Rotational constants in cm-1:     0.028265     0.019730     0.017717
Rotational constants in MHz :   847.373713   591.505420   531.152561

                             ****ORCA TERMINATED NORMALLY****
TOTAL RUN TIME: 0 days 0 hours 9 minutes 37 seconds 405 msec
