                         Program Version 5.0.3 -  RELEASE  -
|  1> ! EnGrad PBEh-3c
|  2> %output
|  3> xyzfile=True
|  4> end
|  5> %scf
|  6> maxiter 250
|  7> end
|  8> %output
|  9> Print[P_Hirshfeld] = 1
| 10> end
| 11> % maxcore
| 12> 4000
| 13> *xyz 0 1
| 14> Lu   0.06652180  -0.41846637   0.32088649
| 15> C    0.56566441   0.43478969   2.69955213
| 16> C    1.72410754  -0.25960181   2.28746231
| 17> C    2.33378476   0.48588032   1.25900474
| 18> C    1.54551417   1.62328825   1.01414538
| 19> C    0.45279074   1.59036643   1.90941179
| 20> H    1.74802483   2.39899574   0.29213991
| 21> H   -0.29567180   2.36305761   2.02528354
| 22> H   -0.10415548   0.13953576   3.49198990
| 23> H    2.09920545  -1.17723945   2.71485370
| 24> H    3.26718445   0.24403130   0.76655620
| 25> C    0.61165763  -0.16537149  -2.22813849
| 26> C   -0.54200185  -0.97685417  -2.14697029
| 27> C    1.20530962  -2.14062605  -1.26088470
| 28> C    1.68781707  -0.88981815  -1.69359244
| 29> H    0.66066045   0.81956170  -2.67478690
| 30> C   -0.17524778  -2.19608138  -1.55682019
| 31> H   -1.52101075  -0.73301994  -2.53199054
| 32> H    2.72150382  -0.56180750  -1.65455025
| 33> H    1.79257804  -2.93729136  -0.83259131
| 34> H   -0.83145942  -3.03615750  -1.38119312
| 35> C   -1.97563314  -1.27425350   1.09537534
| 36> H   -2.36963335  -0.90027841   2.04561294
| 37> H   -2.00992245  -2.37136239   1.19140341
| 38> H   -2.76178292  -1.06976183   0.35214615
| 39> C   -1.95670906   2.21758152  -1.10683501
| 40> H   -2.16570238   1.38713645  -0.32039539
| 41> H   -0.96566466   2.54310152  -1.15300315
| 42> H   -2.56838320   3.02791600  -0.84055076
| 43> H   -2.24426898   1.83101339  -2.03958673
| 44> *
| 45>
| 46>                          ****END OF INPUT****

CARTESIAN COORDINATES (ANGSTROEM)
---------------------------------
  Lu     0.066522   -0.418466    0.320886
  C      0.565664    0.434790    2.699552
  C      1.724108   -0.259602    2.287462
  C      2.333785    0.485880    1.259005
  C      1.545514    1.623288    1.014145
  C      0.452791    1.590366    1.909412
  H      1.748025    2.398996    0.292140
  H     -0.295672    2.363058    2.025284
  H     -0.104155    0.139536    3.491990
  H      2.099205   -1.177239    2.714854
  H      3.267184    0.244031    0.766556
  C      0.611658   -0.165371   -2.228138
  C     -0.542002   -0.976854   -2.146970
  C      1.205310   -2.140626   -1.260885
  C      1.687817   -0.889818   -1.693592
  H      0.660660    0.819562   -2.674787
  C     -0.175248   -2.196081   -1.556820
  H     -1.521011   -0.733020   -2.531991
  H      2.721504   -0.561808   -1.654550
  H      1.792578   -2.937291   -0.832591
  H     -0.831459   -3.036157   -1.381193
  C     -1.975633   -1.274253    1.095375
  H     -2.369633   -0.900278    2.045613
  H     -2.009922   -2.371362    1.191403
  H     -2.761783   -1.069762    0.352146
  C     -1.956709    2.217582   -1.106835
  H     -2.165702    1.387136   -0.320395
  H     -0.965665    2.543102   -1.153003
  H     -2.568383    3.027916   -0.840551
  H     -2.244269    1.831013   -2.039587

 Total Charge           Charge          ....    0
 Multiplicity           Mult            ....    1
 Number of Electrons    NEL             ....  132
 Basis Dimension        Dim             ....  295

ORBITAL ENERGIES
----------------

  NO   OCC          E(Eh)            E(eV)
   0   2.0000     -19.247073      -523.7395
   1   2.0000     -12.619633      -343.3977
   2   2.0000     -12.617039      -343.3271
   3   2.0000     -12.616496      -343.3123
   4   2.0000     -10.447342      -284.2866
   5   2.0000     -10.446091      -284.2526
   6   2.0000     -10.446011      -284.2504
   7   2.0000     -10.445203      -284.2284
   8   2.0000     -10.445048      -284.2242
   9   2.0000     -10.444358      -284.2054
  10   2.0000     -10.443272      -284.1759
  11   2.0000     -10.443213      -284.1743
  12   2.0000     -10.442396      -284.1520
  13   2.0000     -10.441561      -284.1293
  14   2.0000     -10.432269      -283.8765
  15   2.0000     -10.360988      -281.9368
  16   2.0000      -5.888643      -160.2381
  17   2.0000      -5.888311      -160.2291
  18   2.0000      -5.887734      -160.2134
  19   2.0000      -5.886197      -160.1716
  20   2.0000      -5.886073      -160.1682
  21   2.0000      -2.430963       -66.1499
  22   2.0000      -1.270065       -34.5602
  23   2.0000      -1.269733       -34.5512
  24   2.0000      -1.258279       -34.2395
  25   2.0000      -0.981167       -26.6989
  26   2.0000      -0.971674       -26.4406
  27   2.0000      -0.804457       -21.8904
  28   2.0000      -0.795364       -21.6430
  29   2.0000      -0.794385       -21.6163
  30   2.0000      -0.791517       -21.5383
  31   2.0000      -0.791230       -21.5305
  32   2.0000      -0.701340       -19.0844
  33   2.0000      -0.615240       -16.7415
  34   2.0000      -0.612660       -16.6713
  35   2.0000      -0.609962       -16.5979
  36   2.0000      -0.609429       -16.5834
  37   2.0000      -0.597295       -16.2532
  38   2.0000      -0.591836       -16.1047
  39   2.0000      -0.556560       -15.1448
  40   2.0000      -0.555079       -15.1045
  41   2.0000      -0.554997       -15.1022
  42   2.0000      -0.553869       -15.0715
  43   2.0000      -0.553257       -15.0549
  44   2.0000      -0.552073       -15.0227
  45   2.0000      -0.550236       -14.9727
  46   2.0000      -0.482499       -13.1295
  47   2.0000      -0.477979       -13.0065
  48   2.0000      -0.467696       -12.7266
  49   2.0000      -0.456606       -12.4249
  50   2.0000      -0.453106       -12.3297
  51   2.0000      -0.450919       -12.2701
  52   2.0000      -0.449306       -12.2262
  53   2.0000      -0.448944       -12.2164
  54   2.0000      -0.434276       -11.8172
  55   2.0000      -0.433370       -11.7926
  56   2.0000      -0.431575       -11.7437
  57   2.0000      -0.430677       -11.7193
  58   2.0000      -0.428470       -11.6593
  59   2.0000      -0.394198       -10.7267
  60   2.0000      -0.388747       -10.5783
  61   2.0000      -0.292000        -7.9457
  62   2.0000      -0.286920        -7.8075
  63   2.0000      -0.279016        -7.5924
  64   2.0000      -0.265613        -7.2277
  65   2.0000      -0.261250        -7.1090
  66   0.0000      -0.018001        -0.4898
  67   0.0000       0.008099         0.2204
  68   0.0000       0.044777         1.2184
  69   0.0000       0.051873         1.4115
  70   0.0000       0.055594         1.5128

MULLIKEN ATOMIC CHARGES
-----------------------
   0 Lu:    0.860677
   1 C :   -0.257741
   2 C :   -0.321418
   3 C :   -0.263554
   4 C :   -0.285154
   5 C :   -0.308280
   6 H :    0.235867
   7 H :    0.240888
   8 H :    0.247471
   9 H :    0.242771
  10 H :    0.233224
  11 C :   -0.299411
  12 C :   -0.291347
  13 C :   -0.319981
  14 C :   -0.258371
  15 H :    0.233151
  16 C :   -0.255285
  17 H :    0.237039
  18 H :    0.230387
  19 H :    0.239117
  20 H :    0.244895
  21 C :   -1.081142
  22 H :    0.218730
  23 H :    0.219163
  24 H :    0.212199
  25 C :   -0.936350
  26 H :    0.227309
  27 H :    0.243842
  28 H :    0.258128
  29 H :    0.253178
Sum of atomic charges:   -0.0000000

LOEWDIN ATOMIC CHARGES
----------------------
   0 Lu:    0.013030
   1 C :   -0.127717
   2 C :   -0.150313
   3 C :   -0.129132
   4 C :   -0.146797
   5 C :   -0.144711
   6 H :    0.152659
   7 H :    0.155887
   8 H :    0.160383
   9 H :    0.156211
  10 H :    0.152009
  11 C :   -0.151854
  12 C :   -0.141355
  13 C :   -0.153513
  14 C :   -0.128943
  15 H :    0.151607
  16 C :   -0.126745
  17 H :    0.154423
  18 H :    0.150963
  19 H :    0.154382
  20 H :    0.158796
  21 C :   -0.647755
  22 H :    0.132110
  23 H :    0.139577
  24 H :    0.136500
  25 C :   -0.499385
  26 H :    0.159133
  27 H :    0.140724
  28 H :    0.140275
  29 H :    0.139551

  Mayer bond orders larger than 0.100000
B(  0-Lu,  1-C ) :   0.2373 B(  0-Lu,  2-C ) :   0.2797 B(  0-Lu,  3-C ) :   0.2486
B(  0-Lu,  4-C ) :   0.2598 B(  0-Lu,  5-C ) :   0.2702 B(  0-Lu, 11-C ) :   0.2649
B(  0-Lu, 12-C ) :   0.2577 B(  0-Lu, 13-C ) :   0.2774 B(  0-Lu, 14-C ) :   0.2478
B(  0-Lu, 16-C ) :   0.2377 B(  0-Lu, 21-C ) :   0.8153 B(  1-C ,  2-C ) :   1.2813
B(  1-C ,  5-C ) :   1.3044 B(  1-C ,  8-H ) :   0.9137 B(  2-C ,  3-C ) :   1.2884
B(  2-C ,  9-H ) :   0.9140 B(  3-C ,  4-C ) :   1.3057 B(  3-C , 10-H ) :   0.9182
B(  4-C ,  5-C ) :   1.2713 B(  4-C ,  6-H ) :   0.9158 B(  5-C ,  7-H ) :   0.9168
B( 11-C , 12-C ) :   1.2685 B( 11-C , 14-C ) :   1.3067 B( 11-C , 15-H ) :   0.9175
B( 12-C , 16-C ) :   1.3174 B( 12-C , 17-H ) :   0.9172 B( 13-C , 14-C ) :   1.2889
B( 13-C , 16-C ) :   1.2803 B( 13-C , 19-H ) :   0.9157 B( 14-C , 18-H ) :   0.9194
B( 16-C , 20-H ) :   0.9143 B( 21-C , 22-H ) :   0.9098 B( 21-C , 23-H ) :   0.9045
B( 21-C , 24-H ) :   0.8972 B( 25-C , 26-H ) :   0.9002 B( 25-C , 27-H ) :   0.9088
B( 25-C , 28-H ) :   0.9148 B( 25-C , 29-H ) :   0.9129

Dispersion correction           -0.017546445
FINAL SINGLE POINT ENERGY     -1702.387622676566
Dispersion correction            ... done

DIPOLE MOMENT
-------------
                                X             Y             Z
Electronic contribution:     -3.43144     -18.27970      15.22876
Nuclear contribution   :      3.73148      18.79651     -15.54438
                        -----------------------------------------
Total Dipole Moment    :      0.30004       0.51680      -0.31562
                        -----------------------------------------
Magnitude (a.u.)       :      0.67582
Magnitude (Debye)      :      1.71779

Rotational constants in cm-1:     0.028037     0.019647     0.017689
Rotational constants in MHz :   840.533298   588.995856   530.297885

                             ****ORCA TERMINATED NORMALLY****
TOTAL RUN TIME: 0 days 0 hours 8 minutes 24 seconds 693 msec
