                         Program Version 5.0.3 -  RELEASE  -
|  1> ! EnGrad PBEh-3c
|  2> %output
|  3> xyzfile=True
|  4> end
|  5> %scf
|  6> maxiter 250
|  7> end
|  8> %output
|  9> Print[P_Hirshfeld] = 1
| 10> end
| 11> % maxcore
| 12> 4000
| 13> *xyz 0 1
| 14> Lu   0.06338445  -0.41868293   0.32157115
| 15> C    0.56490127   0.43794442   2.69998708
| 16> C    1.72078785  -0.25897921   2.28709140
| 17> C    2.33459381   0.48372805   1.25784282
| 18> C    1.54790785   1.62352121   1.01433055
| 19> C    0.45451666   1.59538711   1.90809734
| 20> H    1.75340464   2.39884819   0.29104976
| 21> H   -0.29276600   2.36755172   2.02185945
| 22> H   -0.10679214   0.14406153   3.49025420
| 23> H    2.09495360  -1.17737112   2.71556002
| 24> H    3.26612825   0.24050487   0.76759403
| 25> C    0.61299423  -0.16345737  -2.23043084
| 26> C   -0.54089413  -0.97475526  -2.15013723
| 27> C    1.20263475  -2.13920949  -1.25972591
| 28> C    1.69157784  -0.88933338  -1.69184128
| 29> H    0.66540237   0.81965180  -2.67609104
| 30> C   -0.17632360  -2.19538754  -1.55805361
| 31> H   -1.51931339  -0.72921760  -2.53485752
| 32> H    2.72110212  -0.56311488  -1.65283401
| 33> H    1.79068574  -2.93724050  -0.83110553
| 34> H   -0.83355394  -3.03306439  -1.38217955
| 35> C   -1.97503868  -1.27768380   1.09531727
| 36> H   -2.36773300  -0.90381114   2.04595928
| 37> H   -2.00562878  -2.37297584   1.19211670
| 38> H   -2.76233729  -1.07394367   0.35477878
| 39> C   -1.96490860   2.20149982  -1.09226495
| 40> H   -2.16078326   1.40248438  -0.33130850
| 41> H   -0.95822503   2.53594103  -1.14579452
| 42> H   -2.57554030   3.03048788  -0.83302777
| 43> H   -2.25068786   1.82423154  -2.04259592
| 44> *
| 45>
| 46>                          ****END OF INPUT****

CARTESIAN COORDINATES (ANGSTROEM)
---------------------------------
  Lu     0.063384   -0.418683    0.321571
  C      0.564901    0.437944    2.699987
  C      1.720788   -0.258979    2.287091
  C      2.334594    0.483728    1.257843
  C      1.547908    1.623521    1.014331
  C      0.454517    1.595387    1.908097
  H      1.753405    2.398848    0.291050
  H     -0.292766    2.367552    2.021859
  H     -0.106792    0.144062    3.490254
  H      2.094954   -1.177371    2.715560
  H      3.266128    0.240505    0.767594
  C      0.612994   -0.163457   -2.230431
  C     -0.540894   -0.974755   -2.150137
  C      1.202635   -2.139209   -1.259726
  C      1.691578   -0.889333   -1.691841
  H      0.665402    0.819652   -2.676091
  C     -0.176324   -2.195388   -1.558054
  H     -1.519313   -0.729218   -2.534858
  H      2.721102   -0.563115   -1.652834
  H      1.790686   -2.937241   -0.831106
  H     -0.833554   -3.033064   -1.382180
  C     -1.975039   -1.277684    1.095317
  H     -2.367733   -0.903811    2.045959
  H     -2.005629   -2.372976    1.192117
  H     -2.762337   -1.073944    0.354779
  C     -1.964909    2.201500   -1.092265
  H     -2.160783    1.402484   -0.331309
  H     -0.958225    2.535941   -1.145795
  H     -2.575540    3.030488   -0.833028
  H     -2.250688    1.824232   -2.042596

 Total Charge           Charge          ....    0
 Multiplicity           Mult            ....    1
 Number of Electrons    NEL             ....  132
 Basis Dimension        Dim             ....  295

ORBITAL ENERGIES
----------------

  NO   OCC          E(Eh)            E(eV)
   0   2.0000     -19.247393      -523.7482
   1   2.0000     -12.619961      -343.4066
   2   2.0000     -12.617359      -343.3358
   3   2.0000     -12.616812      -343.3209
   4   2.0000     -10.447265      -284.2845
   5   2.0000     -10.446314      -284.2586
   6   2.0000     -10.446007      -284.2503
   7   2.0000     -10.445382      -284.2333
   8   2.0000     -10.445201      -284.2284
   9   2.0000     -10.444590      -284.2118
  10   2.0000     -10.443477      -284.1815
  11   2.0000     -10.443436      -284.1803
  12   2.0000     -10.442624      -284.1582
  13   2.0000     -10.441638      -284.1314
  14   2.0000     -10.432169      -283.8737
  15   2.0000     -10.360872      -281.9337
  16   2.0000      -5.888971      -160.2471
  17   2.0000      -5.888637      -160.2379
  18   2.0000      -5.888058      -160.2222
  19   2.0000      -5.886516      -160.1802
  20   2.0000      -5.886390      -160.1768
  21   2.0000      -2.431281       -66.1585
  22   2.0000      -1.270255       -34.5654
  23   2.0000      -1.270068       -34.5603
  24   2.0000      -1.258563       -34.2472
  25   2.0000      -0.980668       -26.6853
  26   2.0000      -0.971168       -26.4268
  27   2.0000      -0.803441       -21.8627
  28   2.0000      -0.795276       -21.6406
  29   2.0000      -0.794363       -21.6157
  30   2.0000      -0.791385       -21.5347
  31   2.0000      -0.791051       -21.5256
  32   2.0000      -0.701989       -19.1021
  33   2.0000      -0.615481       -16.7481
  34   2.0000      -0.612833       -16.6760
  35   2.0000      -0.609983       -16.5985
  36   2.0000      -0.609647       -16.5894
  37   2.0000      -0.597308       -16.2536
  38   2.0000      -0.592015       -16.1096
  39   2.0000      -0.556890       -15.1537
  40   2.0000      -0.555402       -15.1132
  41   2.0000      -0.555321       -15.1111
  42   2.0000      -0.554197       -15.0805
  43   2.0000      -0.553578       -15.0636
  44   2.0000      -0.552391       -15.0313
  45   2.0000      -0.550553       -14.9813
  46   2.0000      -0.479330       -13.0432
  47   2.0000      -0.474160       -12.9025
  48   2.0000      -0.469340       -12.7714
  49   2.0000      -0.459131       -12.4936
  50   2.0000      -0.453356       -12.3364
  51   2.0000      -0.451813       -12.2945
  52   2.0000      -0.449657       -12.2358
  53   2.0000      -0.449096       -12.2205
  54   2.0000      -0.434269       -11.8171
  55   2.0000      -0.433377       -11.7928
  56   2.0000      -0.431569       -11.7436
  57   2.0000      -0.430391       -11.7115
  58   2.0000      -0.428786       -11.6679
  59   2.0000      -0.394535       -10.7359
  60   2.0000      -0.389903       -10.6098
  61   2.0000      -0.291909        -7.9432
  62   2.0000      -0.287002        -7.8097
  63   2.0000      -0.279139        -7.5958
  64   2.0000      -0.265162        -7.2154
  65   2.0000      -0.261598        -7.1184
  66   0.0000      -0.018240        -0.4963
  67   0.0000       0.008226         0.2238
  68   0.0000       0.044664         1.2154
  69   0.0000       0.051980         1.4145
  70   0.0000       0.055679         1.5151

MULLIKEN ATOMIC CHARGES
-----------------------
   0 Lu:    0.862852
   1 C :   -0.257434
   2 C :   -0.322806
   3 C :   -0.263390
   4 C :   -0.284373
   5 C :   -0.308935
   6 H :    0.235689
   7 H :    0.241052
   8 H :    0.247671
   9 H :    0.242764
  10 H :    0.233363
  11 C :   -0.299377
  12 C :   -0.291666
  13 C :   -0.321451
  14 C :   -0.258168
  15 H :    0.233316
  16 C :   -0.254311
  17 H :    0.237089
  18 H :    0.230608
  19 H :    0.238957
  20 H :    0.245222
  21 C :   -1.082990
  22 H :    0.218935
  23 H :    0.219984
  24 H :    0.213014
  25 C :   -0.939000
  26 H :    0.238596
  27 H :    0.239360
  28 H :    0.255402
  29 H :    0.250026
Sum of atomic charges:    0.0000000

LOEWDIN ATOMIC CHARGES
----------------------
   0 Lu:    0.017379
   1 C :   -0.128094
   2 C :   -0.150233
   3 C :   -0.129709
   4 C :   -0.146220
   5 C :   -0.145320
   6 H :    0.152497
   7 H :    0.155818
   8 H :    0.160356
   9 H :    0.156186
  10 H :    0.152038
  11 C :   -0.151523
  12 C :   -0.141483
  13 C :   -0.153156
  14 C :   -0.129391
  15 H :    0.151443
  16 C :   -0.127296
  17 H :    0.154340
  18 H :    0.150879
  19 H :    0.154300
  20 H :    0.158942
  21 C :   -0.648162
  22 H :    0.132355
  23 H :    0.139938
  24 H :    0.136880
  25 C :   -0.501827
  26 H :    0.157500
  27 H :    0.141278
  28 H :    0.140540
  29 H :    0.139745

  Mayer bond orders larger than 0.100000
B(  0-Lu,  1-C ) :   0.2375 B(  0-Lu,  2-C ) :   0.2800 B(  0-Lu,  3-C ) :   0.2484
B(  0-Lu,  4-C ) :   0.2587 B(  0-Lu,  5-C ) :   0.2702 B(  0-Lu, 11-C ) :   0.2645
B(  0-Lu, 12-C ) :   0.2577 B(  0-Lu, 13-C ) :   0.2776 B(  0-Lu, 14-C ) :   0.2478
B(  0-Lu, 16-C ) :   0.2379 B(  0-Lu, 21-C ) :   0.8162 B(  1-C ,  2-C ) :   1.2822
B(  1-C ,  5-C ) :   1.3029 B(  1-C ,  8-H ) :   0.9135 B(  2-C ,  3-C ) :   1.2876
B(  2-C ,  9-H ) :   0.9140 B(  3-C ,  4-C ) :   1.3061 B(  3-C , 10-H ) :   0.9183
B(  4-C ,  5-C ) :   1.2726 B(  4-C ,  6-H ) :   0.9158 B(  5-C ,  7-H ) :   0.9167
B( 11-C , 12-C ) :   1.2702 B( 11-C , 14-C ) :   1.3060 B( 11-C , 15-H ) :   0.9175
B( 12-C , 16-C ) :   1.3157 B( 12-C , 17-H ) :   0.9170 B( 13-C , 14-C ) :   1.2889
B( 13-C , 16-C ) :   1.2805 B( 13-C , 19-H ) :   0.9157 B( 14-C , 18-H ) :   0.9196
B( 16-C , 20-H ) :   0.9141 B( 21-C , 22-H ) :   0.9097 B( 21-C , 23-H ) :   0.9042
B( 21-C , 24-H ) :   0.8970 B( 25-C , 26-H ) :   0.8953 B( 25-C , 27-H ) :   0.9110
B( 25-C , 28-H ) :   0.9166 B( 25-C , 29-H ) :   0.9150

Dispersion correction           -0.017549364
FINAL SINGLE POINT ENERGY     -1702.391977269050
Dispersion correction            ... done

DIPOLE MOMENT
-------------
                                X             Y             Z
Electronic contribution:     -3.58376     -18.28888      15.25067
Nuclear contribution   :      3.88111      18.79878     -15.55921
                        -----------------------------------------
Total Dipole Moment    :      0.29735       0.50990      -0.30855
                        -----------------------------------------
Magnitude (a.u.)       :      0.66605
Magnitude (Debye)      :      1.69295

Rotational constants in cm-1:     0.028059     0.019650     0.017691
Rotational constants in MHz :   841.200217   589.087305   530.352827

                             ****ORCA TERMINATED NORMALLY****
TOTAL RUN TIME: 0 days 0 hours 8 minutes 25 seconds 713 msec
