                         Program Version 5.0.3 -  RELEASE  -
|  1> ! EnGrad PBEh-3c
|  2> %output
|  3> xyzfile=True
|  4> end
|  5> %scf
|  6> maxiter 250
|  7> end
|  8> %output
|  9> Print[P_Hirshfeld] = 1
| 10> end
| 11> % maxcore
| 12> 4000
| 13> *xyz 0 1
| 14> Lu   0.05431441  -0.41907732   0.32329598
| 15> C    0.56099724   0.45506598   2.69885111
| 16> C    1.70755459  -0.25732165   2.28533613
| 17> C    2.33272294   0.47554814   1.25564182
| 18> C    1.55971667   1.62512360   1.01238404
| 19> C    0.46404791   1.61344052   1.90366567
| 20> H    1.77821173   2.39731163   0.28695877
| 21> H   -0.28079001   2.38952552   2.00580702
| 22> H   -0.11971275   0.16457079   3.48334447
| 23> H    2.07475200  -1.17741268   2.71874894
| 24> H    3.26307514   0.22320977   0.77080125
| 25> C    0.62354745  -0.15987298  -2.23640324
| 26> C   -0.53465663  -0.96572715  -2.16400588
| 27> C    1.19496716  -2.13352244  -1.25340258
| 28> C    1.69509125  -0.88762370  -1.68580277
| 29> H    0.68705728   0.82239452  -2.68325465
| 30> C   -0.18141406  -2.18789186  -1.56479569
| 31> H   -1.51200003  -0.71145508  -2.54805257
| 32> H    2.72430108  -0.56760267  -1.64402418
| 33> H    1.78058313  -2.93591479  -0.82460205
| 34> H   -0.84422860  -3.01988058  -1.38619749
| 35> C   -1.97374253  -1.29218445   1.09602169
| 36> H   -2.35837841  -0.91956217   2.04814005
| 37> H   -1.98484870  -2.38214770   1.19514189
| 38> H   -2.76594877  -1.09279023   0.36605542
| 39> C   -1.98617399   2.16511561  -1.05754974
| 40> H   -2.14437863   1.44543497  -0.35666573
| 41> H   -0.94137963   2.49663708  -1.11091927
| 42> H   -2.60309515   3.03476932  -0.80067225
| 43> H   -2.27847168   1.79588762  -2.04774029
| 44> *
| 45>
| 46>                          ****END OF INPUT****

CARTESIAN COORDINATES (ANGSTROEM)
---------------------------------
  Lu     0.054314   -0.419077    0.323296
  C      0.560997    0.455066    2.698851
  C      1.707555   -0.257322    2.285336
  C      2.332723    0.475548    1.255642
  C      1.559717    1.625124    1.012384
  C      0.464048    1.613441    1.903666
  H      1.778212    2.397312    0.286959
  H     -0.280790    2.389526    2.005807
  H     -0.119713    0.164571    3.483344
  H      2.074752   -1.177413    2.718749
  H      3.263075    0.223210    0.770801
  C      0.623547   -0.159873   -2.236403
  C     -0.534657   -0.965727   -2.164006
  C      1.194967   -2.133522   -1.253403
  C      1.695091   -0.887624   -1.685803
  H      0.687057    0.822395   -2.683255
  C     -0.181414   -2.187892   -1.564796
  H     -1.512000   -0.711455   -2.548053
  H      2.724301   -0.567603   -1.644024
  H      1.780583   -2.935915   -0.824602
  H     -0.844229   -3.019881   -1.386197
  C     -1.973743   -1.292184    1.096022
  H     -2.358378   -0.919562    2.048140
  H     -1.984849   -2.382148    1.195142
  H     -2.765949   -1.092790    0.366055
  C     -1.986174    2.165116   -1.057550
  H     -2.144379    1.445435   -0.356666
  H     -0.941380    2.496637   -1.110919
  H     -2.603095    3.034769   -0.800672
  H     -2.278472    1.795888   -2.047740

 Total Charge           Charge          ....    0
 Multiplicity           Mult            ....    1
 Number of Electrons    NEL             ....  132
 Basis Dimension        Dim             ....  295

ORBITAL ENERGIES
----------------

  NO   OCC          E(Eh)            E(eV)
   0   2.0000     -19.248439      -523.7767
   1   2.0000     -12.621016      -343.4353
   2   2.0000     -12.618409      -343.3644
   3   2.0000     -12.617854      -343.3493
   4   2.0000     -10.447254      -284.2842
   5   2.0000     -10.446693      -284.2690
   6   2.0000     -10.446116      -284.2533
   7   2.0000     -10.445844      -284.2459
   8   2.0000     -10.445325      -284.2317
   9   2.0000     -10.444803      -284.2175
  10   2.0000     -10.443975      -284.1950
  11   2.0000     -10.443550      -284.1834
  12   2.0000     -10.443124      -284.1718
  13   2.0000     -10.441925      -284.1392
  14   2.0000     -10.432389      -283.8797
  15   2.0000     -10.360205      -281.9155
  16   2.0000      -5.890031      -160.2759
  17   2.0000      -5.889695      -160.2668
  18   2.0000      -5.889112      -160.2509
  19   2.0000      -5.887566      -160.2088
  20   2.0000      -5.887438      -160.2053
  21   2.0000      -2.432312       -66.1866
  22   2.0000      -1.271149       -34.5897
  23   2.0000      -1.270933       -34.5838
  24   2.0000      -1.259516       -34.2732
  25   2.0000      -0.980384       -26.6776
  26   2.0000      -0.971076       -26.4243
  27   2.0000      -0.803948       -21.8765
  28   2.0000      -0.795413       -21.6443
  29   2.0000      -0.794213       -21.6116
  30   2.0000      -0.791270       -21.5316
  31   2.0000      -0.790891       -21.5213
  32   2.0000      -0.703790       -19.1511
  33   2.0000      -0.615428       -16.7466
  34   2.0000      -0.613113       -16.6837
  35   2.0000      -0.609901       -16.5962
  36   2.0000      -0.609600       -16.5881
  37   2.0000      -0.597189       -16.2503
  38   2.0000      -0.591984       -16.1087
  39   2.0000      -0.557949       -15.1826
  40   2.0000      -0.556450       -15.1418
  41   2.0000      -0.556367       -15.1395
  42   2.0000      -0.555264       -15.1095
  43   2.0000      -0.554617       -15.0919
  44   2.0000      -0.553440       -15.0599
  45   2.0000      -0.551588       -15.0095
  46   2.0000      -0.487576       -13.2676
  47   2.0000      -0.469812       -12.7842
  48   2.0000      -0.464633       -12.6433
  49   2.0000      -0.459190       -12.4952
  50   2.0000      -0.454449       -12.3662
  51   2.0000      -0.451679       -12.2908
  52   2.0000      -0.449788       -12.2394
  53   2.0000      -0.448352       -12.2003
  54   2.0000      -0.434353       -11.8193
  55   2.0000      -0.433428       -11.7942
  56   2.0000      -0.431357       -11.7378
  57   2.0000      -0.430294       -11.7089
  58   2.0000      -0.428838       -11.6693
  59   2.0000      -0.395674       -10.7668
  60   2.0000      -0.393176       -10.6989
  61   2.0000      -0.292249        -7.9525
  62   2.0000      -0.286929        -7.8077
  63   2.0000      -0.279316        -7.6006
  64   2.0000      -0.264813        -7.2059
  65   2.0000      -0.261947        -7.1279
  66   0.0000      -0.019222        -0.5231
  67   0.0000       0.008612         0.2344
  68   0.0000       0.044079         1.1995
  69   0.0000       0.051972         1.4142
  70   0.0000       0.055716         1.5161

MULLIKEN ATOMIC CHARGES
-----------------------
   0 Lu:    0.865344
   1 C :   -0.256157
   2 C :   -0.328412
   3 C :   -0.262697
   4 C :   -0.282958
   5 C :   -0.309189
   6 H :    0.235326
   7 H :    0.241191
   8 H :    0.248252
   9 H :    0.243148
  10 H :    0.233490
  11 C :   -0.298696
  12 C :   -0.290963
  13 C :   -0.327729
  14 C :   -0.255705
  15 H :    0.233588
  16 C :   -0.252521
  17 H :    0.236750
  18 H :    0.230556
  19 H :    0.238873
  20 H :    0.246046
  21 C :   -1.087084
  22 H :    0.219691
  23 H :    0.221764
  24 H :    0.215787
  25 C :   -0.942378
  26 H :    0.267267
  27 H :    0.229810
  28 H :    0.247001
  29 H :    0.240603
Sum of atomic charges:   -0.0000000

LOEWDIN ATOMIC CHARGES
----------------------
   0 Lu:    0.028441
   1 C :   -0.129167
   2 C :   -0.151127
   3 C :   -0.130390
   4 C :   -0.145925
   5 C :   -0.146424
   6 H :    0.152172
   7 H :    0.155492
   8 H :    0.160408
   9 H :    0.156441
  10 H :    0.152107
  11 C :   -0.151263
  12 C :   -0.142109
  13 C :   -0.153974
  14 C :   -0.129643
  15 H :    0.151301
  16 C :   -0.127817
  17 H :    0.154002
  18 H :    0.150769
  19 H :    0.154436
  20 H :    0.159259
  21 C :   -0.649746
  22 H :    0.133042
  23 H :    0.140836
  24 H :    0.137966
  25 C :   -0.502259
  26 H :    0.148660
  27 H :    0.141894
  28 H :    0.141719
  29 H :    0.140901

  Mayer bond orders larger than 0.100000
B(  0-Lu,  1-C ) :   0.2374 B(  0-Lu,  2-C ) :   0.2823 B(  0-Lu,  3-C ) :   0.2475
B(  0-Lu,  4-C ) :   0.2557 B(  0-Lu,  5-C ) :   0.2686 B(  0-Lu, 11-C ) :   0.2625
B(  0-Lu, 12-C ) :   0.2570 B(  0-Lu, 13-C ) :   0.2809 B(  0-Lu, 14-C ) :   0.2468
B(  0-Lu, 16-C ) :   0.2384 B(  0-Lu, 21-C ) :   0.8198 B(  1-C ,  2-C ) :   1.2816
B(  1-C ,  5-C ) :   1.3029 B(  1-C ,  8-H ) :   0.9125 B(  2-C ,  3-C ) :   1.2860
B(  2-C ,  9-H ) :   0.9140 B(  3-C ,  4-C ) :   1.3077 B(  3-C , 10-H ) :   0.9186
B(  4-C ,  5-C ) :   1.2748 B(  4-C ,  6-H ) :   0.9159 B(  5-C ,  7-H ) :   0.9160
B( 11-C , 12-C ) :   1.2720 B( 11-C , 14-C ) :   1.3077 B( 11-C , 15-H ) :   0.9174
B( 12-C , 16-C ) :   1.3154 B( 12-C , 17-H ) :   0.9163 B( 13-C , 14-C ) :   1.2872
B( 13-C , 16-C ) :   1.2789 B( 13-C , 19-H ) :   0.9161 B( 14-C , 18-H ) :   0.9200
B( 16-C , 20-H ) :   0.9134 B( 21-C , 22-H ) :   0.9093 B( 21-C , 23-H ) :   0.9034
B( 21-C , 24-H ) :   0.8969 B( 25-C , 26-H ) :   0.8783 B( 25-C , 27-H ) :   0.9153
B( 25-C , 28-H ) :   0.9227 B( 25-C , 29-H ) :   0.9217

Dispersion correction           -0.017561148
FINAL SINGLE POINT ENERGY     -1702.389950387877
Dispersion correction            ... done

DIPOLE MOMENT
-------------
                                X             Y             Z
Electronic contribution:     -4.02848     -18.32839      15.30313
Nuclear contribution   :      4.31569      18.82314     -15.59250
                        -----------------------------------------
Total Dipole Moment    :      0.28720       0.49475      -0.28937
                        -----------------------------------------
Magnitude (a.u.)       :      0.64109
Magnitude (Debye)      :      1.62953

Rotational constants in cm-1:     0.028113     0.019647     0.017699
Rotational constants in MHz :   842.806951   588.991399   530.612715

                             ****ORCA TERMINATED NORMALLY****
TOTAL RUN TIME: 0 days 0 hours 8 minutes 28 seconds 680 msec
