                         Program Version 5.0.3 -  RELEASE  -
|  1> ! EnGrad PBEh-3c
|  2> %output
|  3> xyzfile=True
|  4> end
|  5> %scf
|  6> maxiter 250
|  7> end
|  8> %output
|  9> Print[P_Hirshfeld] = 1
| 10> end
| 11> % maxcore
| 12> 4000
| 13> *xyz 0 1
| 14> Lu   0.05926713  -0.41972273   0.32282419
| 15> C    0.56005238   0.45525244   2.69922438
| 16> C    1.70648817  -0.25741957   2.28572742
| 17> C    2.33274263   0.47497845   1.25549623
| 18> C    1.55910797   1.62465594   1.01116062
| 19> C    0.46423504   1.61499002   1.90359548
| 20> H    1.78067019   2.39712715   0.28693160
| 21> H   -0.28064385   2.39021811   2.00358262
| 22> H   -0.12105113   0.16589903   3.48277924
| 23> H    2.07334805  -1.17757710   2.71952054
| 24> H    3.26129057   0.22102680   0.77046938
| 25> C    0.62287102  -0.15750384  -2.23615128
| 26> C   -0.53490282  -0.96535197  -2.16497558
| 27> C    1.19366552  -2.13348169  -1.25220955
| 28> C    1.69680648  -0.88739810  -1.68432903
| 29> H    0.68892132   0.82188818  -2.68316957
| 30> C   -0.18184369  -2.18745141  -1.56480596
| 31> H   -1.51169553  -0.70956507  -2.54785610
| 32> H    2.72274392  -0.56760245  -1.64211949
| 33> H    1.78000417  -2.93584868  -0.82376753
| 34> H   -0.84525393  -3.01850009  -1.38565103
| 35> C   -1.97434920  -1.29267028   1.09593327
| 36> H   -2.35671102  -0.91900326   2.04948158
| 37> H   -1.98048416  -2.38362590   1.19498383
| 38> H   -2.76728081  -1.09322609   0.36567946
| 39> C   -1.98731612   2.18427879  -1.07738152
| 40> H   -2.14553070   1.42431445  -0.33487305
| 41> H   -0.93305810   2.49318157  -1.10562817
| 42> H   -2.60827990   3.03855216  -0.79766147
| 43> H   -2.28253633   1.79223622  -2.05154719
| 44> *
| 45>
| 46>                          ****END OF INPUT****

CARTESIAN COORDINATES (ANGSTROEM)
---------------------------------
  Lu     0.059267   -0.419723    0.322824
  C      0.560052    0.455252    2.699224
  C      1.706488   -0.257420    2.285727
  C      2.332743    0.474978    1.255496
  C      1.559108    1.624656    1.011161
  C      0.464235    1.614990    1.903595
  H      1.780670    2.397127    0.286932
  H     -0.280644    2.390218    2.003583
  H     -0.121051    0.165899    3.482779
  H      2.073348   -1.177577    2.719521
  H      3.261291    0.221027    0.770469
  C      0.622871   -0.157504   -2.236151
  C     -0.534903   -0.965352   -2.164976
  C      1.193666   -2.133482   -1.252210
  C      1.696806   -0.887398   -1.684329
  H      0.688921    0.821888   -2.683170
  C     -0.181844   -2.187451   -1.564806
  H     -1.511696   -0.709565   -2.547856
  H      2.722744   -0.567602   -1.642119
  H      1.780004   -2.935849   -0.823768
  H     -0.845254   -3.018500   -1.385651
  C     -1.974349   -1.292670    1.095933
  H     -2.356711   -0.919003    2.049482
  H     -1.980484   -2.383626    1.194984
  H     -2.767281   -1.093226    0.365679
  C     -1.987316    2.184279   -1.077382
  H     -2.145531    1.424314   -0.334873
  H     -0.933058    2.493182   -1.105628
  H     -2.608280    3.038552   -0.797661
  H     -2.282536    1.792236   -2.051547

 Total Charge           Charge          ....    0
 Multiplicity           Mult            ....    1
 Number of Electrons    NEL             ....  132
 Basis Dimension        Dim             ....  295

ORBITAL ENERGIES
----------------

  NO   OCC          E(Eh)            E(eV)
   0   2.0000     -19.248181      -523.7696
   1   2.0000     -12.620757      -343.4283
   2   2.0000     -12.618153      -343.3574
   3   2.0000     -12.617592      -343.3421
   4   2.0000     -10.447455      -284.2897
   5   2.0000     -10.446929      -284.2754
   6   2.0000     -10.446412      -284.2613
   7   2.0000     -10.446080      -284.2523
   8   2.0000     -10.445568      -284.2384
   9   2.0000     -10.445077      -284.2250
  10   2.0000     -10.444220      -284.2017
  11   2.0000     -10.443848      -284.1916
  12   2.0000     -10.443512      -284.1824
  13   2.0000     -10.442151      -284.1454
  14   2.0000     -10.437697      -284.0242
  15   2.0000     -10.360304      -281.9182
  16   2.0000      -5.889769      -160.2688
  17   2.0000      -5.889437      -160.2597
  18   2.0000      -5.888849      -160.2437
  19   2.0000      -5.887304      -160.2017
  20   2.0000      -5.887179      -160.1983
  21   2.0000      -2.432055       -66.1796
  22   2.0000      -1.270909       -34.5832
  23   2.0000      -1.270787       -34.5799
  24   2.0000      -1.259240       -34.2657
  25   2.0000      -0.980192       -26.6724
  26   2.0000      -0.970735       -26.4150
  27   2.0000      -0.799331       -21.7509
  28   2.0000      -0.795425       -21.6446
  29   2.0000      -0.794397       -21.6166
  30   2.0000      -0.791250       -21.5310
  31   2.0000      -0.790841       -21.5199
  32   2.0000      -0.702923       -19.1275
  33   2.0000      -0.615884       -16.7590
  34   2.0000      -0.613422       -16.6921
  35   2.0000      -0.610125       -16.6023
  36   2.0000      -0.610044       -16.6001
  37   2.0000      -0.597415       -16.2565
  38   2.0000      -0.592262       -16.1163
  39   2.0000      -0.557698       -15.1757
  40   2.0000      -0.556183       -15.1345
  41   2.0000      -0.556102       -15.1323
  42   2.0000      -0.555002       -15.1024
  43   2.0000      -0.554359       -15.0849
  44   2.0000      -0.553183       -15.0529
  45   2.0000      -0.551327       -15.0024
  46   2.0000      -0.473526       -12.8853
  47   2.0000      -0.471366       -12.8265
  48   2.0000      -0.468548       -12.7498
  49   2.0000      -0.459987       -12.5169
  50   2.0000      -0.454593       -12.3701
  51   2.0000      -0.452000       -12.2996
  52   2.0000      -0.450241       -12.2517
  53   2.0000      -0.449090       -12.2204
  54   2.0000      -0.434518       -11.8238
  55   2.0000      -0.433573       -11.7981
  56   2.0000      -0.431589       -11.7441
  57   2.0000      -0.430077       -11.7030
  58   2.0000      -0.429123       -11.6770
  59   2.0000      -0.395184       -10.7535
  60   2.0000      -0.392664       -10.6849
  61   2.0000      -0.292136        -7.9494
  62   2.0000      -0.287263        -7.8168
  63   2.0000      -0.279553        -7.6070
  64   2.0000      -0.264875        -7.2076
  65   2.0000      -0.261093        -7.1047
  66   0.0000      -0.019483        -0.5302
  67   0.0000       0.008152         0.2218
  68   0.0000       0.043784         1.1914
  69   0.0000       0.051850         1.4109
  70   0.0000       0.055587         1.5126

MULLIKEN ATOMIC CHARGES
-----------------------
   0 Lu:    0.860164
   1 C :   -0.256494
   2 C :   -0.329049
   3 C :   -0.261698
   4 C :   -0.285807
   5 C :   -0.306063
   6 H :    0.235423
   7 H :    0.241324
   8 H :    0.248361
   9 H :    0.243354
  10 H :    0.233872
  11 C :   -0.301136
  12 C :   -0.288132
  13 C :   -0.328859
  14 C :   -0.255436
  15 H :    0.233981
  16 C :   -0.251884
  17 H :    0.236524
  18 H :    0.230977
  19 H :    0.239097
  20 H :    0.246328
  21 C :   -1.083797
  22 H :    0.218946
  23 H :    0.220605
  24 H :    0.215214
  25 C :   -0.930687
  26 H :    0.252127
  27 H :    0.230296
  28 H :    0.248833
  29 H :    0.243613
Sum of atomic charges:   -0.0000000

LOEWDIN ATOMIC CHARGES
----------------------
   0 Lu:    0.022360
   1 C :   -0.128814
   2 C :   -0.150903
   3 C :   -0.130325
   4 C :   -0.146035
   5 C :   -0.145574
   6 H :    0.152272
   7 H :    0.155464
   8 H :    0.160446
   9 H :    0.156559
  10 H :    0.152226
  11 C :   -0.151381
  12 C :   -0.141013
  13 C :   -0.153773
  14 C :   -0.129483
  15 H :    0.151347
  16 C :   -0.127577
  17 H :    0.153854
  18 H :    0.150781
  19 H :    0.154585
  20 H :    0.159398
  21 C :   -0.649756
  22 H :    0.132675
  23 H :    0.140376
  24 H :    0.137526
  25 C :   -0.500346
  26 H :    0.151881
  27 H :    0.141047
  28 H :    0.141394
  29 H :    0.140788

  Mayer bond orders larger than 0.100000
B(  0-Lu,  1-C ) :   0.2374 B(  0-Lu,  2-C ) :   0.2828 B(  0-Lu,  3-C ) :   0.2487
B(  0-Lu,  4-C ) :   0.2567 B(  0-Lu,  5-C ) :   0.2680 B(  0-Lu, 11-C ) :   0.2634
B(  0-Lu, 12-C ) :   0.2559 B(  0-Lu, 13-C ) :   0.2816 B(  0-Lu, 14-C ) :   0.2485
B(  0-Lu, 16-C ) :   0.2381 B(  0-Lu, 21-C ) :   0.8197 B(  1-C ,  2-C ) :   1.2816
B(  1-C ,  5-C ) :   1.3032 B(  1-C ,  8-H ) :   0.9125 B(  2-C ,  3-C ) :   1.2853
B(  2-C ,  9-H ) :   0.9139 B(  3-C ,  4-C ) :   1.3064 B(  3-C , 10-H ) :   0.9184
B(  4-C ,  5-C ) :   1.2752 B(  4-C ,  6-H ) :   0.9161 B(  5-C ,  7-H ) :   0.9158
B( 11-C , 12-C ) :   1.2727 B( 11-C , 14-C ) :   1.3060 B( 11-C , 15-H ) :   0.9175
B( 12-C , 16-C ) :   1.3159 B( 12-C , 17-H ) :   0.9163 B( 13-C , 14-C ) :   1.2866
B( 13-C , 16-C ) :   1.2785 B( 13-C , 19-H ) :   0.9160 B( 14-C , 18-H ) :   0.9199
B( 16-C , 20-H ) :   0.9132 B( 21-C , 22-H ) :   0.9096 B( 21-C , 23-H ) :   0.9035
B( 21-C , 24-H ) :   0.8974 B( 25-C , 26-H ) :   0.8849 B( 25-C , 27-H ) :   0.9133
B( 25-C , 28-H ) :   0.9198 B( 25-C , 29-H ) :   0.9184

Dispersion correction           -0.017559975
FINAL SINGLE POINT ENERGY     -1702.393874548391
Dispersion correction            ... done

DIPOLE MOMENT
-------------
                                X             Y             Z
Electronic contribution:     -3.76490     -18.39083      15.29369
Nuclear contribution   :      4.06253      18.88284     -15.58259
                        -----------------------------------------
Total Dipole Moment    :      0.29763       0.49200      -0.28891
                        -----------------------------------------
Magnitude (a.u.)       :      0.64352
Magnitude (Debye)      :      1.63570

Rotational constants in cm-1:     0.028047     0.019631     0.017688
Rotational constants in MHz :   840.827743   588.510216   530.261352

                             ****ORCA TERMINATED NORMALLY****
TOTAL RUN TIME: 0 days 0 hours 8 minutes 29 seconds 599 msec
