                         Program Version 5.0.3 -  RELEASE  -
|  1> ! EnGrad PBEh-3c
|  2> %output
|  3> xyzfile=True
|  4> end
|  5> %scf
|  6> maxiter 250
|  7> end
|  8> %output
|  9> Print[P_Hirshfeld] = 1
| 10> end
| 11> % maxcore
| 12> 4000
| 13> *xyz 0 1
| 14> Lu   0.06423407  -0.42029400   0.32229800
| 15> C    0.55866955   0.45774743   2.69855356
| 16> C    1.70450505  -0.25735762   2.28613393
| 17> C    2.33127325   0.47392609   1.25598391
| 18> C    1.55975448   1.62425897   1.00933167
| 19> C    0.46570199   1.61694484   1.90321200
| 20> H    1.78560069   2.39660908   0.28668564
| 21> H   -0.27966736   2.39323625   1.99962119
| 22> H   -0.12392741   0.16919474   3.48178899
| 23> H    2.06978939  -1.17767163   2.72068409
| 24> H    3.25946533   0.21674582   0.76999066
| 25> C    0.62423378  -0.15673831  -2.23497669
| 26> C   -0.53402740  -0.96392427  -2.16691384
| 27> C    1.19270878  -2.13285682  -1.25044187
| 28> C    1.69506881  -0.88721732  -1.68271562
| 29> H    0.69288934   0.82254619  -2.68414723
| 30> C   -0.18291133  -2.18543411  -1.56562680
| 31> H   -1.51087448  -0.70582436  -2.54885077
| 32> H    2.72292003  -0.56751870  -1.63888730
| 33> H    1.77808403  -2.93546299  -0.82222737
| 34> H   -0.84752875  -3.01584677  -1.38533302
| 35> C   -1.97426818  -1.29392729   1.09592904
| 36> H   -2.35394235  -0.91972915   2.05139543
| 37> H   -1.97359735  -2.38646755   1.19503167
| 38> H   -2.76942417  -1.09546937   0.36606265
| 39> C   -1.98972128   2.19131335  -1.08388851
| 40> H   -2.14413260   1.41375021  -0.32237352
| 41> H   -0.92639933   2.48631859  -1.09817249
| 42> H   -2.61497628   3.04252030  -0.79307476
| 43> H   -2.28900737   1.78729184  -2.05561188
| 44> *
| 45>
| 46>                          ****END OF INPUT****

CARTESIAN COORDINATES (ANGSTROEM)
---------------------------------
  Lu     0.064234   -0.420294    0.322298
  C      0.558670    0.457747    2.698554
  C      1.704505   -0.257358    2.286134
  C      2.331273    0.473926    1.255984
  C      1.559754    1.624259    1.009332
  C      0.465702    1.616945    1.903212
  H      1.785601    2.396609    0.286686
  H     -0.279667    2.393236    1.999621
  H     -0.123927    0.169195    3.481789
  H      2.069789   -1.177672    2.720684
  H      3.259465    0.216746    0.769991
  C      0.624234   -0.156738   -2.234977
  C     -0.534027   -0.963924   -2.166914
  C      1.192709   -2.132857   -1.250442
  C      1.695069   -0.887217   -1.682716
  H      0.692889    0.822546   -2.684147
  C     -0.182911   -2.185434   -1.565627
  H     -1.510874   -0.705824   -2.548851
  H      2.722920   -0.567519   -1.638887
  H      1.778084   -2.935463   -0.822227
  H     -0.847529   -3.015847   -1.385333
  C     -1.974268   -1.293927    1.095929
  H     -2.353942   -0.919729    2.051395
  H     -1.973597   -2.386468    1.195032
  H     -2.769424   -1.095469    0.366063
  C     -1.989721    2.191313   -1.083889
  H     -2.144133    1.413750   -0.322374
  H     -0.926399    2.486319   -1.098172
  H     -2.614976    3.042520   -0.793075
  H     -2.289007    1.787292   -2.055612

 Total Charge           Charge          ....    0
 Multiplicity           Mult            ....    1
 Number of Electrons    NEL             ....  132
 Basis Dimension        Dim             ....  295

ORBITAL ENERGIES
----------------

  NO   OCC          E(Eh)            E(eV)
   0   2.0000     -19.248019      -523.7652
   1   2.0000     -12.620593      -343.4238
   2   2.0000     -12.617991      -343.3530
   3   2.0000     -12.617428      -343.3377
   4   2.0000     -10.447610      -284.2939
   5   2.0000     -10.447135      -284.2810
   6   2.0000     -10.446656      -284.2680
   7   2.0000     -10.446163      -284.2546
   8   2.0000     -10.445682      -284.2415
   9   2.0000     -10.445106      -284.2258
  10   2.0000     -10.444435      -284.2075
  11   2.0000     -10.443860      -284.1919
  12   2.0000     -10.443685      -284.1871
  13   2.0000     -10.442327      -284.1502
  14   2.0000     -10.441548      -284.1290
  15   2.0000     -10.360588      -281.9259
  16   2.0000      -5.889603      -160.2643
  17   2.0000      -5.889274      -160.2553
  18   2.0000      -5.888683      -160.2392
  19   2.0000      -5.887138      -160.1972
  20   2.0000      -5.887015      -160.1938
  21   2.0000      -2.431899       -66.1753
  22   2.0000      -1.270808       -34.5804
  23   2.0000      -1.270732       -34.5784
  24   2.0000      -1.259089       -34.2615
  25   2.0000      -0.980591       -26.6832
  26   2.0000      -0.971100       -26.4250
  27   2.0000      -0.796990       -21.6872
  28   2.0000      -0.795425       -21.6446
  29   2.0000      -0.794538       -21.6205
  30   2.0000      -0.791445       -21.5363
  31   2.0000      -0.790548       -21.5119
  32   2.0000      -0.702001       -19.1024
  33   2.0000      -0.615894       -16.7593
  34   2.0000      -0.613590       -16.6966
  35   2.0000      -0.610298       -16.6071
  36   2.0000      -0.610055       -16.6004
  37   2.0000      -0.597595       -16.2614
  38   2.0000      -0.592331       -16.1182
  39   2.0000      -0.557542       -15.1715
  40   2.0000      -0.556012       -15.1299
  41   2.0000      -0.555932       -15.1277
  42   2.0000      -0.554833       -15.0978
  43   2.0000      -0.554192       -15.0803
  44   2.0000      -0.553017       -15.0484
  45   2.0000      -0.551157       -14.9978
  46   2.0000      -0.472080       -12.8459
  47   2.0000      -0.469396       -12.7729
  48   2.0000      -0.467159       -12.7120
  49   2.0000      -0.459820       -12.5123
  50   2.0000      -0.454404       -12.3650
  51   2.0000      -0.452283       -12.3072
  52   2.0000      -0.450312       -12.2536
  53   2.0000      -0.449340       -12.2272
  54   2.0000      -0.434705       -11.8289
  55   2.0000      -0.433751       -11.8030
  56   2.0000      -0.431598       -11.7444
  57   2.0000      -0.430390       -11.7115
  58   2.0000      -0.429274       -11.6811
  59   2.0000      -0.394722       -10.7409
  60   2.0000      -0.392217       -10.6728
  61   2.0000      -0.292266        -7.9530
  62   2.0000      -0.287528        -7.8240
  63   2.0000      -0.279737        -7.6120
  64   2.0000      -0.265325        -7.2199
  65   2.0000      -0.260302        -7.0832
  66   0.0000      -0.019780        -0.5382
  67   0.0000       0.007871         0.2142
  68   0.0000       0.043514         1.1841
  69   0.0000       0.051814         1.4099
  70   0.0000       0.055291         1.5045

MULLIKEN ATOMIC CHARGES
-----------------------
   0 Lu:    0.855850
   1 C :   -0.256828
   2 C :   -0.329761
   3 C :   -0.260822
   4 C :   -0.288622
   5 C :   -0.302697
   6 H :    0.235585
   7 H :    0.241386
   8 H :    0.248429
   9 H :    0.243667
  10 H :    0.234163
  11 C :   -0.302826
  12 C :   -0.285148
  13 C :   -0.330241
  14 C :   -0.254687
  15 H :    0.234177
  16 C :   -0.251877
  17 H :    0.236345
  18 H :    0.231144
  19 H :    0.239419
  20 H :    0.246508
  21 C :   -1.080598
  22 H :    0.218200
  23 H :    0.219305
  24 H :    0.214678
  25 C :   -0.923447
  26 H :    0.246258
  27 H :    0.229860
  28 H :    0.248817
  29 H :    0.243760
Sum of atomic charges:   -0.0000000

LOEWDIN ATOMIC CHARGES
----------------------
   0 Lu:    0.017980
   1 C :   -0.128474
   2 C :   -0.151007
   3 C :   -0.129978
   4 C :   -0.146478
   5 C :   -0.144594
   6 H :    0.152466
   7 H :    0.155447
   8 H :    0.160533
   9 H :    0.156776
  10 H :    0.152350
  11 C :   -0.151576
  12 C :   -0.140142
  13 C :   -0.154161
  14 C :   -0.129112
  15 H :    0.151565
  16 C :   -0.127000
  17 H :    0.153793
  18 H :    0.150917
  19 H :    0.154845
  20 H :    0.159448
  21 C :   -0.649647
  22 H :    0.132313
  23 H :    0.139961
  24 H :    0.137118
  25 C :   -0.498962
  26 H :    0.152567
  27 H :    0.140727
  28 H :    0.141420
  29 H :    0.140906

  Mayer bond orders larger than 0.100000
B(  0-Lu,  1-C ) :   0.2372 B(  0-Lu,  2-C ) :   0.2837 B(  0-Lu,  3-C ) :   0.2498
B(  0-Lu,  4-C ) :   0.2578 B(  0-Lu,  5-C ) :   0.2671 B(  0-Lu, 11-C ) :   0.2640
B(  0-Lu, 12-C ) :   0.2549 B(  0-Lu, 13-C ) :   0.2831 B(  0-Lu, 14-C ) :   0.2497
B(  0-Lu, 16-C ) :   0.2381 B(  0-Lu, 21-C ) :   0.8197 B(  1-C ,  2-C ) :   1.2806
B(  1-C ,  5-C ) :   1.3047 B(  1-C ,  8-H ) :   0.9125 B(  2-C ,  3-C ) :   1.2850
B(  2-C ,  9-H ) :   0.9137 B(  3-C ,  4-C ) :   1.3052 B(  3-C , 10-H ) :   0.9180
B(  4-C ,  5-C ) :   1.2749 B(  4-C ,  6-H ) :   0.9163 B(  5-C ,  7-H ) :   0.9156
B( 11-C , 12-C ) :   1.2723 B( 11-C , 14-C ) :   1.3056 B( 11-C , 15-H ) :   0.9176
B( 12-C , 16-C ) :   1.3176 B( 12-C , 17-H ) :   0.9163 B( 13-C , 14-C ) :   1.2855
B( 13-C , 16-C ) :   1.2775 B( 13-C , 19-H ) :   0.9160 B( 14-C , 18-H ) :   0.9197
B( 16-C , 20-H ) :   0.9130 B( 21-C , 22-H ) :   0.9098 B( 21-C , 23-H ) :   0.9036
B( 21-C , 24-H ) :   0.8981 B( 25-C , 26-H ) :   0.8865 B( 25-C , 27-H ) :   0.9123
B( 25-C , 28-H ) :   0.9187 B( 25-C , 29-H ) :   0.9173

Dispersion correction           -0.017564303
FINAL SINGLE POINT ENERGY     -1702.393860660846
Dispersion correction            ... done

DIPOLE MOMENT
-------------
                                X             Y             Z
Electronic contribution:     -3.49707     -18.43610      15.25973
Nuclear contribution   :      3.80640      18.92677     -15.54885
                        -----------------------------------------
Total Dipole Moment    :      0.30933       0.49067      -0.28912
                        -----------------------------------------
Magnitude (a.u.)       :      0.64810
Magnitude (Debye)      :      1.64733

Rotational constants in cm-1:     0.028038     0.019632     0.017688
Rotational constants in MHz :   840.564754   588.541677   530.280558

                             ****ORCA TERMINATED NORMALLY****
TOTAL RUN TIME: 0 days 0 hours 8 minutes 23 seconds 120 msec
