                         Program Version 5.0.3 -  RELEASE  -
|  1> ! EnGrad PBEh-3c
|  2> %output
|  3> xyzfile=True
|  4> end
|  5> %scf
|  6> maxiter 250
|  7> end
|  8> %output
|  9> Print[P_Hirshfeld] = 1
| 10> end
| 11> % maxcore
| 12> 4000
| 13> *xyz 0 1
| 14> Lu   0.07657733  -0.42163024   0.32087366
| 15> C    0.55353566   0.46634399   2.69611227
| 16> C    1.69750200  -0.25655012   2.28848777
| 17> C    2.32743890   0.46975631   1.25757342
| 18> C    1.56323366   1.62312640   1.00386466
| 19> C    0.47003124   1.62387926   1.89993207
| 20> H    1.80218646   2.39446338   0.28579696
| 21> H   -0.27510301   2.40348342   1.98633364
| 22> H   -0.13345552   0.18146621   3.47781039
| 23> H    2.05681759  -1.17773984   2.72456117
| 24> H    3.25300765   0.20212676   0.76878779
| 25> C    0.62890802  -0.15306870  -2.23250128
| 26> C   -0.53163690  -0.95829774  -2.17243291
| 27> C    1.18884287  -2.13154311  -1.24559016
| 28> C    1.69254087  -0.88662895  -1.67689591
| 29> H    0.70643297   0.82420051  -2.68711499
| 30> C   -0.18636064  -2.17844076  -1.56822684
| 31> H   -1.50721568  -0.69315313  -2.55283133
| 32> H    2.72277472  -0.56773411  -1.62776578
| 33> H    1.77084388  -2.93393957  -0.81664091
| 34> H   -0.85542069  -3.00613568  -1.38485291
| 35> C   -1.97166847  -1.29728842   1.09590347
| 36> H   -2.34430403  -0.92376798   2.05696218
| 37> H   -1.95105950  -2.39505759   1.19514338
| 38> H   -2.77600165  -1.10469900   0.36871426
| 39> C   -1.99059948   2.19971728  -1.08773868
| 40> H   -2.14114195   1.39716932  -0.30086641
| 41> H   -0.92949471   2.46184294  -1.07845262
| 42> H   -2.62480640   3.04244075  -0.78408124
| 43> H   -2.30480522   1.77971606  -2.05254880
| 44> *
| 45>
| 46>                          ****END OF INPUT****

CARTESIAN COORDINATES (ANGSTROEM)
---------------------------------
  Lu     0.076577   -0.421630    0.320874
  C      0.553536    0.466344    2.696112
  C      1.697502   -0.256550    2.288488
  C      2.327439    0.469756    1.257573
  C      1.563234    1.623126    1.003865
  C      0.470031    1.623879    1.899932
  H      1.802186    2.394463    0.285797
  H     -0.275103    2.403483    1.986334
  H     -0.133456    0.181466    3.477810
  H      2.056818   -1.177740    2.724561
  H      3.253008    0.202127    0.768788
  C      0.628908   -0.153069   -2.232501
  C     -0.531637   -0.958298   -2.172433
  C      1.188843   -2.131543   -1.245590
  C      1.692541   -0.886629   -1.676896
  H      0.706433    0.824201   -2.687115
  C     -0.186361   -2.178441   -1.568227
  H     -1.507216   -0.693153   -2.552831
  H      2.722775   -0.567734   -1.627766
  H      1.770844   -2.933940   -0.816641
  H     -0.855421   -3.006136   -1.384853
  C     -1.971668   -1.297288    1.095903
  H     -2.344304   -0.923768    2.056962
  H     -1.951059   -2.395058    1.195143
  H     -2.776002   -1.104699    0.368714
  C     -1.990599    2.199717   -1.087739
  H     -2.141142    1.397169   -0.300866
  H     -0.929495    2.461843   -1.078453
  H     -2.624806    3.042441   -0.784081
  H     -2.304805    1.779716   -2.052549

 Total Charge           Charge          ....    0
 Multiplicity           Mult            ....    1
 Number of Electrons    NEL             ....  132
 Basis Dimension        Dim             ....  295

ORBITAL ENERGIES
----------------

  NO   OCC          E(Eh)            E(eV)
   0   2.0000     -19.247530      -523.7519
   1   2.0000     -12.620103      -343.4105
   2   2.0000     -12.617503      -343.3397
   3   2.0000     -12.616927      -343.3240
   4   2.0000     -10.447999      -284.3045
   5   2.0000     -10.447744      -284.2976
   6   2.0000     -10.447086      -284.2797
   7   2.0000     -10.446413      -284.2614
   8   2.0000     -10.445990      -284.2498
   9   2.0000     -10.445305      -284.2312
  10   2.0000     -10.444958      -284.2218
  11   2.0000     -10.444474      -284.2086
  12   2.0000     -10.444259      -284.2027
  13   2.0000     -10.443893      -284.1928
  14   2.0000     -10.442798      -284.1630
  15   2.0000     -10.361564      -281.9525
  16   2.0000      -5.889105      -160.2507
  17   2.0000      -5.888782      -160.2419
  18   2.0000      -5.888179      -160.2255
  19   2.0000      -5.886633      -160.1834
  20   2.0000      -5.886517      -160.1803
  21   2.0000      -2.431434       -66.1627
  22   2.0000      -1.270672       -34.5767
  23   2.0000      -1.270375       -34.5687
  24   2.0000      -1.258671       -34.2502
  25   2.0000      -0.981351       -26.7039
  26   2.0000      -0.971698       -26.4412
  27   2.0000      -0.796569       -21.6757
  28   2.0000      -0.795397       -21.6438
  29   2.0000      -0.794550       -21.6208
  30   2.0000      -0.792018       -21.5519
  31   2.0000      -0.789845       -21.4928
  32   2.0000      -0.699669       -19.0390
  33   2.0000      -0.616177       -16.7670
  34   2.0000      -0.614102       -16.7106
  35   2.0000      -0.610949       -16.6248
  36   2.0000      -0.610164       -16.6034
  37   2.0000      -0.598104       -16.2752
  38   2.0000      -0.592595       -16.1253
  39   2.0000      -0.557074       -15.1588
  40   2.0000      -0.555504       -15.1160
  41   2.0000      -0.555429       -15.1140
  42   2.0000      -0.554328       -15.0840
  43   2.0000      -0.553692       -15.0667
  44   2.0000      -0.552517       -15.0347
  45   2.0000      -0.550646       -14.9838
  46   2.0000      -0.475559       -12.9406
  47   2.0000      -0.469474       -12.7750
  48   2.0000      -0.464115       -12.6292
  49   2.0000      -0.456860       -12.4318
  50   2.0000      -0.453457       -12.3392
  51   2.0000      -0.451796       -12.2940
  52   2.0000      -0.450718       -12.2647
  53   2.0000      -0.449961       -12.2441
  54   2.0000      -0.435313       -11.8455
  55   2.0000      -0.434028       -11.8105
  56   2.0000      -0.431774       -11.7492
  57   2.0000      -0.430867       -11.7245
  58   2.0000      -0.429608       -11.6902
  59   2.0000      -0.393622       -10.7110
  60   2.0000      -0.390925       -10.6376
  61   2.0000      -0.292598        -7.9620
  62   2.0000      -0.288172        -7.8415
  63   2.0000      -0.280191        -7.6244
  64   2.0000      -0.266409        -7.2493
  65   2.0000      -0.258561        -7.0358
  66   0.0000      -0.020472        -0.5571
  67   0.0000       0.007347         0.1999
  68   0.0000       0.043274         1.1775
  69   0.0000       0.051775         1.4089
  70   0.0000       0.054687         1.4881

MULLIKEN ATOMIC CHARGES
-----------------------
   0 Lu:    0.847114
   1 C :   -0.258080
   2 C :   -0.330922
   3 C :   -0.259258
   4 C :   -0.295123
   5 C :   -0.294654
   6 H :    0.235957
   7 H :    0.241507
   8 H :    0.248563
   9 H :    0.244530
  10 H :    0.234969
  11 C :   -0.307011
  12 C :   -0.277848
  13 C :   -0.333153
  14 C :   -0.253770
  15 H :    0.234654
  16 C :   -0.251784
  17 H :    0.236244
  18 H :    0.231705
  19 H :    0.240368
  20 H :    0.247082
  21 C :   -1.073225
  22 H :    0.216575
  23 H :    0.215672
  24 H :    0.213384
  25 C :   -0.917427
  26 H :    0.237953
  27 H :    0.233742
  28 H :    0.248885
  29 H :    0.243350
Sum of atomic charges:    0.0000000

LOEWDIN ATOMIC CHARGES
----------------------
   0 Lu:    0.009027
   1 C :   -0.127669
   2 C :   -0.151113
   3 C :   -0.129372
   4 C :   -0.147272
   5 C :   -0.142262
   6 H :    0.152956
   7 H :    0.155362
   8 H :    0.160709
   9 H :    0.157302
  10 H :    0.152621
  11 C :   -0.151799
  12 C :   -0.137915
  13 C :   -0.154927
  14 C :   -0.128301
  15 H :    0.152021
  16 C :   -0.125562
  17 H :    0.153755
  18 H :    0.151170
  19 H :    0.155500
  20 H :    0.159633
  21 C :   -0.648992
  22 H :    0.131500
  23 H :    0.138985
  24 H :    0.136177
  25 C :   -0.497802
  26 H :    0.153185
  27 H :    0.140357
  28 H :    0.141609
  29 H :    0.141117

  Mayer bond orders larger than 0.100000
B(  0-Lu,  1-C ) :   0.2369 B(  0-Lu,  2-C ) :   0.2858 B(  0-Lu,  3-C ) :   0.2528
B(  0-Lu,  4-C ) :   0.2602 B(  0-Lu,  5-C ) :   0.2646 B(  0-Lu, 11-C ) :   0.2655
B(  0-Lu, 12-C ) :   0.2522 B(  0-Lu, 13-C ) :   0.2868 B(  0-Lu, 14-C ) :   0.2530
B(  0-Lu, 16-C ) :   0.2379 B(  0-Lu, 21-C ) :   0.8190 B(  1-C ,  2-C ) :   1.2785
B(  1-C ,  5-C ) :   1.3079 B(  1-C ,  8-H ) :   0.9124 B(  2-C ,  3-C ) :   1.2841
B(  2-C ,  9-H ) :   0.9132 B(  3-C ,  4-C ) :   1.3024 B(  3-C , 10-H ) :   0.9171
B(  4-C ,  5-C ) :   1.2746 B(  4-C ,  6-H ) :   0.9170 B(  5-C ,  7-H ) :   0.9151
B( 11-C , 12-C ) :   1.2717 B( 11-C , 14-C ) :   1.3044 B( 11-C , 15-H ) :   0.9178
B( 12-C , 16-C ) :   1.3215 B( 12-C , 17-H ) :   0.9160 B( 13-C , 14-C ) :   1.2825
B( 13-C , 16-C ) :   1.2754 B( 13-C , 19-H ) :   0.9157 B( 14-C , 18-H ) :   0.9191
B( 16-C , 20-H ) :   0.9124 B( 21-C , 22-H ) :   0.9101 B( 21-C , 23-H ) :   0.9037
B( 21-C , 24-H ) :   0.8998 B( 25-C , 26-H ) :   0.8893 B( 25-C , 27-H ) :   0.9087
B( 25-C , 28-H ) :   0.9177 B( 25-C , 29-H ) :   0.9167

Dispersion correction           -0.017584983
FINAL SINGLE POINT ENERGY     -1702.392489362310
Dispersion correction            ... done

DIPOLE MOMENT
-------------
                                X             Y             Z
Electronic contribution:     -2.83968     -18.54396      15.14013
Nuclear contribution   :      3.17794      19.02969     -15.43013
                        -----------------------------------------
Total Dipole Moment    :      0.33826       0.48573      -0.29000
                        -----------------------------------------
Magnitude (a.u.)       :      0.65913
Magnitude (Debye)      :      1.67537

Rotational constants in cm-1:     0.028071     0.019651     0.017711
Rotational constants in MHz :   841.560345   589.113748   530.967539

                             ****ORCA TERMINATED NORMALLY****
TOTAL RUN TIME: 0 days 0 hours 8 minutes 21 seconds 964 msec
