                         Program Version 5.0.3 -  RELEASE  -
|  1> ! EnGrad PBEh-3c
|  2> %output
|  3> xyzfile=True
|  4> end
|  5> %scf
|  6> maxiter 250
|  7> end
|  8> %output
|  9> Print[P_Hirshfeld] = 1
| 10> end
| 11> % maxcore
| 12> 4000
| 13> *xyz 0 1
| 14> Lu   0.08152175  -0.42076551   0.31962454
| 15> C    0.54920095   0.47291876   2.69294266
| 16> C    1.69119496  -0.25355805   2.29117275
| 17> C    2.32599168   0.46583695   1.25939454
| 18> C    1.56704384   1.62097729   1.00128137
| 19> C    0.47253040   1.62922396   1.89350672
| 20> H    1.81530047   2.39257114   0.28444620
| 21> H   -0.26988957   2.41129243   1.97567576
| 22> H   -0.14119353   0.19309573   3.47394688
| 23> H    2.04506355  -1.17802758   2.72815412
| 24> H    3.24717550   0.19007367   0.76835770
| 25> C    0.63329244  -0.15164894  -2.23043216
| 26> C   -0.52846407  -0.95093080  -2.17485047
| 27> C    1.18508527  -2.12884991  -1.24474518
| 28> C    1.69117250  -0.88704729  -1.67265708
| 29> H    0.71726130   0.82598003  -2.68936972
| 30> C   -0.18971726  -2.17379655  -1.56950445
| 31> H   -1.50369071  -0.68293757  -2.55695821
| 32> H    2.72335450  -0.56809519  -1.61806375
| 33> H    1.76416661  -2.93366853  -0.81076640
| 34> H   -0.86187858  -2.99639890  -1.38536449
| 35> C   -1.96830641  -1.30063715   1.09538748
| 36> H   -2.33542708  -0.92909659   2.06018505
| 37> H   -1.93367166  -2.39736171   1.19432004
| 38> H   -2.77916308  -1.11441154   0.37430604
| 39> C   -2.00141387   2.18822328  -1.07698939
| 40> H   -2.14470117   1.39001889  -0.29436652
| 41> H   -0.94015295   2.45066860  -1.07263987
| 42> H   -2.61738042   3.03052640  -0.78367214
| 43> H   -2.30905020   1.78461911  -2.03289659
| 44> *
| 45>
| 46>                          ****END OF INPUT****

CARTESIAN COORDINATES (ANGSTROEM)
---------------------------------
  Lu     0.081522   -0.420766    0.319625
  C      0.549201    0.472919    2.692943
  C      1.691195   -0.253558    2.291173
  C      2.325992    0.465837    1.259395
  C      1.567044    1.620977    1.001281
  C      0.472530    1.629224    1.893507
  H      1.815300    2.392571    0.284446
  H     -0.269890    2.411292    1.975676
  H     -0.141194    0.193096    3.473947
  H      2.045064   -1.178028    2.728154
  H      3.247175    0.190074    0.768358
  C      0.633292   -0.151649   -2.230432
  C     -0.528464   -0.950931   -2.174850
  C      1.185085   -2.128850   -1.244745
  C      1.691172   -0.887047   -1.672657
  H      0.717261    0.825980   -2.689370
  C     -0.189717   -2.173797   -1.569504
  H     -1.503691   -0.682938   -2.556958
  H      2.723355   -0.568095   -1.618064
  H      1.764167   -2.933669   -0.810766
  H     -0.861879   -2.996399   -1.385364
  C     -1.968306   -1.300637    1.095387
  H     -2.335427   -0.929097    2.060185
  H     -1.933672   -2.397362    1.194320
  H     -2.779163   -1.114412    0.374306
  C     -2.001414    2.188223   -1.076989
  H     -2.144701    1.390019   -0.294367
  H     -0.940153    2.450669   -1.072640
  H     -2.617380    3.030526   -0.783672
  H     -2.309050    1.784619   -2.032897

 Total Charge           Charge          ....    0
 Multiplicity           Mult            ....    1
 Number of Electrons    NEL             ....  132
 Basis Dimension        Dim             ....  295

ORBITAL ENERGIES
----------------

  NO   OCC          E(Eh)            E(eV)
   0   2.0000     -19.247223      -523.7436
   1   2.0000     -12.619801      -343.4022
   2   2.0000     -12.617190      -343.3312
   3   2.0000     -12.616610      -343.3154
   4   2.0000     -10.447955      -284.3033
   5   2.0000     -10.447644      -284.2948
   6   2.0000     -10.447065      -284.2791
   7   2.0000     -10.446183      -284.2551
   8   2.0000     -10.446084      -284.2524
   9   2.0000     -10.445193      -284.2282
  10   2.0000     -10.444988      -284.2226
  11   2.0000     -10.444304      -284.2040
  12   2.0000     -10.443945      -284.1942
  13   2.0000     -10.442724      -284.1610
  14   2.0000     -10.440198      -284.0922
  15   2.0000     -10.361418      -281.9485
  16   2.0000      -5.888796      -160.2423
  17   2.0000      -5.888473      -160.2335
  18   2.0000      -5.887866      -160.2170
  19   2.0000      -5.886313      -160.1747
  20   2.0000      -5.886198      -160.1716
  21   2.0000      -2.431149       -66.1549
  22   2.0000      -1.270593       -34.5746
  23   2.0000      -1.270165       -34.5629
  24   2.0000      -1.258446       -34.2441
  25   2.0000      -0.982158       -26.7259
  26   2.0000      -0.972451       -26.4617
  27   2.0000      -0.797357       -21.6972
  28   2.0000      -0.796028       -21.6610
  29   2.0000      -0.795395       -21.6438
  30   2.0000      -0.792298       -21.5595
  31   2.0000      -0.791226       -21.5304
  32   2.0000      -0.699285       -19.0285
  33   2.0000      -0.616098       -16.7649
  34   2.0000      -0.614312       -16.7163
  35   2.0000      -0.611276       -16.6337
  36   2.0000      -0.609776       -16.5928
  37   2.0000      -0.598320       -16.2811
  38   2.0000      -0.592750       -16.1295
  39   2.0000      -0.556784       -15.1509
  40   2.0000      -0.555188       -15.1074
  41   2.0000      -0.555117       -15.1055
  42   2.0000      -0.554010       -15.0754
  43   2.0000      -0.553379       -15.0582
  44   2.0000      -0.552196       -15.0260
  45   2.0000      -0.550325       -14.9751
  46   2.0000      -0.475870       -12.9491
  47   2.0000      -0.471748       -12.8369
  48   2.0000      -0.464075       -12.6281
  49   2.0000      -0.457914       -12.4605
  50   2.0000      -0.453790       -12.3483
  51   2.0000      -0.452972       -12.3260
  52   2.0000      -0.450771       -12.2661
  53   2.0000      -0.450077       -12.2472
  54   2.0000      -0.435396       -11.8477
  55   2.0000      -0.434241       -11.8163
  56   2.0000      -0.431978       -11.7547
  57   2.0000      -0.431086       -11.7305
  58   2.0000      -0.430007       -11.7011
  59   2.0000      -0.393345       -10.7035
  60   2.0000      -0.391123       -10.6430
  61   2.0000      -0.292668        -7.9639
  62   2.0000      -0.288676        -7.8553
  63   2.0000      -0.280548        -7.6341
  64   2.0000      -0.266817        -7.2605
  65   2.0000      -0.257864        -7.0168
  66   0.0000      -0.020369        -0.5543
  67   0.0000       0.007304         0.1988
  68   0.0000       0.043442         1.1821
  69   0.0000       0.052027         1.4157
  70   0.0000       0.054354         1.4790

MULLIKEN ATOMIC CHARGES
-----------------------
   0 Lu:    0.844514
   1 C :   -0.259328
   2 C :   -0.329911
   3 C :   -0.259105
   4 C :   -0.296842
   5 C :   -0.292254
   6 H :    0.235858
   7 H :    0.241529
   8 H :    0.248474
   9 H :    0.244797
  10 H :    0.235510
  11 C :   -0.307364
  12 C :   -0.276363
  13 C :   -0.333256
  14 C :   -0.253877
  15 H :    0.234558
  16 C :   -0.252034
  17 H :    0.236267
  18 H :    0.231993
  19 H :    0.240641
  20 H :    0.247508
  21 C :   -1.071677
  22 H :    0.215879
  23 H :    0.214987
  24 H :    0.213546
  25 C :   -0.923155
  26 H :    0.239691
  27 H :    0.232053
  28 H :    0.251169
  29 H :    0.246193
Sum of atomic charges:    0.0000000

LOEWDIN ATOMIC CHARGES
----------------------
   0 Lu:    0.006775
   1 C :   -0.127546
   2 C :   -0.150561
   3 C :   -0.129914
   4 C :   -0.146768
   5 C :   -0.141701
   6 H :    0.153141
   7 H :    0.155355
   8 H :    0.160765
   9 H :    0.157477
  10 H :    0.152774
  11 C :   -0.151433
  12 C :   -0.137044
  13 C :   -0.154548
  14 C :   -0.128679
  15 H :    0.152256
  16 C :   -0.125328
  17 H :    0.153814
  18 H :    0.151420
  19 H :    0.155751
  20 H :    0.159712
  21 C :   -0.649162
  22 H :    0.131239
  23 H :    0.138788
  24 H :    0.135879
  25 C :   -0.498107
  26 H :    0.153770
  27 H :    0.140080
  28 H :    0.141154
  29 H :    0.140642

  Mayer bond orders larger than 0.100000
B(  0-Lu,  1-C ) :   0.2371 B(  0-Lu,  2-C ) :   0.2859 B(  0-Lu,  3-C ) :   0.2543
B(  0-Lu,  4-C ) :   0.2606 B(  0-Lu,  5-C ) :   0.2640 B(  0-Lu, 11-C ) :   0.2656
B(  0-Lu, 12-C ) :   0.2515 B(  0-Lu, 13-C ) :   0.2876 B(  0-Lu, 14-C ) :   0.2546
B(  0-Lu, 16-C ) :   0.2383 B(  0-Lu, 21-C ) :   0.8189 B(  1-C ,  2-C ) :   1.2792
B(  1-C ,  5-C ) :   1.3073 B(  1-C ,  8-H ) :   0.9126 B(  2-C ,  3-C ) :   1.2836
B(  2-C ,  9-H ) :   0.9127 B(  3-C ,  4-C ) :   1.3010 B(  3-C , 10-H ) :   0.9163
B(  4-C ,  5-C ) :   1.2757 B(  4-C ,  6-H ) :   0.9173 B(  5-C ,  7-H ) :   0.9151
B( 11-C , 12-C ) :   1.2730 B( 11-C , 14-C ) :   1.3028 B( 11-C , 15-H ) :   0.9180
B( 12-C , 16-C ) :   1.3215 B( 12-C , 17-H ) :   0.9160 B( 13-C , 14-C ) :   1.2820
B( 13-C , 16-C ) :   1.2754 B( 13-C , 19-H ) :   0.9152 B( 14-C , 18-H ) :   0.9187
B( 16-C , 20-H ) :   0.9121 B( 21-C , 22-H ) :   0.9104 B( 21-C , 23-H ) :   0.9033
B( 21-C , 24-H ) :   0.9007 B( 25-C , 26-H ) :   0.8900 B( 25-C , 27-H ) :   0.9102
B( 25-C , 28-H ) :   0.9172 B( 25-C , 29-H ) :   0.9158

Dispersion correction           -0.017605904
FINAL SINGLE POINT ENERGY     -1702.393207459496
Dispersion correction            ... done

DIPOLE MOMENT
-------------
                                X             Y             Z
Electronic contribution:     -2.56177     -18.50600      15.02013
Nuclear contribution   :      2.91139      18.99319     -15.31338
                        -----------------------------------------
Total Dipole Moment    :      0.34962       0.48719      -0.29325
                        -----------------------------------------
Magnitude (a.u.)       :      0.66752
Magnitude (Debye)      :      1.69670

Rotational constants in cm-1:     0.028142     0.019691     0.017737
Rotational constants in MHz :   843.678115   590.330652   531.746314

                             ****ORCA TERMINATED NORMALLY****
TOTAL RUN TIME: 0 days 0 hours 8 minutes 20 seconds 534 msec
