                         Program Version 5.0.3 -  RELEASE  -
|  1> ! EnGrad PBEh-3c
|  2> %output
|  3> xyzfile=True
|  4> end
|  5> %scf
|  6> maxiter 250
|  7> end
|  8> %output
|  9> Print[P_Hirshfeld] = 1
| 10> end
| 11> % maxcore
| 12> 4000
| 13> *xyz 0 1
| 14> C   -1.31929278   0.11111790  -0.91481171
| 15> C   -2.29710949  -0.85263676  -1.12014265
| 16> C   -2.14372675  -2.13119058  -0.61291166
| 17> C   -1.01581732  -2.45314709   0.12394575
| 18> C   -0.21583508  -0.23855456  -0.16080511
| 19> C   -0.04633364  -1.49705793   0.38208727
| 20> H   -1.46141570   1.07450091  -1.39048001
| 21> H   -3.17025752  -0.60870596  -1.71240111
| 22> H   -2.90336130  -2.88192116  -0.79809872
| 23> H    0.81663877  -1.79241571   0.96672987
| 24> H   -0.89071066  -3.45635705   0.51128995
| 25> Pd   1.49395394   1.02254463  -0.25903707
| 26> O    3.57875579   1.54099134  -0.66586367
| 27> O    2.79982970  -0.49612601  -0.70330434
| 28> O    0.26949630   2.63142152   0.18186521
| 29> C   -0.24364549   2.71454459   1.28012765
| 30> O    0.11076751   1.90649659   2.22938978
| 31> H   -0.90576175   1.65089600   3.06054591
| 32> C    3.75602277   0.32023372  -0.81675250
| 33> H    4.74290054  -0.08295940  -1.08453438
| 34> H   -0.95508908   3.51831500   1.50317905
| 35> *
| 36>
| 37>                          ****END OF INPUT****

CARTESIAN COORDINATES (ANGSTROEM)
---------------------------------
  C     -1.319293    0.111118   -0.914812
  C     -2.297109   -0.852637   -1.120143
  C     -2.143727   -2.131191   -0.612912
  C     -1.015817   -2.453147    0.123946
  C     -0.215835   -0.238555   -0.160805
  C     -0.046334   -1.497058    0.382087
  H     -1.461416    1.074501   -1.390480
  H     -3.170258   -0.608706   -1.712401
  H     -2.903361   -2.881921   -0.798099
  H      0.816639   -1.792416    0.966730
  H     -0.890711   -3.456357    0.511290
  Pd     1.493954    1.022545   -0.259037
  O      3.578756    1.540991   -0.665864
  O      2.799830   -0.496126   -0.703304
  O      0.269496    2.631422    0.181865
  C     -0.243645    2.714545    1.280128
  O      0.110768    1.906497    2.229390
  H     -0.905762    1.650896    3.060546
  C      3.756023    0.320234   -0.816752
  H      4.742901   -0.082959   -1.084534
  H     -0.955089    3.518315    1.503179

 Total Charge           Charge          ....    0
 Multiplicity           Mult            ....    1
 Number of Electrons    NEL             ....  106
 Basis Dimension        Dim             ....  227

ORBITAL ENERGIES
----------------

  NO   OCC          E(Eh)            E(eV)
   0   2.0000     -19.617791      -533.8272
   1   2.0000     -19.570382      -532.5372
   2   2.0000     -19.488171      -530.3001
   3   2.0000     -19.474173      -529.9192
   4   2.0000     -10.637292      -289.4554
   5   2.0000     -10.548075      -287.0277
   6   2.0000     -10.445329      -284.2318
   7   2.0000     -10.435751      -283.9712
   8   2.0000     -10.434507      -283.9374
   9   2.0000     -10.434245      -283.9302
  10   2.0000     -10.432235      -283.8755
  11   2.0000     -10.430940      -283.8403
  12   2.0000      -3.632376       -98.8420
  13   2.0000      -2.279917       -62.0397
  14   2.0000      -2.275944       -61.9316
  15   2.0000      -2.245951       -61.1154
  16   2.0000      -1.274511       -34.6812
  17   2.0000      -1.185607       -32.2620
  18   2.0000      -1.176251       -32.0074
  19   2.0000      -1.074683       -29.2436
  20   2.0000      -0.943129       -25.6639
  21   2.0000      -0.827136       -22.5075
  22   2.0000      -0.815190       -22.1825
  23   2.0000      -0.743590       -20.2341
  24   2.0000      -0.670477       -18.2446
  25   2.0000      -0.666845       -18.1458
  26   2.0000      -0.656743       -17.8709
  27   2.0000      -0.652986       -17.7686
  28   2.0000      -0.608484       -16.5577
  29   2.0000      -0.577417       -15.7123
  30   2.0000      -0.566736       -15.4217
  31   2.0000      -0.546030       -14.8582
  32   2.0000      -0.516100       -14.0438
  33   2.0000      -0.500045       -13.6069
  34   2.0000      -0.499444       -13.5906
  35   2.0000      -0.488044       -13.2804
  36   2.0000      -0.481474       -13.1016
  37   2.0000      -0.470210       -12.7951
  38   2.0000      -0.441603       -12.0166
  39   2.0000      -0.438584       -11.9345
  40   2.0000      -0.433445       -11.7946
  41   2.0000      -0.413606       -11.2548
  42   2.0000      -0.391104       -10.6425
  43   2.0000      -0.372154       -10.1268
  44   2.0000      -0.364059        -9.9066
  45   2.0000      -0.352998        -9.6056
  46   2.0000      -0.338414        -9.2087
  47   2.0000      -0.316942        -8.6244
  48   2.0000      -0.301231        -8.1969
  49   2.0000      -0.297755        -8.1023
  50   2.0000      -0.283102        -7.7036
  51   2.0000      -0.272739        -7.4216
  52   2.0000      -0.265459        -7.2235
  53   0.0000      -0.079786        -2.1711
  54   0.0000      -0.026819        -0.7298
  55   0.0000      -0.010249        -0.2789
  56   0.0000       0.031149         0.8476
  57   0.0000       0.037165         1.0113

MULLIKEN ATOMIC CHARGES
-----------------------
   0 C :   -0.245900
   1 C :   -0.232026
   2 C :   -0.221102
   3 C :   -0.231971
   4 C :   -0.129224
   5 C :   -0.226529
   6 H :    0.226839
   7 H :    0.210501
   8 H :    0.210575
   9 H :    0.236350
  10 H :    0.212854
  11 Pd:    0.346992
  12 O :   -0.471367
  13 O :   -0.476362
  14 O :   -0.371119
  15 C :    0.387695
  16 O :   -0.439652
  17 H :    0.420195
  18 C :    0.386267
  19 H :    0.178514
  20 H :    0.228472
Sum of atomic charges:   -0.0000000

LOEWDIN ATOMIC CHARGES
----------------------
   0 C :   -0.140085
   1 C :   -0.134837
   2 C :   -0.150443
   3 C :   -0.130354
   4 C :   -0.014440
   5 C :   -0.117885
   6 H :    0.147802
   7 H :    0.130893
   8 H :    0.132302
   9 H :    0.155467
  10 H :    0.132620
  11 Pd:   -0.329459
  12 O :   -0.196733
  13 O :   -0.164616
  14 O :   -0.036394
  15 C :    0.152214
  16 O :   -0.186213
  17 H :    0.380328
  18 C :    0.137177
  19 H :    0.106644
  20 H :    0.126013

  Mayer bond orders larger than 0.100000
B(  0-C ,  1-C ) :   1.4163 B(  0-C ,  4-C ) :   1.3895 B(  0-C ,  6-H ) :   0.9110
B(  1-C ,  2-C ) :   1.4388 B(  1-C ,  7-H ) :   0.9190 B(  2-C ,  3-C ) :   1.4225
B(  2-C ,  8-H ) :   0.9226 B(  3-C ,  5-C ) :   1.4234 B(  3-C , 10-H ) :   0.9187
B(  4-C ,  5-C ) :   1.3999 B(  4-C , 11-Pd) :   0.8609 B(  5-C ,  9-H ) :   0.9104
B( 11-Pd, 12-O ) :   0.3720 B( 11-Pd, 13-O ) :   0.5463 B( 11-Pd, 14-O ) :   0.3704
B( 12-O , 13-O ) :   0.1165 B( 12-O , 18-C ) :   1.5878 B( 13-O , 18-C ) :   1.4395
B( 14-O , 15-C ) :   1.7455 B( 15-C , 16-O ) :   1.2423 B( 15-C , 20-H ) :   0.8698
B( 16-O , 17-H ) :   0.7449 B( 18-C , 19-H ) :   0.8869

Dispersion correction           -0.012997119
FINAL SINGLE POINT ENERGY      -737.055788541287
Dispersion correction            ... done

DIPOLE MOMENT
-------------
                                X             Y             Z
Electronic contribution:     54.51646      39.70607      -9.37828
Nuclear contribution   :    -56.41027     -38.71146      11.37060
                        -----------------------------------------
Total Dipole Moment    :     -1.89380       0.99461       1.99232
                        -----------------------------------------
Magnitude (a.u.)       :      2.92320
Magnitude (Debye)      :      7.43019

Rotational constants in cm-1:     0.030251     0.016329     0.012362
Rotational constants in MHz :   906.916876   489.519976   370.615074

                             ****ORCA TERMINATED NORMALLY****
TOTAL RUN TIME: 0 days 0 hours 4 minutes 15 seconds 733 msec
