                         Program Version 5.0.3 -  RELEASE  -
|  1> ! EnGrad PBEh-3c
|  2> %output
|  3> xyzfile=True
|  4> end
|  5> %scf
|  6> maxiter 250
|  7> end
|  8> %output
|  9> Print[P_Hirshfeld] = 1
| 10> end
| 11> % maxcore
| 12> 4000
| 13> *xyz 0 1
| 14> C   -1.36548798   0.15573803  -0.72269992
| 15> C   -2.17394770  -0.87375189  -1.18785553
| 16> C   -1.90662190  -2.18387733  -0.81786180
| 17> C   -0.91176093  -2.44299933   0.11781026
| 18> C   -0.25677473  -0.12937814   0.06771631
| 19> C   -0.11360829  -1.41426914   0.58297211
| 20> H   -1.58602921   1.16078782  -1.04741386
| 21> H   -2.96561001  -0.65701260  -1.89694445
| 22> H   -2.44598281  -3.00654341  -1.28327481
| 23> H    0.66173848  -1.63789693   1.29206389
| 24> H   -0.70426195  -3.45871851   0.42981501
| 25> Pd   1.33562463   0.97506250  -0.13797579
| 26> O    3.37074304   1.40349715  -0.95851671
| 27> O    2.61299399  -0.59234598  -0.48224113
| 28> O    0.34439116   2.75984835   0.28603851
| 29> C   -0.22185869   2.81198421   1.35014485
| 30> O   -0.03021495   1.91462437   2.28067005
| 31> H   -0.81659870   1.68871825   2.77631184
| 32> C    3.51827188   0.16972019  -0.93158580
| 33> H    4.44725351  -0.29981282  -1.28749347
| 34> H   -0.85613593   3.66741834   1.58815271
| 35> *
| 36>
| 37>                          ****END OF INPUT****

CARTESIAN COORDINATES (ANGSTROEM)
---------------------------------
  C     -1.365488    0.155738   -0.722700
  C     -2.173948   -0.873752   -1.187856
  C     -1.906622   -2.183877   -0.817862
  C     -0.911761   -2.442999    0.117810
  C     -0.256775   -0.129378    0.067716
  C     -0.113608   -1.414269    0.582972
  H     -1.586029    1.160788   -1.047414
  H     -2.965610   -0.657013   -1.896944
  H     -2.445983   -3.006543   -1.283275
  H      0.661738   -1.637897    1.292064
  H     -0.704262   -3.458719    0.429815
  Pd     1.335625    0.975063   -0.137976
  O      3.370743    1.403497   -0.958517
  O      2.612994   -0.592346   -0.482241
  O      0.344391    2.759848    0.286039
  C     -0.221859    2.811984    1.350145
  O     -0.030215    1.914624    2.280670
  H     -0.816599    1.688718    2.776312
  C      3.518272    0.169720   -0.931586
  H      4.447254   -0.299813   -1.287493
  H     -0.856136    3.667418    1.588153

 Total Charge           Charge          ....    0
 Multiplicity           Mult            ....    1
 Number of Electrons    NEL             ....  106
 Basis Dimension        Dim             ....  227

ORBITAL ENERGIES
----------------

  NO   OCC          E(Eh)            E(eV)
   0   2.0000     -19.601204      -533.3759
   1   2.0000     -19.580599      -532.8152
   2   2.0000     -19.485723      -530.2335
   3   2.0000     -19.471247      -529.8396
   4   2.0000     -10.648073      -289.7488
   5   2.0000     -10.546642      -286.9887
   6   2.0000     -10.445804      -284.2448
   7   2.0000     -10.438124      -284.0358
   8   2.0000     -10.436706      -283.9972
   9   2.0000     -10.435413      -283.9620
  10   2.0000     -10.433731      -283.9163
  11   2.0000     -10.430516      -283.8288
  12   2.0000      -3.640512       -99.0634
  13   2.0000      -2.289535       -62.3014
  14   2.0000      -2.284377       -62.1611
  15   2.0000      -2.254110       -61.3374
  16   2.0000      -1.296493       -35.2794
  17   2.0000      -1.210569       -32.9413
  18   2.0000      -1.181031       -32.1375
  19   2.0000      -1.071596       -29.1596
  20   2.0000      -0.943152       -25.6645
  21   2.0000      -0.826836       -22.4993
  22   2.0000      -0.818823       -22.2813
  23   2.0000      -0.787641       -21.4328
  24   2.0000      -0.717820       -19.5329
  25   2.0000      -0.669060       -18.2061
  26   2.0000      -0.659801       -17.9541
  27   2.0000      -0.651982       -17.7413
  28   2.0000      -0.619027       -16.8446
  29   2.0000      -0.590615       -16.0715
  30   2.0000      -0.571109       -15.5407
  31   2.0000      -0.544268       -14.8103
  32   2.0000      -0.515316       -14.0225
  33   2.0000      -0.505878       -13.7656
  34   2.0000      -0.501653       -13.6507
  35   2.0000      -0.500522       -13.6199
  36   2.0000      -0.484937       -13.1958
  37   2.0000      -0.470825       -12.8118
  38   2.0000      -0.452456       -12.3120
  39   2.0000      -0.449174       -12.2226
  40   2.0000      -0.442923       -12.0525
  41   2.0000      -0.421898       -11.4804
  42   2.0000      -0.391388       -10.6502
  43   2.0000      -0.376447       -10.2436
  44   2.0000      -0.370114       -10.0713
  45   2.0000      -0.357073        -9.7165
  46   2.0000      -0.343310        -9.3419
  47   2.0000      -0.326410        -8.8821
  48   2.0000      -0.312272        -8.4974
  49   2.0000      -0.304801        -8.2940
  50   2.0000      -0.284597        -7.7443
  51   2.0000      -0.277793        -7.5591
  52   2.0000      -0.256221        -6.9721
  53   0.0000      -0.039498        -1.0748
  54   0.0000      -0.018316        -0.4984
  55   0.0000       0.029065         0.7909
  56   0.0000       0.033258         0.9050
  57   0.0000       0.050051         1.3620

MULLIKEN ATOMIC CHARGES
-----------------------
   0 C :   -0.245665
   1 C :   -0.219156
   2 C :   -0.233142
   3 C :   -0.218820
   4 C :   -0.153668
   5 C :   -0.226238
   6 H :    0.217282
   7 H :    0.213173
   8 H :    0.212670
   9 H :    0.236269
  10 H :    0.215883
  11 Pd:    0.364458
  12 O :   -0.470212
  13 O :   -0.483322
  14 O :   -0.358338
  15 C :    0.388565
  16 O :   -0.515924
  17 H :    0.478809
  18 C :    0.383146
  19 H :    0.178742
  20 H :    0.235487
Sum of atomic charges:   -0.0000000

LOEWDIN ATOMIC CHARGES
----------------------
   0 C :   -0.136650
   1 C :   -0.134071
   2 C :   -0.146507
   3 C :   -0.129464
   4 C :   -0.021436
   5 C :   -0.110523
   6 H :    0.143230
   7 H :    0.134127
   8 H :    0.133221
   9 H :    0.153862
  10 H :    0.135789
  11 Pd:   -0.315042
  12 O :   -0.206707
  13 O :   -0.172526
  14 O :   -0.027591
  15 C :    0.182073
  16 O :   -0.214365
  17 H :    0.361111
  18 C :    0.135099
  19 H :    0.106102
  20 H :    0.130269

  Mayer bond orders larger than 0.100000
B(  0-C ,  1-C ) :   1.4235 B(  0-C ,  4-C ) :   1.3688 B(  0-C ,  6-H ) :   0.9109
B(  1-C ,  2-C ) :   1.4398 B(  1-C ,  7-H ) :   0.9193 B(  2-C ,  3-C ) :   1.4124
B(  2-C ,  8-H ) :   0.9215 B(  3-C ,  5-C ) :   1.4409 B(  3-C , 10-H ) :   0.9188
B(  4-C ,  5-C ) :   1.3829 B(  4-C , 11-Pd) :   0.9315 B(  5-C ,  9-H ) :   0.9091
B( 11-Pd, 12-O ) :   0.3548 B( 11-Pd, 13-O ) :   0.5421 B( 11-Pd, 14-O ) :   0.3622
B( 12-O , 13-O ) :   0.1168 B( 12-O , 18-C ) :   1.6035 B( 13-O , 18-C ) :   1.4316
B( 14-O , 15-C ) :   1.7895 B( 15-C , 16-O ) :   1.1853 B( 15-C , 20-H ) :   0.8685
B( 16-O , 17-H ) :   0.7244 B( 18-C , 19-H ) :   0.8856

Dispersion correction           -0.013100250
FINAL SINGLE POINT ENERGY      -737.115466839620
Dispersion correction            ... done

DIPOLE MOMENT
-------------
                                X             Y             Z
Electronic contribution:     48.57743      37.68308      -4.90318
Nuclear contribution   :    -50.31811     -36.62552       6.58674
                        -----------------------------------------
Total Dipole Moment    :     -1.74068       1.05756       1.68356
                        -----------------------------------------
Magnitude (a.u.)       :      2.64250
Magnitude (Debye)      :      6.71670

Rotational constants in cm-1:     0.028903     0.018041     0.013117
Rotational constants in MHz :   866.502229   540.854179   393.229687

                             ****ORCA TERMINATED NORMALLY****
TOTAL RUN TIME: 0 days 0 hours 3 minutes 39 seconds 754 msec
