                         Program Version 5.0.3 -  RELEASE  -
|  1> ! EnGrad PBEh-3c
|  2> %output
|  3> xyzfile=True
|  4> end
|  5> %scf
|  6> maxiter 250
|  7> end
|  8> %output
|  9> Print[P_Hirshfeld] = 1
| 10> end
| 11> % maxcore
| 12> 4000
| 13> *xyz 0 1
| 14> C   -1.35517820   0.15059897  -0.74722016
| 15> C   -2.19450510  -0.86892419  -1.17610768
| 16> C   -1.94822008  -2.18302038  -0.78787194
| 17> C   -0.92900994  -2.44059616   0.12728742
| 18> C   -0.23977039  -0.13947389   0.02977172
| 19> C   -0.10433036  -1.41795661   0.55669724
| 20> H   -1.56219236   1.15377382  -1.08192918
| 21> H   -2.99603120  -0.65427348  -1.88034423
| 22> H   -2.51514412  -3.00704667  -1.23022041
| 23> H    0.68185054  -1.64204167   1.25155069
| 24> H   -0.72787295  -3.46058398   0.44206596
| 25> Pd   1.35482468   0.96960074  -0.14690137
| 26> O    3.40386135   1.42617848  -0.92642538
| 27> O    2.63231293  -0.57738181  -0.50833996
| 28> O    0.34415610   2.75240709   0.28744439
| 29> C   -0.22419540   2.80837049   1.34593779
| 30> O   -0.03345135   1.89681260   2.27344401
| 31> H   -0.81192673   1.70178481   2.79304848
| 32> C    3.54898276   0.19186563  -0.92112065
| 33> H    4.48753879  -0.27396609  -1.26383701
| 34> H   -0.87364758   3.63746340   1.58492449
| 35> *
| 36>
| 37>                          ****END OF INPUT****

CARTESIAN COORDINATES (ANGSTROEM)
---------------------------------
  C     -1.355178    0.150599   -0.747220
  C     -2.194505   -0.868924   -1.176108
  C     -1.948220   -2.183020   -0.787872
  C     -0.929010   -2.440596    0.127287
  C     -0.239770   -0.139474    0.029772
  C     -0.104330   -1.417957    0.556697
  H     -1.562192    1.153774   -1.081929
  H     -2.996031   -0.654273   -1.880344
  H     -2.515144   -3.007047   -1.230220
  H      0.681851   -1.642042    1.251551
  H     -0.727873   -3.460584    0.442066
  Pd     1.354825    0.969601   -0.146901
  O      3.403861    1.426178   -0.926425
  O      2.632313   -0.577382   -0.508340
  O      0.344156    2.752407    0.287444
  C     -0.224195    2.808370    1.345938
  O     -0.033451    1.896813    2.273444
  H     -0.811927    1.701785    2.793048
  C      3.548983    0.191866   -0.921121
  H      4.487539   -0.273966   -1.263837
  H     -0.873648    3.637463    1.584924

 Total Charge           Charge          ....    0
 Multiplicity           Mult            ....    1
 Number of Electrons    NEL             ....  106
 Basis Dimension        Dim             ....  227

ORBITAL ENERGIES
----------------

  NO   OCC          E(Eh)            E(eV)
   0   2.0000     -19.600131      -533.3467
   1   2.0000     -19.580049      -532.8002
   2   2.0000     -19.487105      -530.2711
   3   2.0000     -19.471843      -529.8558
   4   2.0000     -10.647016      -289.7200
   5   2.0000     -10.547668      -287.0166
   6   2.0000     -10.445135      -284.2266
   7   2.0000     -10.438637      -284.0498
   8   2.0000     -10.436014      -283.9784
   9   2.0000     -10.435815      -283.9730
  10   2.0000     -10.434810      -283.9456
  11   2.0000     -10.429624      -283.8045
  12   2.0000      -3.640413       -99.0607
  13   2.0000      -2.289415       -62.2981
  14   2.0000      -2.284354       -62.1604
  15   2.0000      -2.253978       -61.3339
  16   2.0000      -1.294944       -35.2372
  17   2.0000      -1.209880       -32.9225
  18   2.0000      -1.182188       -32.1690
  19   2.0000      -1.072710       -29.1899
  20   2.0000      -0.942259       -25.6402
  21   2.0000      -0.826187       -22.4817
  22   2.0000      -0.817999       -22.2589
  23   2.0000      -0.786147       -21.3921
  24   2.0000      -0.719521       -19.5792
  25   2.0000      -0.668369       -18.1873
  26   2.0000      -0.659116       -17.9355
  27   2.0000      -0.652377       -17.7521
  28   2.0000      -0.618508       -16.8305
  29   2.0000      -0.588162       -16.0047
  30   2.0000      -0.570138       -15.5142
  31   2.0000      -0.545427       -14.8418
  32   2.0000      -0.515962       -14.0401
  33   2.0000      -0.506991       -13.7959
  34   2.0000      -0.501330       -13.6419
  35   2.0000      -0.500349       -13.6152
  36   2.0000      -0.486053       -13.2262
  37   2.0000      -0.470048       -12.7907
  38   2.0000      -0.451689       -12.2911
  39   2.0000      -0.448472       -12.2035
  40   2.0000      -0.442955       -12.0534
  41   2.0000      -0.420670       -11.4470
  42   2.0000      -0.389815       -10.6074
  43   2.0000      -0.376852       -10.2547
  44   2.0000      -0.371595       -10.1116
  45   2.0000      -0.357567        -9.7299
  46   2.0000      -0.343650        -9.3512
  47   2.0000      -0.326658        -8.8888
  48   2.0000      -0.312858        -8.5133
  49   2.0000      -0.304595        -8.2885
  50   2.0000      -0.284294        -7.7360
  51   2.0000      -0.277599        -7.5538
  52   2.0000      -0.256856        -6.9894
  53   0.0000      -0.038519        -1.0482
  54   0.0000      -0.016518        -0.4495
  55   0.0000       0.029367         0.7991
  56   0.0000       0.033300         0.9061
  57   0.0000       0.050577         1.3763

MULLIKEN ATOMIC CHARGES
-----------------------
   0 C :   -0.248106
   1 C :   -0.221255
   2 C :   -0.233727
   3 C :   -0.221014
   4 C :   -0.142066
   5 C :   -0.225783
   6 H :    0.216732
   7 H :    0.212435
   8 H :    0.212667
   9 H :    0.235656
  10 H :    0.214996
  11 Pd:    0.364597
  12 O :   -0.469336
  13 O :   -0.483571
  14 O :   -0.356428
  15 C :    0.389530
  16 O :   -0.519592
  17 H :    0.475875
  18 C :    0.383086
  19 H :    0.179170
  20 H :    0.236134
Sum of atomic charges:    0.0000000

LOEWDIN ATOMIC CHARGES
----------------------
   0 C :   -0.137445
   1 C :   -0.134248
   2 C :   -0.147463
   3 C :   -0.129708
   4 C :   -0.018530
   5 C :   -0.111452
   6 H :    0.143232
   7 H :    0.133829
   8 H :    0.133317
   9 H :    0.154108
  10 H :    0.135410
  11 Pd:   -0.313239
  12 O :   -0.206604
  13 O :   -0.169669
  14 O :   -0.026592
  15 C :    0.183612
  16 O :   -0.219115
  17 H :    0.358398
  18 C :    0.135817
  19 H :    0.106495
  20 H :    0.129849

  Mayer bond orders larger than 0.100000
B(  0-C ,  1-C ) :   1.4234 B(  0-C ,  4-C ) :   1.3709 B(  0-C ,  6-H ) :   0.9116
B(  1-C ,  2-C ) :   1.4373 B(  1-C ,  7-H ) :   0.9197 B(  2-C ,  3-C ) :   1.4127
B(  2-C ,  8-H ) :   0.9215 B(  3-C ,  5-C ) :   1.4379 B(  3-C , 10-H ) :   0.9192
B(  4-C ,  5-C ) :   1.3837 B(  4-C , 11-Pd) :   0.9306 B(  5-C ,  9-H ) :   0.9097
B( 11-Pd, 12-O ) :   0.3523 B( 11-Pd, 13-O ) :   0.5473 B( 11-Pd, 14-O ) :   0.3557
B( 12-O , 13-O ) :   0.1167 B( 12-O , 18-C ) :   1.6065 B( 13-O , 18-C ) :   1.4267
B( 14-O , 15-C ) :   1.7979 B( 15-C , 16-O ) :   1.1804 B( 15-C , 20-H ) :   0.8689
B( 16-O , 17-H ) :   0.7280 B( 18-C , 19-H ) :   0.8853

Dispersion correction           -0.013061986
FINAL SINGLE POINT ENERGY      -737.117973669672
Dispersion correction            ... done

DIPOLE MOMENT
-------------
                                X             Y             Z
Electronic contribution:     49.34925      37.40744      -5.24536
Nuclear contribution   :    -51.08381     -36.32691       6.94695
                        -----------------------------------------
Total Dipole Moment    :     -1.73455       1.08053       1.70158
                        -----------------------------------------
Magnitude (a.u.)       :      2.65925
Magnitude (Debye)      :      6.75927

Rotational constants in cm-1:     0.029091     0.017826     0.013016
Rotational constants in MHz :   872.120874   534.423676   390.201714

                             ****ORCA TERMINATED NORMALLY****
TOTAL RUN TIME: 0 days 0 hours 3 minutes 36 seconds 776 msec
