                         Program Version 5.0.3 -  RELEASE  -
|  1> ! EnGrad PBEh-3c
|  2> %output
|  3> xyzfile=True
|  4> end
|  5> %scf
|  6> maxiter 250
|  7> end
|  8> %output
|  9> Print[P_Hirshfeld] = 1
| 10> end
| 11> % maxcore
| 12> 4000
| 13> *xyz 0 1
| 14> C   -1.35799213   0.15200162  -0.74052766
| 15> C   -2.18889421  -0.87024185  -1.17931411
| 16> C   -1.93686637  -2.18325428  -0.79605730
| 17> C   -0.92430203  -2.44125208   0.12470075
| 18> C   -0.24441151  -0.13671838   0.04012823
| 19> C   -0.10686266  -1.41695016   0.56386865
| 20> H   -1.56869834   1.15568821  -1.07250864
| 21> H   -2.98772811  -0.65502109  -1.88487506
| 22> H   -2.49626738  -3.00690931  -1.24470096
| 23> H    0.67636120  -1.64091041   1.26260827
| 24> H   -0.72142862  -3.46007483   0.43872221
| 25> Pd   1.34958426   0.97109146  -0.14446525
| 26> O    3.39482212   1.41998789  -0.93518431
| 27> O    2.62704006  -0.58146609  -0.50121661
| 28> O    0.34422026   2.75443809   0.28706067
| 29> C   -0.22355763   2.80935681   1.34708606
| 30> O   -0.03256801   1.90167410   2.27541627
| 31> H   -0.81320189   1.69821845   2.78848042
| 32> C    3.54060060   0.18582130  -0.92397698
| 33> H    4.47654341  -0.28102064  -1.27029375
| 34> H   -0.86886799   3.64563924   1.58580559
| 35> *
| 36>
| 37>                          ****END OF INPUT****

CARTESIAN COORDINATES (ANGSTROEM)
---------------------------------
  C     -1.357992    0.152002   -0.740528
  C     -2.188894   -0.870242   -1.179314
  C     -1.936866   -2.183254   -0.796057
  C     -0.924302   -2.441252    0.124701
  C     -0.244412   -0.136718    0.040128
  C     -0.106863   -1.416950    0.563869
  H     -1.568698    1.155688   -1.072509
  H     -2.987728   -0.655021   -1.884875
  H     -2.496267   -3.006909   -1.244701
  H      0.676361   -1.640910    1.262608
  H     -0.721429   -3.460075    0.438722
  Pd     1.349584    0.971091   -0.144465
  O      3.394822    1.419988   -0.935184
  O      2.627040   -0.581466   -0.501217
  O      0.344220    2.754438    0.287061
  C     -0.223558    2.809357    1.347086
  O     -0.032568    1.901674    2.275416
  H     -0.813202    1.698218    2.788480
  C      3.540601    0.185821   -0.923977
  H      4.476543   -0.281021   -1.270294
  H     -0.868868    3.645639    1.585806

 Total Charge           Charge          ....    0
 Multiplicity           Mult            ....    1
 Number of Electrons    NEL             ....  106
 Basis Dimension        Dim             ....  227

ORBITAL ENERGIES
----------------

  NO   OCC          E(Eh)            E(eV)
   0   2.0000     -19.600423      -533.3546
   1   2.0000     -19.580193      -532.8041
   2   2.0000     -19.486717      -530.2605
   3   2.0000     -19.471656      -529.8507
   4   2.0000     -10.647301      -289.7278
   5   2.0000     -10.547360      -287.0083
   6   2.0000     -10.445301      -284.2311
   7   2.0000     -10.438461      -284.0450
   8   2.0000     -10.436172      -283.9827
   9   2.0000     -10.435670      -283.9690
  10   2.0000     -10.434479      -283.9366
  11   2.0000     -10.429837      -283.8103
  12   2.0000      -3.640429       -99.0611
  13   2.0000      -2.289437       -62.2987
  14   2.0000      -2.284348       -62.1603
  15   2.0000      -2.254004       -61.3346
  16   2.0000      -1.295366       -35.2487
  17   2.0000      -1.210100       -32.9285
  18   2.0000      -1.181915       -32.1616
  19   2.0000      -1.072423       -29.1821
  20   2.0000      -0.942537       -25.6477
  21   2.0000      -0.826403       -22.4876
  22   2.0000      -0.818219       -22.2649
  23   2.0000      -0.786581       -21.4039
  24   2.0000      -0.719112       -19.5680
  25   2.0000      -0.668551       -18.1922
  26   2.0000      -0.659322       -17.9411
  27   2.0000      -0.652273       -17.7493
  28   2.0000      -0.618644       -16.8341
  29   2.0000      -0.588829       -16.0228
  30   2.0000      -0.570423       -15.5220
  31   2.0000      -0.545118       -14.8334
  32   2.0000      -0.515787       -14.0353
  33   2.0000      -0.506638       -13.7863
  34   2.0000      -0.501440       -13.6449
  35   2.0000      -0.500446       -13.6178
  36   2.0000      -0.485771       -13.2185
  37   2.0000      -0.470293       -12.7973
  38   2.0000      -0.451892       -12.2966
  39   2.0000      -0.448688       -12.2094
  40   2.0000      -0.442934       -12.0529
  41   2.0000      -0.421024       -11.4566
  42   2.0000      -0.390242       -10.6190
  43   2.0000      -0.376739       -10.2516
  44   2.0000      -0.371181       -10.1003
  45   2.0000      -0.357428        -9.7261
  46   2.0000      -0.343555        -9.3486
  47   2.0000      -0.326578        -8.8867
  48   2.0000      -0.312685        -8.5086
  49   2.0000      -0.304653        -8.2900
  50   2.0000      -0.284392        -7.7387
  51   2.0000      -0.277661        -7.5555
  52   2.0000      -0.256671        -6.9844
  53   0.0000      -0.038761        -1.0547
  54   0.0000      -0.016982        -0.4621
  55   0.0000       0.029313         0.7976
  56   0.0000       0.033310         0.9064
  57   0.0000       0.050455         1.3729

MULLIKEN ATOMIC CHARGES
-----------------------
   0 C :   -0.247417
   1 C :   -0.220640
   2 C :   -0.233607
   3 C :   -0.220377
   4 C :   -0.145212
   5 C :   -0.225918
   6 H :    0.216876
   7 H :    0.212628
   8 H :    0.212658
   9 H :    0.235816
  10 H :    0.215234
  11 Pd:    0.364506
  12 O :   -0.469593
  13 O :   -0.483439
  14 O :   -0.356970
  15 C :    0.389286
  16 O :   -0.518597
  17 H :    0.476669
  18 C :    0.383089
  19 H :    0.179031
  20 H :    0.235978
Sum of atomic charges:    0.0000000

LOEWDIN ATOMIC CHARGES
----------------------
   0 C :   -0.137237
   1 C :   -0.134200
   2 C :   -0.147199
   3 C :   -0.129646
   4 C :   -0.019282
   5 C :   -0.111208
   6 H :    0.143227
   7 H :    0.133909
   8 H :    0.133276
   9 H :    0.154036
  10 H :    0.135513
  11 Pd:   -0.313741
  12 O :   -0.206615
  13 O :   -0.170368
  14 O :   -0.026874
  15 C :    0.183213
  16 O :   -0.217790
  17 H :    0.359101
  18 C :    0.135541
  19 H :    0.106374
  20 H :    0.129970

  Mayer bond orders larger than 0.100000
B(  0-C ,  1-C ) :   1.4235 B(  0-C ,  4-C ) :   1.3703 B(  0-C ,  6-H ) :   0.9114
B(  1-C ,  2-C ) :   1.4380 B(  1-C ,  7-H ) :   0.9196 B(  2-C ,  3-C ) :   1.4126
B(  2-C ,  8-H ) :   0.9215 B(  3-C ,  5-C ) :   1.4388 B(  3-C , 10-H ) :   0.9191
B(  4-C ,  5-C ) :   1.3835 B(  4-C , 11-Pd) :   0.9309 B(  5-C ,  9-H ) :   0.9095
B( 11-Pd, 12-O ) :   0.3530 B( 11-Pd, 13-O ) :   0.5459 B( 11-Pd, 14-O ) :   0.3575
B( 12-O , 13-O ) :   0.1167 B( 12-O , 18-C ) :   1.6056 B( 13-O , 18-C ) :   1.4282
B( 14-O , 15-C ) :   1.7956 B( 15-C , 16-O ) :   1.1817 B( 15-C , 20-H ) :   0.8688
B( 16-O , 17-H ) :   0.7270 B( 18-C , 19-H ) :   0.8854

Dispersion correction           -0.013072485
FINAL SINGLE POINT ENERGY      -737.117382010885
Dispersion correction            ... done

DIPOLE MOMENT
-------------
                                X             Y             Z
Electronic contribution:     49.13836      37.48276      -5.15173
Nuclear contribution   :    -50.87482     -36.40841       6.84863
                        -----------------------------------------
Total Dipole Moment    :     -1.73646       1.07434       1.69690
                        -----------------------------------------
Magnitude (a.u.)       :      2.65499
Magnitude (Debye)      :      6.74845

Rotational constants in cm-1:     0.029039     0.017885     0.013043
Rotational constants in MHz :   870.581982   536.191344   391.033641

                             ****ORCA TERMINATED NORMALLY****
TOTAL RUN TIME: 0 days 0 hours 3 minutes 34 seconds 849 msec
