                         Program Version 5.0.3 -  RELEASE  -
|  1> ! EnGrad PBEh-3c
|  2> %output
|  3> xyzfile=True
|  4> end
|  5> %scf
|  6> maxiter 250
|  7> end
|  8> %output
|  9> Print[P_Hirshfeld] = 1
| 10> end
| 11> % maxcore
| 12> 4000
| 13> *xyz 0 1
| 14> C   -1.35081461   0.12720196  -0.81241103
| 15> C   -2.25186363  -0.88463572  -1.15113956
| 16> C   -2.04441937  -2.17396490  -0.72048552
| 17> C   -0.99337692  -2.44881157   0.13079418
| 18> C   -0.20023247  -0.16105590  -0.06055522
| 19> C   -0.09349774  -1.45064842   0.49048383
| 20> H   -1.50788536   1.13995666  -1.19086192
| 21> H   -3.05451738  -0.64415030  -1.81344315
| 22> H   -2.67864391  -2.96810334  -1.06237345
| 23> H    0.74767096  -1.67332276   1.15083738
| 24> H   -0.78809009  -3.44503446   0.46030233
| 25> Pd   1.39374089   0.96815020  -0.18040665
| 26> O    3.49182032   1.47799193  -0.83740901
| 27> O    2.69419818  -0.53883066  -0.58273572
| 28> O    0.33875980   2.69693798   0.27867600
| 29> C   -0.22404190   2.75582880   1.35583857
| 30> O   -0.01127385   1.87369629   2.26940197
| 31> H   -0.79258995   1.71327103   2.80686731
| 32> C    3.63982185   0.24914037  -0.88122080
| 33> H    4.58877740  -0.19787698  -1.19532442
| 34> H   -0.94596135   3.61648088   1.56454960
| 35> *
| 36>
| 37>                          ****END OF INPUT****

CARTESIAN COORDINATES (ANGSTROEM)
---------------------------------
  C     -1.350815    0.127202   -0.812411
  C     -2.251864   -0.884636   -1.151140
  C     -2.044419   -2.173965   -0.720486
  C     -0.993377   -2.448812    0.130794
  C     -0.200232   -0.161056   -0.060555
  C     -0.093498   -1.450648    0.490484
  H     -1.507885    1.139957   -1.190862
  H     -3.054517   -0.644150   -1.813443
  H     -2.678644   -2.968103   -1.062373
  H      0.747671   -1.673323    1.150837
  H     -0.788090   -3.445034    0.460302
  Pd     1.393741    0.968150   -0.180407
  O      3.491820    1.477992   -0.837409
  O      2.694198   -0.538831   -0.582736
  O      0.338760    2.696938    0.278676
  C     -0.224042    2.755829    1.355839
  O     -0.011274    1.873696    2.269402
  H     -0.792590    1.713271    2.806867
  C      3.639822    0.249140   -0.881221
  H      4.588777   -0.197877   -1.195324
  H     -0.945961    3.616481    1.564550

 Total Charge           Charge          ....    0
 Multiplicity           Mult            ....    1
 Number of Electrons    NEL             ....  106
 Basis Dimension        Dim             ....  227

ORBITAL ENERGIES
----------------

  NO   OCC          E(Eh)            E(eV)
   0   2.0000     -19.610531      -533.6297
   1   2.0000     -19.576846      -532.7131
   2   2.0000     -19.486600      -530.2573
   3   2.0000     -19.471285      -529.8406
   4   2.0000     -10.652737      -289.8757
   5   2.0000     -10.546245      -286.9779
   6   2.0000     -10.446939      -284.2757
   7   2.0000     -10.437678      -284.0236
   8   2.0000     -10.435233      -283.9571
   9   2.0000     -10.433436      -283.9082
  10   2.0000     -10.432669      -283.8874
  11   2.0000     -10.430581      -283.8305
  12   2.0000      -3.641315       -99.0852
  13   2.0000      -2.289847       -62.3099
  14   2.0000      -2.285531       -62.1925
  15   2.0000      -2.254537       -61.3491
  16   2.0000      -1.304804       -35.5055
  17   2.0000      -1.208643       -32.8889
  18   2.0000      -1.182837       -32.1866
  19   2.0000      -1.072988       -29.1975
  20   2.0000      -0.940154       -25.5829
  21   2.0000      -0.822870       -22.3914
  22   2.0000      -0.818592       -22.2750
  23   2.0000      -0.786536       -21.4027
  24   2.0000      -0.715592       -19.4722
  25   2.0000      -0.667676       -18.1684
  26   2.0000      -0.658660       -17.9230
  27   2.0000      -0.653351       -17.7786
  28   2.0000      -0.618341       -16.8259
  29   2.0000      -0.592853       -16.1324
  30   2.0000      -0.571227       -15.5439
  31   2.0000      -0.545673       -14.8485
  32   2.0000      -0.515573       -14.0295
  33   2.0000      -0.509530       -13.8650
  34   2.0000      -0.501156       -13.6372
  35   2.0000      -0.498732       -13.5712
  36   2.0000      -0.486357       -13.2344
  37   2.0000      -0.467220       -12.7137
  38   2.0000      -0.452527       -12.3139
  39   2.0000      -0.447665       -12.1816
  40   2.0000      -0.444185       -12.0869
  41   2.0000      -0.416257       -11.3269
  42   2.0000      -0.388609       -10.5746
  43   2.0000      -0.377117       -10.2619
  44   2.0000      -0.372451       -10.1349
  45   2.0000      -0.356740        -9.7074
  46   2.0000      -0.344819        -9.3830
  47   2.0000      -0.326176        -8.8757
  48   2.0000      -0.314028        -8.5451
  49   2.0000      -0.304076        -8.2743
  50   2.0000      -0.283159        -7.7051
  51   2.0000      -0.276862        -7.5338
  52   2.0000      -0.259754        -7.0683
  53   0.0000      -0.037644        -1.0244
  54   0.0000      -0.013912        -0.3786
  55   0.0000       0.029194         0.7944
  56   0.0000       0.032494         0.8842
  57   0.0000       0.049422         1.3448

MULLIKEN ATOMIC CHARGES
-----------------------
   0 C :   -0.267503
   1 C :   -0.214277
   2 C :   -0.228696
   3 C :   -0.216193
   4 C :   -0.127197
   5 C :   -0.241639
   6 H :    0.217159
   7 H :    0.213119
   8 H :    0.212349
   9 H :    0.233391
  10 H :    0.215842
  11 Pd:    0.364583
  12 O :   -0.466015
  13 O :   -0.486281
  14 O :   -0.369882
  15 C :    0.379847
  16 O :   -0.489192
  17 H :    0.478940
  18 C :    0.380699
  19 H :    0.179340
  20 H :    0.231607
Sum of atomic charges:    0.0000000

LOEWDIN ATOMIC CHARGES
----------------------
   0 C :   -0.136872
   1 C :   -0.136273
   2 C :   -0.147540
   3 C :   -0.132683
   4 C :   -0.018684
   5 C :   -0.111416
   6 H :    0.143201
   7 H :    0.133728
   8 H :    0.133330
   9 H :    0.153988
  10 H :    0.135427
  11 Pd:   -0.316564
  12 O :   -0.205573
  13 O :   -0.169738
  14 O :   -0.040323
  15 C :    0.174292
  16 O :   -0.191923
  17 H :    0.362422
  18 C :    0.132813
  19 H :    0.106226
  20 H :    0.132161

  Mayer bond orders larger than 0.100000
B(  0-C ,  1-C ) :   1.4170 B(  0-C ,  4-C ) :   1.3793 B(  0-C ,  6-H ) :   0.9124
B(  1-C ,  2-C ) :   1.4408 B(  1-C ,  7-H ) :   0.9199 B(  2-C ,  3-C ) :   1.4141
B(  2-C ,  8-H ) :   0.9219 B(  3-C ,  5-C ) :   1.4339 B(  3-C , 10-H ) :   0.9194
B(  4-C ,  5-C ) :   1.3780 B(  4-C , 11-Pd) :   0.9273 B(  5-C ,  9-H ) :   0.9109
B( 11-Pd, 12-O ) :   0.3459 B( 11-Pd, 13-O ) :   0.5529 B( 11-Pd, 14-O ) :   0.3668
B( 12-O , 13-O ) :   0.1164 B( 12-O , 18-C ) :   1.6190 B( 13-O , 18-C ) :   1.4202
B( 14-O , 15-C ) :   1.7638 B( 15-C , 16-O ) :   1.2121 B( 15-C , 20-H ) :   0.8649
B( 16-O , 17-H ) :   0.7264 B( 18-C , 19-H ) :   0.8861

Dispersion correction           -0.012968531
FINAL SINGLE POINT ENERGY      -737.121223489256
Dispersion correction            ... done

DIPOLE MOMENT
-------------
                                X             Y             Z
Electronic contribution:     50.75422      37.44125      -6.50859
Nuclear contribution   :    -52.52441     -36.34979       8.34016
                        -----------------------------------------
Total Dipole Moment    :     -1.77018       1.09146       1.83156
                        -----------------------------------------
Magnitude (a.u.)       :      2.77119
Magnitude (Debye)      :      7.04380

Rotational constants in cm-1:     0.029643     0.017186     0.012730
Rotational constants in MHz :   888.682911   515.217898   381.643371

                             ****ORCA TERMINATED NORMALLY****
TOTAL RUN TIME: 0 days 0 hours 3 minutes 55 seconds 941 msec
