                         Program Version 5.0.3 -  RELEASE  -
|  1> ! EnGrad PBEh-3c
|  2> %output
|  3> xyzfile=True
|  4> end
|  5> %scf
|  6> maxiter 250
|  7> end
|  8> %output
|  9> Print[P_Hirshfeld] = 1
| 10> end
| 11> % maxcore
| 12> 4000
| 13> *xyz 0 1
| 14> C   -1.35045709   0.13329744  -0.79186592
| 15> C   -2.23791962  -0.88823412  -1.15715017
| 16> C   -2.02132451  -2.18366073  -0.74333049
| 17> C   -0.98217366  -2.44765553   0.12748049
| 18> C   -0.20779361  -0.15014282  -0.03357461
| 19> C   -0.09808576  -1.43651830   0.51087232
| 20> H   -1.52116524   1.15372078  -1.14994897
| 21> H   -3.03618276  -0.64746113  -1.83989260
| 22> H   -2.62085861  -2.98180930  -1.12140792
| 23> H    0.73314821  -1.65495819   1.19001571
| 24> H   -0.76625220  -3.45206486   0.45783244
| 25> Pd   1.39083344   0.96791355  -0.16374903
| 26> O    3.46048803   1.46021780  -0.87011092
| 27> O    2.66915181  -0.54959289  -0.55851533
| 28> O    0.34268196   2.72252932   0.28060450
| 29> C   -0.21030139   2.77760390   1.34721217
| 30> O   -0.02346446   1.87157595   2.26447857
| 31> H   -0.80444052   1.71582668   2.80970807
| 32> C    3.60890011   0.22999686  -0.89415546
| 33> H    4.55278717  -0.22465170  -1.22040224
| 34> H   -0.93142589   3.62142222   1.58006184
| 35> *
| 36>
| 37>                          ****END OF INPUT****

CARTESIAN COORDINATES (ANGSTROEM)
---------------------------------
  C     -1.350457    0.133297   -0.791866
  C     -2.237920   -0.888234   -1.157150
  C     -2.021325   -2.183661   -0.743330
  C     -0.982174   -2.447656    0.127480
  C     -0.207794   -0.150143   -0.033575
  C     -0.098086   -1.436518    0.510872
  H     -1.521165    1.153721   -1.149949
  H     -3.036183   -0.647461   -1.839893
  H     -2.620859   -2.981809   -1.121408
  H      0.733148   -1.654958    1.190016
  H     -0.766252   -3.452065    0.457832
  Pd     1.390833    0.967914   -0.163749
  O      3.460488    1.460218   -0.870111
  O      2.669152   -0.549593   -0.558515
  O      0.342682    2.722529    0.280604
  C     -0.210301    2.777604    1.347212
  O     -0.023464    1.871576    2.264479
  H     -0.804441    1.715827    2.809708
  C      3.608900    0.229997   -0.894155
  H      4.552787   -0.224652   -1.220402
  H     -0.931426    3.621422    1.580062

 Total Charge           Charge          ....    0
 Multiplicity           Mult            ....    1
 Number of Electrons    NEL             ....  106
 Basis Dimension        Dim             ....  227

ORBITAL ENERGIES
----------------

  NO   OCC          E(Eh)            E(eV)
   0   2.0000     -19.605211      -533.4849
   1   2.0000     -19.578968      -532.7708
   2   2.0000     -19.488521      -530.3096
   3   2.0000     -19.473107      -529.8902
   4   2.0000     -10.650868      -289.8248
   5   2.0000     -10.548227      -287.0318
   6   2.0000     -10.445693      -284.2418
   7   2.0000     -10.438086      -284.0348
   8   2.0000     -10.436675      -283.9964
   9   2.0000     -10.434664      -283.9416
  10   2.0000     -10.432744      -283.8894
  11   2.0000     -10.430393      -283.8254
  12   2.0000      -3.641604       -99.0931
  13   2.0000      -2.290321       -62.3228
  14   2.0000      -2.285840       -62.2009
  15   2.0000      -2.254882       -61.3585
  16   2.0000      -1.299004       -35.3477
  17   2.0000      -1.211686       -32.9716
  18   2.0000      -1.185127       -32.2489
  19   2.0000      -1.074826       -29.2475
  20   2.0000      -0.939384       -25.5619
  21   2.0000      -0.820628       -22.3304
  22   2.0000      -0.819472       -22.2990
  23   2.0000      -0.782394       -21.2900
  24   2.0000      -0.713808       -19.4237
  25   2.0000      -0.667173       -18.1547
  26   2.0000      -0.658221       -17.9111
  27   2.0000      -0.653836       -17.7918
  28   2.0000      -0.618676       -16.8350
  29   2.0000      -0.589520       -16.0417
  30   2.0000      -0.570209       -15.5162
  31   2.0000      -0.547613       -14.9013
  32   2.0000      -0.517659       -14.0862
  33   2.0000      -0.509145       -13.8545
  34   2.0000      -0.499842       -13.6014
  35   2.0000      -0.498372       -13.5614
  36   2.0000      -0.488362       -13.2890
  37   2.0000      -0.464556       -12.6412
  38   2.0000      -0.451546       -12.2872
  39   2.0000      -0.448049       -12.1920
  40   2.0000      -0.445406       -12.1201
  41   2.0000      -0.416663       -11.3380
  42   2.0000      -0.388252       -10.5649
  43   2.0000      -0.378149       -10.2900
  44   2.0000      -0.373601       -10.1662
  45   2.0000      -0.358774        -9.7628
  46   2.0000      -0.345229        -9.3942
  47   2.0000      -0.327234        -8.9045
  48   2.0000      -0.314432        -8.5561
  49   2.0000      -0.304984        -8.2990
  50   2.0000      -0.282628        -7.6907
  51   2.0000      -0.275818        -7.5054
  52   2.0000      -0.259520        -7.0619
  53   0.0000      -0.035959        -0.9785
  54   0.0000      -0.013783        -0.3751
  55   0.0000       0.028758         0.7826
  56   0.0000       0.033080         0.9002
  57   0.0000       0.049858         1.3567

MULLIKEN ATOMIC CHARGES
-----------------------
   0 C :   -0.264901
   1 C :   -0.218875
   2 C :   -0.225128
   3 C :   -0.220206
   4 C :   -0.124234
   5 C :   -0.240167
   6 H :    0.215140
   7 H :    0.212035
   8 H :    0.214193
   9 H :    0.233088
  10 H :    0.214580
  11 Pd:    0.364517
  12 O :   -0.466559
  13 O :   -0.484819
  14 O :   -0.356535
  15 C :    0.384469
  16 O :   -0.505334
  17 H :    0.477232
  18 C :    0.382897
  19 H :    0.180533
  20 H :    0.228075
Sum of atomic charges:   -0.0000000

LOEWDIN ATOMIC CHARGES
----------------------
   0 C :   -0.136691
   1 C :   -0.135278
   2 C :   -0.149101
   3 C :   -0.131588
   4 C :   -0.020468
   5 C :   -0.111153
   6 H :    0.142564
   7 H :    0.133660
   8 H :    0.133895
   9 H :    0.154005
  10 H :    0.135260
  11 Pd:   -0.316948
  12 O :   -0.203365
  13 O :   -0.166540
  14 O :   -0.029243
  15 C :    0.175510
  16 O :   -0.207525
  17 H :    0.361272
  18 C :    0.135155
  19 H :    0.107175
  20 H :    0.129405

  Mayer bond orders larger than 0.100000
B(  0-C ,  1-C ) :   1.4167 B(  0-C ,  4-C ) :   1.3778 B(  0-C ,  6-H ) :   0.9128
B(  1-C ,  2-C ) :   1.4393 B(  1-C ,  7-H ) :   0.9203 B(  2-C ,  3-C ) :   1.4145
B(  2-C ,  8-H ) :   0.9212 B(  3-C ,  5-C ) :   1.4319 B(  3-C , 10-H ) :   0.9198
B(  4-C ,  5-C ) :   1.3798 B(  4-C , 11-Pd) :   0.9254 B(  5-C ,  9-H ) :   0.9107
B( 11-Pd, 12-O ) :   0.3504 B( 11-Pd, 13-O ) :   0.5557 B( 11-Pd, 14-O ) :   0.3571
B( 12-O , 13-O ) :   0.1163 B( 12-O , 18-C ) :   1.6133 B( 13-O , 18-C ) :   1.4192
B( 14-O , 15-C ) :   1.7878 B( 15-C , 16-O ) :   1.1914 B( 15-C , 20-H ) :   0.8660
B( 16-O , 17-H ) :   0.7276 B( 18-C , 19-H ) :   0.8861

Dispersion correction           -0.012986811
FINAL SINGLE POINT ENERGY      -737.120574051766
Dispersion correction            ... done

DIPOLE MOMENT
-------------
                                X             Y             Z
Electronic contribution:     50.83497      37.40728      -5.82484
Nuclear contribution   :    -52.52815     -36.31413       7.59379
                        -----------------------------------------
Total Dipole Moment    :     -1.69317       1.09315       1.76895
                        -----------------------------------------
Magnitude (a.u.)       :      2.68160
Magnitude (Debye)      :      6.81610

Rotational constants in cm-1:     0.029536     0.017347     0.012803
Rotational constants in MHz :   885.455992   520.058983   383.811547

                             ****ORCA TERMINATED NORMALLY****
TOTAL RUN TIME: 0 days 0 hours 3 minutes 35 seconds 970 msec
