                         Program Version 5.0.3 -  RELEASE  -
|  1> ! EnGrad PBEh-3c
|  2> %output
|  3> xyzfile=True
|  4> end
|  5> %scf
|  6> maxiter 250
|  7> end
|  8> %output
|  9> Print[P_Hirshfeld] = 1
| 10> end
| 11> % maxcore
| 12> 4000
| 13> *xyz 0 1
| 14> C   -1.34806780   0.14621376  -0.76225450
| 15> C   -2.20971154  -0.87093153  -1.16857536
| 16> C   -1.97695074  -2.18449247  -0.77005076
| 17> C   -0.94427281  -2.44096610   0.13064234
| 18> C   -0.22638657  -0.14304538   0.00614565
| 19> C   -0.09970558  -1.41836305   0.53857411
| 20> H   -1.54670250   1.15212754  -1.10508892
| 21> H   -3.01554217  -0.65202647  -1.86969514
| 22> H   -2.55696586  -3.00354766  -1.19413723
| 23> H    0.69841823  -1.64538178   1.22787165
| 24> H   -0.74249055  -3.46264191   0.45018219
| 25> Pd   1.36865914   0.96418042  -0.15228043
| 26> O    3.42424973   1.44070679  -0.90568958
| 27> O    2.64290717  -0.56683619  -0.52534700
| 28> O    0.34366260   2.74758116   0.28333590
| 29> C   -0.22088282   2.80260600   1.34788559
| 30> O   -0.03482969   1.88884376   2.26589205
| 31> H   -0.81138474   1.70818668   2.80562483
| 32> C    3.57026931   0.20575715  -0.91369439
| 33> H    4.51316134  -0.25709477  -1.24865067
| 34> H   -0.88801457   3.62044930   1.58346636
| 35> *
| 36>
| 37>                          ****END OF INPUT****

CARTESIAN COORDINATES (ANGSTROEM)
---------------------------------
  C     -1.348068    0.146214   -0.762254
  C     -2.209712   -0.870932   -1.168575
  C     -1.976951   -2.184492   -0.770051
  C     -0.944273   -2.440966    0.130642
  C     -0.226387   -0.143045    0.006146
  C     -0.099706   -1.418363    0.538574
  H     -1.546703    1.152128   -1.105089
  H     -3.015542   -0.652026   -1.869695
  H     -2.556966   -3.003548   -1.194137
  H      0.698418   -1.645382    1.227872
  H     -0.742491   -3.462642    0.450182
  Pd     1.368659    0.964180   -0.152280
  O      3.424250    1.440707   -0.905690
  O      2.642907   -0.566836   -0.525347
  O      0.343663    2.747581    0.283336
  C     -0.220883    2.802606    1.347886
  O     -0.034830    1.888844    2.265892
  H     -0.811385    1.708187    2.805625
  C      3.570269    0.205757   -0.913694
  H      4.513161   -0.257095   -1.248651
  H     -0.888015    3.620449    1.583466

 Total Charge           Charge          ....    0
 Multiplicity           Mult            ....    1
 Number of Electrons    NEL             ....  106
 Basis Dimension        Dim             ....  227

ORBITAL ENERGIES
----------------

  NO   OCC          E(Eh)            E(eV)
   0   2.0000     -19.602357      -533.4073
   1   2.0000     -19.578250      -532.7513
   2   2.0000     -19.488141      -530.2993
   3   2.0000     -19.472600      -529.8764
   4   2.0000     -10.646855      -289.7157
   5   2.0000     -10.548764      -287.0465
   6   2.0000     -10.444181      -284.2006
   7   2.0000     -10.438911      -284.0572
   8   2.0000     -10.436210      -283.9837
   9   2.0000     -10.436112      -283.9811
  10   2.0000     -10.434456      -283.9360
  11   2.0000     -10.429871      -283.8112
  12   2.0000      -3.640358       -99.0592
  13   2.0000      -2.289377       -62.2971
  14   2.0000      -2.284342       -62.1601
  15   2.0000      -2.253848       -61.3303
  16   2.0000      -1.295215       -35.2446
  17   2.0000      -1.208282       -32.8790
  18   2.0000      -1.182568       -32.1793
  19   2.0000      -1.072976       -29.1971
  20   2.0000      -0.940727       -25.5985
  21   2.0000      -0.823627       -22.4120
  22   2.0000      -0.818308       -22.2673
  23   2.0000      -0.786013       -21.3885
  24   2.0000      -0.719914       -19.5898
  25   2.0000      -0.667593       -18.1661
  26   2.0000      -0.658144       -17.9090
  27   2.0000      -0.653103       -17.7718
  28   2.0000      -0.616977       -16.7888
  29   2.0000      -0.587441       -15.9851
  30   2.0000      -0.569256       -15.4903
  31   2.0000      -0.546303       -14.8657
  32   2.0000      -0.516483       -14.0542
  33   2.0000      -0.506906       -13.7936
  34   2.0000      -0.500446       -13.6178
  35   2.0000      -0.499469       -13.5912
  36   2.0000      -0.486595       -13.2409
  37   2.0000      -0.467397       -12.7185
  38   2.0000      -0.450748       -12.2655
  39   2.0000      -0.447735       -12.1835
  40   2.0000      -0.443815       -12.0768
  41   2.0000      -0.419290       -11.4095
  42   2.0000      -0.388684       -10.5766
  43   2.0000      -0.377433       -10.2705
  44   2.0000      -0.372622       -10.1396
  45   2.0000      -0.357940        -9.7400
  46   2.0000      -0.343797        -9.3552
  47   2.0000      -0.326747        -8.8912
  48   2.0000      -0.313543        -8.5319
  49   2.0000      -0.304143        -8.2761
  50   2.0000      -0.283109        -7.7038
  51   2.0000      -0.276727        -7.5301
  52   2.0000      -0.257492        -7.0067
  53   0.0000      -0.037470        -1.0196
  54   0.0000      -0.014976        -0.4075
  55   0.0000       0.029336         0.7983
  56   0.0000       0.033302         0.9062
  57   0.0000       0.049709         1.3527

MULLIKEN ATOMIC CHARGES
-----------------------
   0 C :   -0.252923
   1 C :   -0.222365
   2 C :   -0.232280
   3 C :   -0.222232
   4 C :   -0.132842
   5 C :   -0.229145
   6 H :    0.216240
   7 H :    0.211830
   8 H :    0.213427
   9 H :    0.234349
  10 H :    0.214246
  11 Pd:    0.365189
  12 O :   -0.468733
  13 O :   -0.485367
  14 O :   -0.360517
  15 C :    0.390097
  16 O :   -0.514402
  17 H :    0.476455
  18 C :    0.383697
  19 H :    0.180600
  20 H :    0.234674
Sum of atomic charges:   -0.0000000

LOEWDIN ATOMIC CHARGES
----------------------
   0 C :   -0.137112
   1 C :   -0.134559
   2 C :   -0.148579
   3 C :   -0.130123
   4 C :   -0.019662
   5 C :   -0.111618
   6 H :    0.143156
   7 H :    0.133623
   8 H :    0.133526
   9 H :    0.154065
  10 H :    0.135133
  11 Pd:   -0.313475
  12 O :   -0.206421
  13 O :   -0.168534
  14 O :   -0.032565
  15 C :    0.181815
  16 O :   -0.213693
  17 H :    0.360334
  18 C :    0.138139
  19 H :    0.107437
  20 H :    0.129113

  Mayer bond orders larger than 0.100000
B(  0-C ,  1-C ) :   1.4217 B(  0-C ,  4-C ) :   1.3724 B(  0-C ,  6-H ) :   0.9121
B(  1-C ,  2-C ) :   1.4362 B(  1-C ,  7-H ) :   0.9200 B(  2-C ,  3-C ) :   1.4137
B(  2-C ,  8-H ) :   0.9212 B(  3-C ,  5-C ) :   1.4344 B(  3-C , 10-H ) :   0.9196
B(  4-C ,  5-C ) :   1.3831 B(  4-C , 11-Pd) :   0.9306 B(  5-C ,  9-H ) :   0.9102
B( 11-Pd, 12-O ) :   0.3509 B( 11-Pd, 13-O ) :   0.5517 B( 11-Pd, 14-O ) :   0.3551
B( 12-O , 13-O ) :   0.1167 B( 12-O , 18-C ) :   1.6084 B( 13-O , 18-C ) :   1.4208
B( 14-O , 15-C ) :   1.7923 B( 15-C , 16-O ) :   1.1885 B( 15-C , 20-H ) :   0.8697
B( 16-O , 17-H ) :   0.7274 B( 18-C , 19-H ) :   0.8853

Dispersion correction           -0.013034847
FINAL SINGLE POINT ENERGY      -737.119783222864
Dispersion correction            ... done

DIPOLE MOMENT
-------------
                                X             Y             Z
Electronic contribution:     49.93450      37.13599      -5.40392
Nuclear contribution   :    -51.64837     -36.05300       7.14568
                        -----------------------------------------
Total Dipole Moment    :     -1.71387       1.08299       1.74176
                        -----------------------------------------
Magnitude (a.u.)       :      2.67282
Magnitude (Debye)      :      6.79377

Rotational constants in cm-1:     0.029239     0.017676     0.012945
Rotational constants in MHz :   876.572316   529.903867   388.068635

                             ****ORCA TERMINATED NORMALLY****
TOTAL RUN TIME: 0 days 0 hours 3 minutes 49 seconds 872 msec
