                         Program Version 5.0.3 -  RELEASE  -
|  1> ! EnGrad PBEh-3c
|  2> %output
|  3> xyzfile=True
|  4> end
|  5> %scf
|  6> maxiter 250
|  7> end
|  8> %output
|  9> Print[P_Hirshfeld] = 1
| 10> end
| 11> % maxcore
| 12> 4000
| 13> *xyz 0 1
| 14> C   -1.34816143   0.10159214  -0.88774137
| 15> C   -2.29488762  -0.85934892  -1.13631092
| 16> C   -2.12481702  -2.14565859  -0.64114065
| 17> C   -1.00779598  -2.46082554   0.12890116
| 18> C   -0.14101451  -0.14330581  -0.12477335
| 19> C   -0.07380294  -1.50058938   0.41331234
| 20> H   -1.47528084   1.08764777  -1.34913641
| 21> H   -3.14936338  -0.62085398  -1.73833856
| 22> H   -2.85515780  -2.89763652  -0.85255380
| 23> H    0.79687530  -1.76776283   1.01113050
| 24> H   -0.86798232  -3.46199444   0.49261763
| 25> Pd   1.41756486   0.95945840  -0.24442761
| 26> O    3.57464277   1.53593957  -0.70558897
| 27> O    2.77395193  -0.49252115  -0.66750634
| 28> O    0.27968789   2.66439414   0.18671894
| 29> C   -0.22193234   2.74566825   1.26501464
| 30> O   -0.05662399   1.85724059   2.40419023
| 31> H   -0.74501582   1.67482189   2.88942835
| 32> C    3.74190335   0.30085090  -0.84419418
| 33> H    4.71983155  -0.10800281  -1.10757765
| 34> H   -0.94415145   3.53247631   1.50828787
| 35> *
| 36>
| 37>                          ****END OF INPUT****

CARTESIAN COORDINATES (ANGSTROEM)
---------------------------------
  C     -1.348161    0.101592   -0.887741
  C     -2.294888   -0.859349   -1.136311
  C     -2.124817   -2.145659   -0.641141
  C     -1.007796   -2.460826    0.128901
  C     -0.141015   -0.143306   -0.124773
  C     -0.073803   -1.500589    0.413312
  H     -1.475281    1.087648   -1.349136
  H     -3.149363   -0.620854   -1.738339
  H     -2.855158   -2.897637   -0.852554
  H      0.796875   -1.767763    1.011130
  H     -0.867982   -3.461994    0.492618
  Pd     1.417565    0.959458   -0.244428
  O      3.574643    1.535940   -0.705589
  O      2.773952   -0.492521   -0.667506
  O      0.279688    2.664394    0.186719
  C     -0.221932    2.745668    1.265015
  O     -0.056624    1.857241    2.404190
  H     -0.745016    1.674822    2.889428
  C      3.741903    0.300851   -0.844194
  H      4.719832   -0.108003   -1.107578
  H     -0.944151    3.532476    1.508288

 Total Charge           Charge          ....    0
 Multiplicity           Mult            ....    1
 Number of Electrons    NEL             ....  106
 Basis Dimension        Dim             ....  227

ORBITAL ENERGIES
----------------

  NO   OCC          E(Eh)            E(eV)
   0   2.0000     -19.610115      -533.6184
   1   2.0000     -19.571866      -532.5775
   2   2.0000     -19.494322      -530.4675
   3   2.0000     -19.474243      -529.9211
   4   2.0000     -10.667361      -290.2737
   5   2.0000     -10.552748      -287.1549
   6   2.0000     -10.459642      -284.6213
   7   2.0000     -10.441944      -284.1397
   8   2.0000     -10.437468      -284.0179
   9   2.0000     -10.436497      -283.9915
  10   2.0000     -10.434798      -283.9453
  11   2.0000     -10.434059      -283.9252
  12   2.0000      -3.653582       -99.4190
  13   2.0000      -2.303431       -62.6795
  14   2.0000      -2.297197       -62.5099
  15   2.0000      -2.266331       -61.6700
  16   2.0000      -1.283827       -34.9347
  17   2.0000      -1.207458       -32.8566
  18   2.0000      -1.184931       -32.2436
  19   2.0000      -1.072746       -29.1909
  20   2.0000      -0.936150       -25.4739
  21   2.0000      -0.827818       -22.5261
  22   2.0000      -0.810729       -22.0610
  23   2.0000      -0.790007       -21.4972
  24   2.0000      -0.701045       -19.0764
  25   2.0000      -0.665316       -18.1042
  26   2.0000      -0.662838       -18.0367
  27   2.0000      -0.658914       -17.9299
  28   2.0000      -0.632351       -17.2072
  29   2.0000      -0.577906       -15.7256
  30   2.0000      -0.567578       -15.4446
  31   2.0000      -0.549294       -14.9471
  32   2.0000      -0.520764       -14.1707
  33   2.0000      -0.512188       -13.9373
  34   2.0000      -0.502488       -13.6734
  35   2.0000      -0.497572       -13.5396
  36   2.0000      -0.488885       -13.3032
  37   2.0000      -0.470408       -12.8005
  38   2.0000      -0.451056       -12.2739
  39   2.0000      -0.444926       -12.1070
  40   2.0000      -0.441475       -12.0131
  41   2.0000      -0.413804       -11.2602
  42   2.0000      -0.391393       -10.6503
  43   2.0000      -0.385089       -10.4788
  44   2.0000      -0.379744       -10.3334
  45   2.0000      -0.363363        -9.8876
  46   2.0000      -0.353039        -9.6067
  47   2.0000      -0.334015        -9.0890
  48   2.0000      -0.323387        -8.7998
  49   2.0000      -0.312595        -8.5061
  50   2.0000      -0.292418        -7.9571
  51   2.0000      -0.284913        -7.7529
  52   2.0000      -0.256998        -6.9933
  53   0.0000      -0.052315        -1.4236
  54   0.0000      -0.028750        -0.7823
  55   0.0000       0.020878         0.5681
  56   0.0000       0.034349         0.9347
  57   0.0000       0.053727         1.4620

MULLIKEN ATOMIC CHARGES
-----------------------
   0 C :   -0.272554
   1 C :   -0.193287
   2 C :   -0.248406
   3 C :   -0.192581
   4 C :   -0.129481
   5 C :   -0.248259
   6 H :    0.211009
   7 H :    0.214179
   8 H :    0.213668
   9 H :    0.230355
  10 H :    0.216194
  11 Pd:    0.377633
  12 O :   -0.475666
  13 O :   -0.479382
  14 O :   -0.315967
  15 C :    0.423026
  16 O :   -0.597273
  17 H :    0.457616
  18 C :    0.381396
  19 H :    0.188452
  20 H :    0.239329
Sum of atomic charges:   -0.0000000

LOEWDIN ATOMIC CHARGES
----------------------
   0 C :   -0.135513
   1 C :   -0.142539
   2 C :   -0.141809
   3 C :   -0.138266
   4 C :   -0.011032
   5 C :   -0.106863
   6 H :    0.139607
   7 H :    0.135199
   8 H :    0.131966
   9 H :    0.151855
  10 H :    0.136685
  11 Pd:   -0.290790
  12 O :   -0.223083
  13 O :   -0.162838
  14 O :    0.011768
  15 C :    0.259560
  16 O :   -0.322229
  17 H :    0.321681
  18 C :    0.140319
  19 H :    0.111150
  20 H :    0.135169

  Mayer bond orders larger than 0.100000
B(  0-C ,  1-C ) :   1.4244 B(  0-C ,  4-C ) :   1.3611 B(  0-C ,  6-H ) :   0.9150
B(  1-C ,  2-C ) :   1.4381 B(  1-C ,  7-H ) :   0.9193 B(  2-C ,  3-C ) :   1.4058
B(  2-C ,  4-C ) :   0.1033 B(  2-C ,  8-H ) :   0.9199 B(  3-C ,  5-C ) :   1.4466
B(  3-C , 10-H ) :   0.9191 B(  4-C ,  5-C ) :   1.3527 B(  4-C , 11-Pd) :   0.9467
B(  5-C ,  9-H ) :   0.9132 B( 11-Pd, 12-O ) :   0.3536 B( 11-Pd, 13-O ) :   0.5569
B( 11-Pd, 14-O ) :   0.3334 B( 12-O , 13-O ) :   0.1156 B( 12-O , 18-C ) :   1.6013
B( 13-O , 18-C ) :   1.4259 B( 14-O , 15-C ) :   1.8728 B( 15-C , 16-O ) :   1.0522
B( 15-C , 20-H ) :   0.8636 B( 16-O , 17-H ) :   0.7480 B( 18-C , 19-H ) :   0.8845

Dispersion correction           -0.012867791
FINAL SINGLE POINT ENERGY      -737.085990462169
Dispersion correction            ... done

DIPOLE MOMENT
-------------
                                X             Y             Z
Electronic contribution:     51.69729      36.91645      -9.71708
Nuclear contribution   :    -53.34249     -35.83346      11.13693
                        -----------------------------------------
Total Dipole Moment    :     -1.64521       1.08299       1.41986
                        -----------------------------------------
Magnitude (a.u.)       :      2.42808
Magnitude (Debye)      :      6.17169

Rotational constants in cm-1:     0.029339     0.016578     0.012463
Rotational constants in MHz :   879.547487   496.992856   373.633009

                             ****ORCA TERMINATED NORMALLY****
TOTAL RUN TIME: 0 days 0 hours 3 minutes 51 seconds 546 msec
