                         Program Version 5.0.3 -  RELEASE  -
|  1> ! EnGrad PBEh-3c
|  2> %output
|  3> xyzfile=True
|  4> end
|  5> %scf
|  6> maxiter 250
|  7> end
|  8> %output
|  9> Print[P_Hirshfeld] = 1
| 10> end
| 11> % maxcore
| 12> 4000
| 13> *xyz 0 1
| 14> C   -1.34483618   0.14001089  -0.77734705
| 15> C   -2.22401985  -0.87864640  -1.16192669
| 16> C   -2.00269863  -2.18607212  -0.75547236
| 17> C   -0.96259804  -2.44369539   0.12828484
| 18> C   -0.21559528  -0.14565624  -0.01403530
| 19> C   -0.09725121  -1.42338669   0.52137120
| 20> H   -1.53374184   1.15226719  -1.13049521
| 21> H   -3.03119484  -0.64845197  -1.85621219
| 22> H   -2.59028126  -2.99052964  -1.15449993
| 23> H    0.71713982  -1.65290116   1.20672901
| 24> H   -0.75590250  -3.46231741   0.45722819
| 25> Pd   1.38290061   0.96412097  -0.15900169
| 26> O    3.44161826   1.45136644  -0.88458454
| 27> O    2.65601362  -0.55634189  -0.54340947
| 28> O    0.34472234   2.73815169   0.26730319
| 29> C   -0.22088925   2.79999502   1.34874493
| 30> O   -0.03259234   1.87736296   2.26999557
| 31> H   -0.81029526   1.71062960   2.81816657
| 32> C    3.59003247   0.21800822  -0.90381020
| 33> H    4.53586216  -0.23995804  -1.23334410
| 34> H   -0.90375975   3.61045467   1.58071130
| 35> *
| 36>
| 37>                          ****END OF INPUT****

CARTESIAN COORDINATES (ANGSTROEM)
---------------------------------
  C     -1.344836    0.140011   -0.777347
  C     -2.224020   -0.878646   -1.161927
  C     -2.002699   -2.186072   -0.755472
  C     -0.962598   -2.443695    0.128285
  C     -0.215595   -0.145656   -0.014035
  C     -0.097251   -1.423387    0.521371
  H     -1.533742    1.152267   -1.130495
  H     -3.031195   -0.648452   -1.856212
  H     -2.590281   -2.990530   -1.154500
  H      0.717140   -1.652901    1.206729
  H     -0.755903   -3.462317    0.457228
  Pd     1.382901    0.964121   -0.159002
  O      3.441618    1.451366   -0.884585
  O      2.656014   -0.556342   -0.543409
  O      0.344722    2.738152    0.267303
  C     -0.220889    2.799995    1.348745
  O     -0.032592    1.877363    2.269996
  H     -0.810295    1.710630    2.818167
  C      3.590032    0.218008   -0.903810
  H      4.535862   -0.239958   -1.233344
  H     -0.903760    3.610455    1.580711

 Total Charge           Charge          ....    0
 Multiplicity           Mult            ....    1
 Number of Electrons    NEL             ....  106
 Basis Dimension        Dim             ....  227

ORBITAL ENERGIES
----------------

  NO   OCC          E(Eh)            E(eV)
   0   2.0000     -19.604528      -533.4663
   1   2.0000     -19.579583      -532.7875
   2   2.0000     -19.488608      -530.3120
   3   2.0000     -19.472710      -529.8794
   4   2.0000     -10.650739      -289.8213
   5   2.0000     -10.548703      -287.0448
   6   2.0000     -10.443700      -284.1875
   7   2.0000     -10.438271      -284.0398
   8   2.0000     -10.436583      -283.9939
   9   2.0000     -10.435858      -283.9741
  10   2.0000     -10.431942      -283.8676
  11   2.0000     -10.430845      -283.8377
  12   2.0000      -3.640529       -99.0638
  13   2.0000      -2.289361       -62.2967
  14   2.0000      -2.284678       -62.1692
  15   2.0000      -2.253878       -61.3311
  16   2.0000      -1.289540       -35.0902
  17   2.0000      -1.202927       -32.7333
  18   2.0000      -1.184469       -32.2310
  19   2.0000      -1.074032       -29.2259
  20   2.0000      -0.939332       -25.5605
  21   2.0000      -0.820710       -22.3327
  22   2.0000      -0.819091       -22.2886
  23   2.0000      -0.785642       -21.3784
  24   2.0000      -0.717666       -19.5287
  25   2.0000      -0.666566       -18.1382
  26   2.0000      -0.657722       -17.8975
  27   2.0000      -0.653336       -17.7782
  28   2.0000      -0.614933       -16.7332
  29   2.0000      -0.583567       -15.8797
  30   2.0000      -0.568843       -15.4790
  31   2.0000      -0.547277       -14.8922
  32   2.0000      -0.517330       -14.0773
  33   2.0000      -0.507030       -13.7970
  34   2.0000      -0.499204       -13.5840
  35   2.0000      -0.498318       -13.5599
  36   2.0000      -0.487934       -13.2774
  37   2.0000      -0.464277       -12.6336
  38   2.0000      -0.450273       -12.2525
  39   2.0000      -0.448074       -12.1927
  40   2.0000      -0.444966       -12.1081
  41   2.0000      -0.417571       -11.3627
  42   2.0000      -0.387703       -10.5499
  43   2.0000      -0.377856       -10.2820
  44   2.0000      -0.372914       -10.1475
  45   2.0000      -0.358253        -9.7485
  46   2.0000      -0.344039        -9.3618
  47   2.0000      -0.326517        -8.8850
  48   2.0000      -0.313597        -8.5334
  49   2.0000      -0.304171        -8.2769
  50   2.0000      -0.282041        -7.6747
  51   2.0000      -0.275595        -7.4993
  52   2.0000      -0.258413        -7.0318
  53   0.0000      -0.041110        -1.1186
  54   0.0000      -0.015720        -0.4278
  55   0.0000       0.029254         0.7961
  56   0.0000       0.033651         0.9157
  57   0.0000       0.049482         1.3465

MULLIKEN ATOMIC CHARGES
-----------------------
   0 C :   -0.258531
   1 C :   -0.222867
   2 C :   -0.227674
   3 C :   -0.222908
   4 C :   -0.125213
   5 C :   -0.234513
   6 H :    0.215327
   7 H :    0.211018
   8 H :    0.214776
   9 H :    0.232990
  10 H :    0.213384
  11 Pd:    0.366548
  12 O :   -0.468433
  13 O :   -0.484396
  14 O :   -0.369773
  15 C :    0.396268
  16 O :   -0.515374
  17 H :    0.476180
  18 C :    0.383615
  19 H :    0.180727
  20 H :    0.238849
Sum of atomic charges:   -0.0000000

LOEWDIN ATOMIC CHARGES
----------------------
   0 C :   -0.136664
   1 C :   -0.134713
   2 C :   -0.149788
   3 C :   -0.130501
   4 C :   -0.021321
   5 C :   -0.111443
   6 H :    0.142799
   7 H :    0.133297
   8 H :    0.133748
   9 H :    0.153877
  10 H :    0.134824
  11 Pd:   -0.315336
  12 O :   -0.205059
  13 O :   -0.165381
  14 O :   -0.042498
  15 C :    0.194869
  16 O :   -0.217594
  17 H :    0.360398
  18 C :    0.136972
  19 H :    0.107558
  20 H :    0.131958

  Mayer bond orders larger than 0.100000
B(  0-C ,  1-C ) :   1.4195 B(  0-C ,  4-C ) :   1.3740 B(  0-C ,  6-H ) :   0.9125
B(  1-C ,  2-C ) :   1.4368 B(  1-C ,  7-H ) :   0.9205 B(  2-C ,  3-C ) :   1.4154
B(  2-C ,  8-H ) :   0.9208 B(  3-C ,  5-C ) :   1.4314 B(  3-C , 10-H ) :   0.9200
B(  4-C ,  5-C ) :   1.3818 B(  4-C , 11-Pd) :   0.9272 B(  5-C ,  9-H ) :   0.9106
B( 11-Pd, 12-O ) :   0.3525 B( 11-Pd, 13-O ) :   0.5536 B( 11-Pd, 14-O ) :   0.3583
B( 12-O , 13-O ) :   0.1164 B( 12-O , 18-C ) :   1.6077 B( 13-O , 18-C ) :   1.4211
B( 14-O , 15-C ) :   1.7784 B( 15-C , 16-O ) :   1.1872 B( 15-C , 20-H ) :   0.8680
B( 16-O , 17-H ) :   0.7279 B( 18-C , 19-H ) :   0.8857

Dispersion correction           -0.013000680
FINAL SINGLE POINT ENERGY      -737.120779566206
Dispersion correction            ... done

DIPOLE MOMENT
-------------
                                X             Y             Z
Electronic contribution:     50.52775      37.17697      -5.61929
Nuclear contribution   :    -52.23635     -36.06926       7.39402
                        -----------------------------------------
Total Dipole Moment    :     -1.70859       1.10770       1.77473
                        -----------------------------------------
Magnitude (a.u.)       :      2.70110
Magnitude (Debye)      :      6.86566

Rotational constants in cm-1:     0.029355     0.017500     0.012867
Rotational constants in MHz :   880.027647   524.636457   385.751373

                             ****ORCA TERMINATED NORMALLY****
TOTAL RUN TIME: 0 days 0 hours 3 minutes 58 seconds 161 msec
