                         Program Version 5.0.3 -  RELEASE  -
|  1> ! EnGrad PBEh-3c
|  2> %output
|  3> xyzfile=True
|  4> end
|  5> %scf
|  6> maxiter 250
|  7> end
|  8> %output
|  9> Print[P_Hirshfeld] = 1
| 10> end
| 11> % maxcore
| 12> 4000
| 13> *xyz 0 1
| 14> C   -1.33290043   0.10662780  -0.90205172
| 15> C   -2.29606218  -0.85580063  -1.12776380
| 16> C   -2.13481338  -2.13801028  -0.62621780
| 17> C   -1.01203635  -2.45676644   0.12628156
| 18> C   -0.18056734  -0.19365770  -0.14382102
| 19> C   -0.05928169  -1.49872253   0.39680566
| 20> H   -1.46795123   1.08069787  -1.37099211
| 21> H   -3.16040877  -0.61443210  -1.72462710
| 22> H   -2.88063989  -2.88932882  -0.82376690
| 23> H    0.80732298  -1.78079522   0.98765874
| 24> H   -0.87999733  -3.45901431   0.50248849
| 25> Pd   1.45794685   0.99280803  -0.25215069
| 26> O    3.57681706   1.53861011  -0.68458876
| 27> O    2.78763184  -0.49442681  -0.68643044
| 28> O    0.27430025   2.64696363   0.18415308
| 29> C   -0.23341068   2.72921517   1.27300392
| 30> O    0.03186514   1.88327907   2.31178447
| 31> H   -0.82999186   1.66217381   2.97988720
| 32> C    3.74936738   0.31109735  -0.82968753
| 33> H    4.73202664  -0.09476397  -1.09539616
| 34> H   -0.94993347   3.52499013   1.50558717
| 35> *
| 36>
| 37>                          ****END OF INPUT****

CARTESIAN COORDINATES (ANGSTROEM)
---------------------------------
  C     -1.332900    0.106628   -0.902052
  C     -2.296062   -0.855801   -1.127764
  C     -2.134813   -2.138010   -0.626218
  C     -1.012036   -2.456766    0.126282
  C     -0.180567   -0.193658   -0.143821
  C     -0.059282   -1.498723    0.396806
  H     -1.467951    1.080698   -1.370992
  H     -3.160409   -0.614432   -1.724627
  H     -2.880640   -2.889329   -0.823767
  H      0.807323   -1.780795    0.987659
  H     -0.879997   -3.459014    0.502488
  Pd     1.457947    0.992808   -0.252151
  O      3.576817    1.538610   -0.684589
  O      2.787632   -0.494427   -0.686430
  O      0.274300    2.646964    0.184153
  C     -0.233411    2.729215    1.273004
  O      0.031865    1.883279    2.311784
  H     -0.829992    1.662174    2.979887
  C      3.749367    0.311097   -0.829688
  H      4.732027   -0.094764   -1.095396
  H     -0.949933    3.524990    1.505587

 Total Charge           Charge          ....    0
 Multiplicity           Mult            ....    1
 Number of Electrons    NEL             ....  106
 Basis Dimension        Dim             ....  227

ORBITAL ENERGIES
----------------

  NO   OCC          E(Eh)            E(eV)
   0   2.0000     -19.602538      -533.4122
   1   2.0000     -19.587806      -533.0113
   2   2.0000     -19.490964      -530.3761
   3   2.0000     -19.474039      -529.9155
   4   2.0000     -10.650433      -289.8130
   5   2.0000     -10.549992      -287.0799
   6   2.0000     -10.450734      -284.3789
   7   2.0000     -10.436999      -284.0052
   8   2.0000     -10.435397      -283.9616
   9   2.0000     -10.434178      -283.9284
  10   2.0000     -10.433192      -283.9016
  11   2.0000     -10.432644      -283.8867
  12   2.0000      -3.641419       -99.0881
  13   2.0000      -2.289006       -62.2870
  14   2.0000      -2.285805       -62.1999
  15   2.0000      -2.254480       -61.3475
  16   2.0000      -1.271013       -34.5860
  17   2.0000      -1.185477       -32.2585
  18   2.0000      -1.183538       -32.2057
  19   2.0000      -1.073704       -29.2170
  20   2.0000      -0.938961       -25.5504
  21   2.0000      -0.826638       -22.4940
  22   2.0000      -0.812640       -22.1131
  23   2.0000      -0.759792       -20.6750
  24   2.0000      -0.686640       -18.6844
  25   2.0000      -0.664061       -18.0700
  26   2.0000      -0.660118       -17.9627
  27   2.0000      -0.655682       -17.8420
  28   2.0000      -0.618361       -16.8264
  29   2.0000      -0.575497       -15.6601
  30   2.0000      -0.565657       -15.3923
  31   2.0000      -0.547017       -14.8851
  32   2.0000      -0.517138       -14.0720
  33   2.0000      -0.501322       -13.6417
  34   2.0000      -0.497759       -13.5447
  35   2.0000      -0.495238       -13.4761
  36   2.0000      -0.488030       -13.2800
  37   2.0000      -0.470322       -12.7981
  38   2.0000      -0.446713       -12.1557
  39   2.0000      -0.441799       -12.0220
  40   2.0000      -0.438255       -11.9255
  41   2.0000      -0.412249       -11.2179
  42   2.0000      -0.386046       -10.5048
  43   2.0000      -0.378629       -10.3030
  44   2.0000      -0.370774       -10.0893
  45   2.0000      -0.356722        -9.7069
  46   2.0000      -0.346562        -9.4304
  47   2.0000      -0.325598        -8.8600
  48   2.0000      -0.311430        -8.4744
  49   2.0000      -0.306187        -8.3318
  50   2.0000      -0.285240        -7.7618
  51   2.0000      -0.279900        -7.6165
  52   2.0000      -0.261969        -7.1285
  53   0.0000      -0.039870        -1.0849
  54   0.0000      -0.022934        -0.6241
  55   0.0000       0.014092         0.3835
  56   0.0000       0.032152         0.8749
  57   0.0000       0.033876         0.9218

MULLIKEN ATOMIC CHARGES
-----------------------
   0 C :   -0.260549
   1 C :   -0.211904
   2 C :   -0.235540
   3 C :   -0.211614
   4 C :   -0.129002
   5 C :   -0.238748
   6 H :    0.220012
   7 H :    0.211734
   8 H :    0.211707
   9 H :    0.233563
  10 H :    0.213881
  11 Pd:    0.359235
  12 O :   -0.473012
  13 O :   -0.477196
  14 O :   -0.347844
  15 C :    0.415287
  16 O :   -0.540506
  17 H :    0.463001
  18 C :    0.384156
  19 H :    0.182959
  20 H :    0.230381
Sum of atomic charges:    0.0000000

LOEWDIN ATOMIC CHARGES
----------------------
   0 C :   -0.138066
   1 C :   -0.138754
   2 C :   -0.146409
   3 C :   -0.134478
   4 C :   -0.013949
   5 C :   -0.113006
   6 H :    0.144012
   7 H :    0.132766
   8 H :    0.131976
   9 H :    0.153506
  10 H :    0.134360
  11 Pd:   -0.312661
  12 O :   -0.208976
  13 O :   -0.162913
  14 O :   -0.015349
  15 C :    0.203824
  16 O :   -0.270314
  17 H :    0.378863
  18 C :    0.138578
  19 H :    0.108632
  20 H :    0.128356

  Mayer bond orders larger than 0.100000
B(  0-C ,  1-C ) :   1.4213 B(  0-C ,  4-C ) :   1.3771 B(  0-C ,  6-H ) :   0.9128
B(  1-C ,  2-C ) :   1.4390 B(  1-C ,  7-H ) :   0.9195 B(  2-C ,  3-C ) :   1.4151
B(  2-C ,  8-H ) :   0.9215 B(  3-C ,  5-C ) :   1.4355 B(  3-C , 10-H ) :   0.9193
B(  4-C ,  5-C ) :   1.3786 B(  4-C , 11-Pd) :   0.8988 B(  5-C ,  9-H ) :   0.9118
B( 11-Pd, 12-O ) :   0.3640 B( 11-Pd, 13-O ) :   0.5530 B( 11-Pd, 14-O ) :   0.3545
B( 12-O , 13-O ) :   0.1161 B( 12-O , 18-C ) :   1.5940 B( 13-O , 18-C ) :   1.4335
B( 14-O , 15-C ) :   1.8077 B( 15-C , 16-O ) :   1.1440 B( 15-C , 20-H ) :   0.8682
B( 16-O , 17-H ) :   0.7342 B( 18-C , 19-H ) :   0.8858

Dispersion correction           -0.012779476
FINAL SINGLE POINT ENERGY      -737.106771499211
Dispersion correction            ... done

DIPOLE MOMENT
-------------
                                X             Y             Z
Electronic contribution:     53.17945      38.39152      -9.48775
Nuclear contribution   :    -54.96423     -37.35487      11.26046
                        -----------------------------------------
Total Dipole Moment    :     -1.78478       1.03665       1.77271
                        -----------------------------------------
Magnitude (a.u.)       :      2.72077
Magnitude (Debye)      :      6.91564

Rotational constants in cm-1:     0.029823     0.016451     0.012413
Rotational constants in MHz :   894.080185   493.182000   372.146804

                             ****ORCA TERMINATED NORMALLY****
TOTAL RUN TIME: 0 days 0 hours 3 minutes 53 seconds 701 msec
