                         Program Version 5.0.3 -  RELEASE  -
|  1> ! EnGrad PBEh-3c
|  2> %output
|  3> xyzfile=True
|  4> end
|  5> %scf
|  6> maxiter 250
|  7> end
|  8> %output
|  9> Print[P_Hirshfeld] = 1
| 10> end
| 11> % maxcore
| 12> 4000
| 13> *xyz 0 1
| 14> C   -1.33644116   0.10778858  -0.88333183
| 15> C   -2.29397721  -0.86343003  -1.13419770
| 16> C   -2.12297040  -2.14450012  -0.64141154
| 17> C   -1.01091487  -2.45923646   0.12727011
| 18> C   -0.15389107  -0.15788801  -0.12657278
| 19> C   -0.06828512  -1.48725239   0.41164197
| 20> H   -1.47620057   1.08631449  -1.34782887
| 21> H   -3.15013572  -0.62060216  -1.73979040
| 22> H   -2.85550728  -2.89956380  -0.85429578
| 23> H    0.79559852  -1.76782186   1.01155898
| 24> H   -0.86735104  -3.46316686   0.49291236
| 25> Pd   1.42100999   0.96178799  -0.24441518
| 26> O    3.57359360   1.53212898  -0.70679032
| 27> O    2.77311759  -0.49469414  -0.66718241
| 28> O    0.28340432   2.66104952   0.19002326
| 29> C   -0.22842058   2.73393780   1.28822509
| 30> O   -0.05995070   1.86741649   2.38424854
| 31> H   -0.74035017   1.67937755   2.88440921
| 32> C    3.73857823   0.30576947  -0.84272149
| 33> H    4.71985865  -0.10919354  -1.10856724
| 34> H   -0.94293191   3.53415001   1.50746865
| 35> *
| 36>
| 37>                          ****END OF INPUT****

CARTESIAN COORDINATES (ANGSTROEM)
---------------------------------
  C     -1.336441    0.107789   -0.883332
  C     -2.293977   -0.863430   -1.134198
  C     -2.122970   -2.144500   -0.641412
  C     -1.010915   -2.459236    0.127270
  C     -0.153891   -0.157888   -0.126573
  C     -0.068285   -1.487252    0.411642
  H     -1.476201    1.086314   -1.347829
  H     -3.150136   -0.620602   -1.739790
  H     -2.855507   -2.899564   -0.854296
  H      0.795599   -1.767822    1.011559
  H     -0.867351   -3.463167    0.492912
  Pd     1.421010    0.961788   -0.244415
  O      3.573594    1.532129   -0.706790
  O      2.773118   -0.494694   -0.667182
  O      0.283404    2.661050    0.190023
  C     -0.228421    2.733938    1.288225
  O     -0.059951    1.867416    2.384249
  H     -0.740350    1.679378    2.884409
  C      3.738578    0.305769   -0.842721
  H      4.719859   -0.109194   -1.108567
  H     -0.942932    3.534150    1.507469

 Total Charge           Charge          ....    0
 Multiplicity           Mult            ....    1
 Number of Electrons    NEL             ....  106
 Basis Dimension        Dim             ....  227

ORBITAL ENERGIES
----------------

  NO   OCC          E(Eh)            E(eV)
   0   2.0000     -19.602372      -533.4076
   1   2.0000     -19.582726      -532.8731
   2   2.0000     -19.491229      -530.3833
   3   2.0000     -19.473816      -529.9095
   4   2.0000     -10.665962      -290.2356
   5   2.0000     -10.550787      -287.1015
   6   2.0000     -10.455382      -284.5054
   7   2.0000     -10.440942      -284.1125
   8   2.0000     -10.437306      -284.0135
   9   2.0000     -10.436702      -283.9971
  10   2.0000     -10.435646      -283.9684
  11   2.0000     -10.433488      -283.9097
  12   2.0000      -3.649239       -99.3008
  13   2.0000      -2.298388       -62.5423
  14   2.0000      -2.293090       -62.3982
  15   2.0000      -2.262178       -61.5570
  16   2.0000      -1.276292       -34.7297
  17   2.0000      -1.216471       -33.1019
  18   2.0000      -1.184769       -32.2392
  19   2.0000      -1.073564       -29.2131
  20   2.0000      -0.937322       -25.5058
  21   2.0000      -0.825115       -22.4525
  22   2.0000      -0.814595       -22.1663
  23   2.0000      -0.799657       -21.7598
  24   2.0000      -0.707020       -19.2390
  25   2.0000      -0.664656       -18.0862
  26   2.0000      -0.662279       -18.0215
  27   2.0000      -0.656587       -17.8666
  28   2.0000      -0.625895       -17.0315
  29   2.0000      -0.576529       -15.6881
  30   2.0000      -0.566859       -15.4250
  31   2.0000      -0.547856       -14.9079
  32   2.0000      -0.518852       -14.1187
  33   2.0000      -0.509793       -13.8722
  34   2.0000      -0.502026       -13.6608
  35   2.0000      -0.497898       -13.5485
  36   2.0000      -0.488251       -13.2860
  37   2.0000      -0.468935       -12.7604
  38   2.0000      -0.454728       -12.3738
  39   2.0000      -0.447113       -12.1666
  40   2.0000      -0.444324       -12.0907
  41   2.0000      -0.413816       -11.2605
  42   2.0000      -0.388076       -10.5601
  43   2.0000      -0.383651       -10.4397
  44   2.0000      -0.377961       -10.2848
  45   2.0000      -0.360611        -9.8127
  46   2.0000      -0.351036        -9.5522
  47   2.0000      -0.332183        -9.0392
  48   2.0000      -0.320589        -8.7237
  49   2.0000      -0.309746        -8.4286
  50   2.0000      -0.288939        -7.8624
  51   2.0000      -0.281902        -7.6709
  52   2.0000      -0.260416        -7.0863
  53   0.0000      -0.051673        -1.4061
  54   0.0000      -0.025721        -0.6999
  55   0.0000       0.025327         0.6892
  56   0.0000       0.031392         0.8542
  57   0.0000       0.055284         1.5044

MULLIKEN ATOMIC CHARGES
-----------------------
   0 C :   -0.269927
   1 C :   -0.201727
   2 C :   -0.240922
   3 C :   -0.201388
   4 C :   -0.125694
   5 C :   -0.245503
   6 H :    0.215287
   7 H :    0.213772
   8 H :    0.212789
   9 H :    0.231654
  10 H :    0.216077
  11 Pd:    0.368838
  12 O :   -0.468881
  13 O :   -0.483196
  14 O :   -0.340605
  15 C :    0.428365
  16 O :   -0.574018
  17 H :    0.462641
  18 C :    0.380205
  19 H :    0.184567
  20 H :    0.237664
Sum of atomic charges:    0.0000000

LOEWDIN ATOMIC CHARGES
----------------------
   0 C :   -0.134868
   1 C :   -0.140547
   2 C :   -0.143884
   3 C :   -0.136215
   4 C :   -0.014630
   5 C :   -0.107456
   6 H :    0.141706
   7 H :    0.134543
   8 H :    0.132039
   9 H :    0.152721
  10 H :    0.136141
  11 Pd:   -0.298068
  12 O :   -0.213725
  13 O :   -0.167121
  14 O :   -0.012111
  15 C :    0.252985
  16 O :   -0.288352
  17 H :    0.327857
  18 C :    0.136273
  19 H :    0.109203
  20 H :    0.133509

  Mayer bond orders larger than 0.100000
B(  0-C ,  1-C ) :   1.4200 B(  0-C ,  4-C ) :   1.3671 B(  0-C ,  6-H ) :   0.9137
B(  1-C ,  2-C ) :   1.4402 B(  1-C ,  7-H ) :   0.9194 B(  2-C ,  3-C ) :   1.4105
B(  2-C ,  8-H ) :   0.9204 B(  3-C ,  5-C ) :   1.4399 B(  3-C , 10-H ) :   0.9191
B(  4-C ,  5-C ) :   1.3619 B(  4-C , 11-Pd) :   0.9384 B(  5-C ,  9-H ) :   0.9125
B( 11-Pd, 12-O ) :   0.3494 B( 11-Pd, 13-O ) :   0.5576 B( 11-Pd, 14-O ) :   0.3463
B( 12-O , 13-O ) :   0.1155 B( 12-O , 18-C ) :   1.6123 B( 13-O , 18-C ) :   1.4201
B( 14-O , 15-C ) :   1.8328 B( 15-C , 16-O ) :   1.0925 B( 15-C , 20-H ) :   0.8671
B( 16-O , 17-H ) :   0.7438 B( 18-C , 19-H ) :   0.8845

Dispersion correction           -0.012856122
FINAL SINGLE POINT ENERGY      -737.099922959952
Dispersion correction            ... done

DIPOLE MOMENT
-------------
                                X             Y             Z
Electronic contribution:     51.81339      37.00812      -9.57269
Nuclear contribution   :    -53.50915     -35.93945      11.13336
                        -----------------------------------------
Total Dipole Moment    :     -1.69576       1.06867       1.56066
                        -----------------------------------------
Magnitude (a.u.)       :      2.54034
Magnitude (Debye)      :      6.45703

Rotational constants in cm-1:     0.029424     0.016608     0.012467
Rotational constants in MHz :   882.094886   497.890978   373.749817

                             ****ORCA TERMINATED NORMALLY****
TOTAL RUN TIME: 0 days 0 hours 3 minutes 54 seconds 846 msec
