                         Program Version 5.0.3 -  RELEASE  -
|  1> ! EnGrad PBEh-3c
|  2> %output
|  3> xyzfile=True
|  4> end
|  5> %scf
|  6> maxiter 250
|  7> end
|  8> %output
|  9> Print[P_Hirshfeld] = 1
| 10> end
| 11> % maxcore
| 12> 4000
| 13> *xyz 0 1
| 14> C   -1.32529456   0.11442494  -0.86481573
| 15> C   -2.28874577  -0.86988280  -1.13514203
| 16> C   -2.11534009  -2.15069870  -0.65237746
| 17> C   -1.01204621  -2.45485857   0.12890512
| 18> C   -0.14597784  -0.14922624  -0.12063491
| 19> C   -0.06845087  -1.46450482   0.41918653
| 20> H   -1.48073968   1.08860772  -1.32864738
| 21> H   -3.14480206  -0.62481665  -1.75232732
| 22> H   -2.83923460  -2.91044984  -0.87861052
| 23> H    0.78620612  -1.75622761   1.02716880
| 24> H   -0.85829716  -3.46780212   0.48713519
| 25> Pd   1.39343329   0.93703775  -0.23921505
| 26> O    3.57203856   1.52704533  -0.72263515
| 27> O    2.76075662  -0.49727906  -0.65279013
| 28> O    0.28987391   2.66517157   0.21963850
| 29> C   -0.23677748   2.72106589   1.32067796
| 30> O   -0.04041640   1.89062175   2.34602079
| 31> H   -0.75241898   1.68008745   2.86244270
| 32> C    3.72696053   0.30525026  -0.85144681
| 33> H    4.71104376  -0.12042409  -1.11862452
| 34> H   -0.93677901   3.54225153   1.50799925
| 35> *
| 36>
| 37>                          ****END OF INPUT****

CARTESIAN COORDINATES (ANGSTROEM)
---------------------------------
  C     -1.325295    0.114425   -0.864816
  C     -2.288746   -0.869883   -1.135142
  C     -2.115340   -2.150699   -0.652377
  C     -1.012046   -2.454859    0.128905
  C     -0.145978   -0.149226   -0.120635
  C     -0.068451   -1.464505    0.419187
  H     -1.480740    1.088608   -1.328647
  H     -3.144802   -0.624817   -1.752327
  H     -2.839235   -2.910450   -0.878611
  H      0.786206   -1.756228    1.027169
  H     -0.858297   -3.467802    0.487135
  Pd     1.393433    0.937038   -0.239215
  O      3.572039    1.527045   -0.722635
  O      2.760757   -0.497279   -0.652790
  O      0.289874    2.665172    0.219638
  C     -0.236777    2.721066    1.320678
  O     -0.040416    1.890622    2.346021
  H     -0.752419    1.680087    2.862443
  C      3.726961    0.305250   -0.851447
  H      4.711044   -0.120424   -1.118625
  H     -0.936779    3.542252    1.507999

 Total Charge           Charge          ....    0
 Multiplicity           Mult            ....    1
 Number of Electrons    NEL             ....  106
 Basis Dimension        Dim             ....  227

ORBITAL ENERGIES
----------------

  NO   OCC          E(Eh)            E(eV)
   0   2.0000     -19.599459      -533.3284
   1   2.0000     -19.588994      -533.0436
   2   2.0000     -19.486704      -530.2602
   3   2.0000     -19.470462      -529.8182
   4   2.0000     -10.658383      -290.0294
   5   2.0000     -10.547867      -287.0220
   6   2.0000     -10.453552      -284.4556
   7   2.0000     -10.441622      -284.1310
   8   2.0000     -10.439581      -284.0754
   9   2.0000     -10.438043      -284.0336
  10   2.0000     -10.436987      -284.0048
  11   2.0000     -10.433431      -283.9081
  12   2.0000      -3.648099       -99.2698
  13   2.0000      -2.298795       -62.5534
  14   2.0000      -2.291005       -62.3414
  15   2.0000      -2.261202       -61.5304
  16   2.0000      -1.288547       -35.0632
  17   2.0000      -1.215978       -33.0884
  18   2.0000      -1.180822       -32.1318
  19   2.0000      -1.070754       -29.1367
  20   2.0000      -0.937460       -25.5096
  21   2.0000      -0.821508       -22.3544
  22   2.0000      -0.819529       -22.3005
  23   2.0000      -0.804306       -21.8863
  24   2.0000      -0.715056       -19.4577
  25   2.0000      -0.666749       -18.1432
  26   2.0000      -0.661121       -17.9900
  27   2.0000      -0.652570       -17.7573
  28   2.0000      -0.620646       -16.8886
  29   2.0000      -0.583816       -15.8864
  30   2.0000      -0.570045       -15.5117
  31   2.0000      -0.545030       -14.8310
  32   2.0000      -0.515445       -14.0260
  33   2.0000      -0.508388       -13.8339
  34   2.0000      -0.502358       -13.6698
  35   2.0000      -0.499298       -13.5866
  36   2.0000      -0.484904       -13.1949
  37   2.0000      -0.465515       -12.6673
  38   2.0000      -0.456872       -12.4321
  39   2.0000      -0.448997       -12.2178
  40   2.0000      -0.448160       -12.1951
  41   2.0000      -0.415935       -11.3182
  42   2.0000      -0.390054       -10.6139
  43   2.0000      -0.383222       -10.4280
  44   2.0000      -0.377866       -10.2823
  45   2.0000      -0.358647        -9.7593
  46   2.0000      -0.349831        -9.5194
  47   2.0000      -0.330826        -9.0022
  48   2.0000      -0.320665        -8.7257
  49   2.0000      -0.306315        -8.3353
  50   2.0000      -0.287199        -7.8151
  51   2.0000      -0.278869        -7.5884
  52   2.0000      -0.260882        -7.0990
  53   0.0000      -0.045309        -1.2329
  54   0.0000      -0.019486        -0.5302
  55   0.0000       0.026747         0.7278
  56   0.0000       0.028950         0.7878
  57   0.0000       0.054867         1.4930

MULLIKEN ATOMIC CHARGES
-----------------------
   0 C :   -0.273173
   1 C :   -0.206979
   2 C :   -0.235785
   3 C :   -0.206973
   4 C :   -0.122451
   5 C :   -0.247065
   6 H :    0.217420
   7 H :    0.214072
   8 H :    0.213468
   9 H :    0.231261
  10 H :    0.216415
  11 Pd:    0.371654
  12 O :   -0.462608
  13 O :   -0.492431
  14 O :   -0.361444
  15 C :    0.415814
  16 O :   -0.535917
  17 H :    0.476451
  18 C :    0.375197
  19 H :    0.181467
  20 H :    0.231606
Sum of atomic charges:    0.0000000

LOEWDIN ATOMIC CHARGES
----------------------
   0 C :   -0.133377
   1 C :   -0.139081
   2 C :   -0.146202
   3 C :   -0.134994
   4 C :   -0.018225
   5 C :   -0.106614
   6 H :    0.143116
   7 H :    0.134736
   8 H :    0.132346
   9 H :    0.153213
  10 H :    0.136320
  11 Pd:   -0.294032
  12 O :   -0.213230
  13 O :   -0.175313
  14 O :   -0.034878
  15 C :    0.217414
  16 O :   -0.237305
  17 H :    0.347796
  18 C :    0.132011
  19 H :    0.107435
  20 H :    0.128864

  Mayer bond orders larger than 0.100000
B(  0-C ,  1-C ) :   1.4148 B(  0-C ,  4-C ) :   1.3652 B(  0-C ,  6-H ) :   0.9128
B(  1-C ,  2-C ) :   1.4417 B(  1-C ,  7-H ) :   0.9195 B(  2-C ,  3-C ) :   1.4116
B(  2-C ,  8-H ) :   0.9199 B(  3-C ,  5-C ) :   1.4359 B(  3-C , 10-H ) :   0.9192
B(  4-C ,  5-C ) :   1.3578 B(  4-C , 11-Pd) :   0.9661 B(  5-C ,  9-H ) :   0.9123
B( 11-Pd, 12-O ) :   0.3328 B( 11-Pd, 13-O ) :   0.5553 B( 11-Pd, 14-O ) :   0.3569
B( 12-O , 13-O ) :   0.1154 B( 12-O , 18-C ) :   1.6344 B( 13-O , 18-C ) :   1.4075
B( 14-O , 15-C ) :   1.7966 B( 15-C , 16-O ) :   1.1591 B( 15-C , 20-H ) :   0.8714
B( 16-O , 17-H ) :   0.7303 B( 18-C , 19-H ) :   0.8833

Dispersion correction           -0.012952869
FINAL SINGLE POINT ENERGY      -737.115785921183
Dispersion correction            ... done

DIPOLE MOMENT
-------------
                                X             Y             Z
Electronic contribution:     50.42930      35.77985      -9.21262
Nuclear contribution   :    -52.23503     -34.75961      10.94352
                        -----------------------------------------
Total Dipole Moment    :     -1.80572       1.02023       1.73091
                        -----------------------------------------
Magnitude (a.u.)       :      2.70140
Magnitude (Debye)      :      6.86641

Rotational constants in cm-1:     0.029565     0.016812     0.012552
Rotational constants in MHz :   886.332584   503.998147   376.311742

                             ****ORCA TERMINATED NORMALLY****
TOTAL RUN TIME: 0 days 0 hours 3 minutes 54 seconds 727 msec
