                         Program Version 5.0.3 -  RELEASE  -
|  1> ! EnGrad PBEh-3c
|  2> %output
|  3> xyzfile=True
|  4> end
|  5> %scf
|  6> maxiter 250
|  7> end
|  8> %output
|  9> Print[P_Hirshfeld] = 1
| 10> end
| 11> % maxcore
| 12> 4000
| 13> *xyz 0 1
| 14> C   -1.31439721   0.12228491  -0.84960576
| 15> C   -2.27693062  -0.86916218  -1.13332579
| 16> C   -2.10653493  -2.15613240  -0.66214375
| 17> C   -1.00763685  -2.44475139   0.13082231
| 18> C   -0.16942482  -0.16940838  -0.11548357
| 19> C   -0.06690678  -1.44456044   0.42619053
| 20> H   -1.48619644   1.09009390  -1.31019019
| 21> H   -3.13755053  -0.62843568  -1.76336488
| 22> H   -2.82424591  -2.92233889  -0.90280597
| 23> H    0.77617060  -1.74596971   1.04169045
| 24> H   -0.84920209  -3.46943450   0.48167925
| 25> Pd   1.38905143   0.93744296  -0.23386299
| 26> O    3.56666047   1.52254315  -0.73870570
| 27> O    2.75270302  -0.50384857  -0.64164064
| 28> O    0.29416194   2.66243257   0.25638047
| 29> C   -0.24695700   2.71367436   1.34348392
| 30> O    0.01315967   1.91804670   2.27811516
| 31> H   -0.79634369   1.67467998   2.87062126
| 32> C    3.71353380   0.30175435  -0.85580956
| 33> H    4.69941433  -0.13108082  -1.12871109
| 34> H   -0.93086064   3.55059906   1.51016499
| 35> *
| 36>
| 37>                          ****END OF INPUT****

CARTESIAN COORDINATES (ANGSTROEM)
---------------------------------
  C     -1.314397    0.122285   -0.849606
  C     -2.276931   -0.869162   -1.133326
  C     -2.106535   -2.156132   -0.662144
  C     -1.007637   -2.444751    0.130822
  C     -0.169425   -0.169408   -0.115484
  C     -0.066907   -1.444560    0.426191
  H     -1.486196    1.090094   -1.310190
  H     -3.137551   -0.628436   -1.763365
  H     -2.824246   -2.922339   -0.902806
  H      0.776171   -1.745970    1.041690
  H     -0.849202   -3.469434    0.481679
  Pd     1.389051    0.937443   -0.233863
  O      3.566660    1.522543   -0.738706
  O      2.752703   -0.503849   -0.641641
  O      0.294162    2.662433    0.256380
  C     -0.246957    2.713674    1.343484
  O      0.013160    1.918047    2.278115
  H     -0.796344    1.674680    2.870621
  C      3.713534    0.301754   -0.855810
  H      4.699414   -0.131081   -1.128711
  H     -0.930861    3.550599    1.510165

 Total Charge           Charge          ....    0
 Multiplicity           Mult            ....    1
 Number of Electrons    NEL             ....  106
 Basis Dimension        Dim             ....  227

ORBITAL ENERGIES
----------------

  NO   OCC          E(Eh)            E(eV)
   0   2.0000     -19.617049      -533.8071
   1   2.0000     -19.569551      -532.5146
   2   2.0000     -19.483228      -530.1656
   3   2.0000     -19.467849      -529.7471
   4   2.0000     -10.643071      -289.6127
   5   2.0000     -10.544921      -286.9419
   6   2.0000     -10.447508      -284.2912
   7   2.0000     -10.441025      -284.1147
   8   2.0000     -10.439248      -284.0664
   9   2.0000     -10.439189      -284.0648
  10   2.0000     -10.434544      -283.9384
  11   2.0000     -10.433832      -283.9190
  12   2.0000      -3.641423       -99.0882
  13   2.0000      -2.291361       -62.3511
  14   2.0000      -2.284536       -62.1654
  15   2.0000      -2.254838       -61.3573
  16   2.0000      -1.308232       -35.5988
  17   2.0000      -1.203878       -32.7592
  18   2.0000      -1.177981       -32.0545
  19   2.0000      -1.068991       -29.0887
  20   2.0000      -0.941205       -25.6115
  21   2.0000      -0.824078       -22.4243
  22   2.0000      -0.820861       -22.3368
  23   2.0000      -0.782539       -21.2940
  24   2.0000      -0.719981       -19.5917
  25   2.0000      -0.669356       -18.2141
  26   2.0000      -0.659198       -17.9377
  27   2.0000      -0.648194       -17.6383
  28   2.0000      -0.616221       -16.7682
  29   2.0000      -0.598174       -16.2771
  30   2.0000      -0.571349       -15.5472
  31   2.0000      -0.541990       -14.7483
  32   2.0000      -0.512056       -13.9338
  33   2.0000      -0.504611       -13.7312
  34   2.0000      -0.500746       -13.6260
  35   2.0000      -0.498827       -13.5738
  36   2.0000      -0.482212       -13.1217
  37   2.0000      -0.464004       -12.6262
  38   2.0000      -0.452306       -12.3079
  39   2.0000      -0.447675       -12.1818
  40   2.0000      -0.442143       -12.0313
  41   2.0000      -0.417676       -11.3655
  42   2.0000      -0.391152       -10.6438
  43   2.0000      -0.376505       -10.2452
  44   2.0000      -0.373213       -10.1556
  45   2.0000      -0.353906        -9.6303
  46   2.0000      -0.345370        -9.3980
  47   2.0000      -0.326769        -8.8918
  48   2.0000      -0.315890        -8.5958
  49   2.0000      -0.301391        -8.2013
  50   2.0000      -0.283363        -7.7107
  51   2.0000      -0.276901        -7.5349
  52   2.0000      -0.263196        -7.1619
  53   0.0000      -0.034280        -0.9328
  54   0.0000      -0.011447        -0.3115
  55   0.0000       0.024646         0.6707
  56   0.0000       0.027167         0.7392
  57   0.0000       0.037537         1.0214

MULLIKEN ATOMIC CHARGES
-----------------------
   0 C :   -0.265570
   1 C :   -0.221166
   2 C :   -0.226466
   3 C :   -0.221558
   4 C :   -0.118968
   5 C :   -0.239408
   6 H :    0.222547
   7 H :    0.212637
   8 H :    0.214150
   9 H :    0.232959
  10 H :    0.215174
  11 Pd:    0.362325
  12 O :   -0.459809
  13 O :   -0.494765
  14 O :   -0.376964
  15 C :    0.379523
  16 O :   -0.475245
  17 H :    0.484800
  18 C :    0.373626
  19 H :    0.176941
  20 H :    0.225236
Sum of atomic charges:   -0.0000000

LOEWDIN ATOMIC CHARGES
----------------------
   0 C :   -0.133876
   1 C :   -0.135303
   2 C :   -0.149372
   3 C :   -0.131238
   4 C :   -0.020398
   5 C :   -0.109130
   6 H :    0.146292
   7 H :    0.133431
   8 H :    0.133024
   9 H :    0.154952
  10 H :    0.135122
  11 Pd:   -0.302154
  12 O :   -0.210349
  13 O :   -0.178034
  14 O :   -0.049023
  15 C :    0.150932
  16 O :   -0.176398
  17 H :    0.383295
  18 C :    0.129266
  19 H :    0.105030
  20 H :    0.123931

  Mayer bond orders larger than 0.100000
B(  0-C ,  1-C ) :   1.4140 B(  0-C ,  4-C ) :   1.3699 B(  0-C ,  6-H ) :   0.9110
B(  1-C ,  2-C ) :   1.4408 B(  1-C ,  7-H ) :   0.9196 B(  2-C ,  3-C ) :   1.4168
B(  2-C ,  8-H ) :   0.9199 B(  3-C ,  5-C ) :   1.4280 B(  3-C , 10-H ) :   0.9193
B(  4-C ,  5-C ) :   1.3703 B(  4-C , 11-Pd) :   0.9555 B(  5-C ,  9-H ) :   0.9114
B( 11-Pd, 12-O ) :   0.3281 B( 11-Pd, 13-O ) :   0.5519 B( 11-Pd, 14-O ) :   0.3679
B( 12-O , 13-O ) :   0.1158 B( 12-O , 18-C ) :   1.6410 B( 13-O , 18-C ) :   1.4073
B( 14-O , 15-C ) :   1.7591 B( 15-C , 16-O ) :   1.2496 B( 15-C , 20-H ) :   0.8746
B( 16-O , 17-H ) :   0.7151 B( 18-C , 19-H ) :   0.8831

Dispersion correction           -0.012969216
FINAL SINGLE POINT ENERGY      -737.117550480464
Dispersion correction            ... done

DIPOLE MOMENT
-------------
                                X             Y             Z
Electronic contribution:     50.00610      35.70160      -8.74549
Nuclear contribution   :    -51.95453     -34.74004      10.67961
                        -----------------------------------------
Total Dipole Moment    :     -1.94843       0.96155       1.93412
                        -----------------------------------------
Magnitude (a.u.)       :      2.90891
Magnitude (Debye)      :      7.39387

Rotational constants in cm-1:     0.029840     0.016948     0.012610
Rotational constants in MHz :   894.586699   508.098650   378.031499

                             ****ORCA TERMINATED NORMALLY****
TOTAL RUN TIME: 0 days 0 hours 3 minutes 40 seconds 799 msec
