                         Program Version 5.0.3 -  RELEASE  -
|  1> ! EnGrad PBEh-3c
|  2> %output
|  3> xyzfile=True
|  4> end
|  5> %scf
|  6> maxiter 250
|  7> end
|  8> %output
|  9> Print[P_Hirshfeld] = 1
| 10> end
| 11> % maxcore
| 12> 4000
| 13> *xyz 0 1
| 14> C   -1.31558359   0.12470773  -0.84122300
| 15> C   -2.26711223  -0.86497217  -1.13311366
| 16> C   -2.09822031  -2.16025291  -0.67044203
| 17> C   -1.00150950  -2.43727429   0.13450262
| 18> C   -0.18039916  -0.17730270  -0.11075041
| 19> C   -0.06923422  -1.43997056   0.43486703
| 20> H   -1.48936955   1.09280087  -1.29277403
| 21> H   -3.12805543  -0.63197129  -1.77132605
| 22> H   -2.81026572  -2.93339988  -0.92523898
| 23> H    0.76797857  -1.73481233   1.05434683
| 24> H   -0.84114394  -3.46725123   0.47645621
| 25> Pd   1.38349726   0.93849479  -0.22794200
| 26> O    3.56090194   1.52053041  -0.75296378
| 27> O    2.74524993  -0.50970354  -0.63218760
| 28> O    0.29979045   2.66091435   0.28044785
| 29> C   -0.25743996   2.73108270   1.33802369
| 30> O    0.01113413   1.90370510   2.28581332
| 31> H   -0.78381626   1.68422130   2.84217638
| 32> C    3.70333204   0.29489913  -0.86005213
| 33> H    4.68673310  -0.14015724  -1.13762101
| 34> H   -0.92846420   3.55733229   1.51417070
| 35> *
| 36>
| 37>                          ****END OF INPUT****

CARTESIAN COORDINATES (ANGSTROEM)
---------------------------------
  C     -1.315584    0.124708   -0.841223
  C     -2.267112   -0.864972   -1.133114
  C     -2.098220   -2.160253   -0.670442
  C     -1.001510   -2.437274    0.134503
  C     -0.180399   -0.177303   -0.110750
  C     -0.069234   -1.439971    0.434867
  H     -1.489370    1.092801   -1.292774
  H     -3.128055   -0.631971   -1.771326
  H     -2.810266   -2.933400   -0.925239
  H      0.767979   -1.734812    1.054347
  H     -0.841144   -3.467251    0.476456
  Pd     1.383497    0.938495   -0.227942
  O      3.560902    1.520530   -0.752964
  O      2.745250   -0.509704   -0.632188
  O      0.299790    2.660914    0.280448
  C     -0.257440    2.731083    1.338024
  O      0.011134    1.903705    2.285813
  H     -0.783816    1.684221    2.842176
  C      3.703332    0.294899   -0.860052
  H      4.686733   -0.140157   -1.137621
  H     -0.928464    3.557332    1.514171

 Total Charge           Charge          ....    0
 Multiplicity           Mult            ....    1
 Number of Electrons    NEL             ....  106
 Basis Dimension        Dim             ....  227

ORBITAL ENERGIES
----------------

  NO   OCC          E(Eh)            E(eV)
   0   2.0000     -19.607385      -533.5441
   1   2.0000     -19.573455      -532.6208
   2   2.0000     -19.484139      -530.1904
   3   2.0000     -19.467906      -529.7486
   4   2.0000     -10.642409      -289.5947
   5   2.0000     -10.545409      -286.9552
   6   2.0000     -10.447193      -284.2826
   7   2.0000     -10.441838      -284.1369
   8   2.0000     -10.439639      -284.0770
   9   2.0000     -10.438733      -284.0524
  10   2.0000     -10.435320      -283.9595
  11   2.0000     -10.433394      -283.9071
  12   2.0000      -3.641306       -99.0850
  13   2.0000      -2.291089       -62.3437
  14   2.0000      -2.284612       -62.1675
  15   2.0000      -2.254820       -61.3568
  16   2.0000      -1.302627       -35.4463
  17   2.0000      -1.209259       -32.9056
  18   2.0000      -1.176929       -32.0259
  19   2.0000      -1.068828       -29.0843
  20   2.0000      -0.944062       -25.6892
  21   2.0000      -0.825003       -22.4495
  22   2.0000      -0.823530       -22.4094
  23   2.0000      -0.780639       -21.2423
  24   2.0000      -0.722082       -19.6489
  25   2.0000      -0.670479       -18.2447
  26   2.0000      -0.660387       -17.9701
  27   2.0000      -0.648430       -17.6447
  28   2.0000      -0.618391       -16.8273
  29   2.0000      -0.594203       -16.1691
  30   2.0000      -0.572560       -15.5802
  31   2.0000      -0.541891       -14.7456
  32   2.0000      -0.511683       -13.9236
  33   2.0000      -0.507542       -13.8109
  34   2.0000      -0.502520       -13.6743
  35   2.0000      -0.500985       -13.6325
  36   2.0000      -0.481802       -13.1105
  37   2.0000      -0.465943       -12.6790
  38   2.0000      -0.452450       -12.3118
  39   2.0000      -0.449320       -12.2266
  40   2.0000      -0.444935       -12.1073
  41   2.0000      -0.420050       -11.4301
  42   2.0000      -0.391105       -10.6425
  43   2.0000      -0.376198       -10.2369
  44   2.0000      -0.373788       -10.1713
  45   2.0000      -0.354083        -9.6351
  46   2.0000      -0.345279        -9.3955
  47   2.0000      -0.327301        -8.9063
  48   2.0000      -0.315435        -8.5834
  49   2.0000      -0.301773        -8.2117
  50   2.0000      -0.284477        -7.7410
  51   2.0000      -0.278157        -7.5690
  52   2.0000      -0.263909        -7.1813
  53   0.0000      -0.035725        -0.9721
  54   0.0000      -0.011600        -0.3156
  55   0.0000       0.026397         0.7183
  56   0.0000       0.031021         0.8441
  57   0.0000       0.044653         1.2151

MULLIKEN ATOMIC CHARGES
-----------------------
   0 C :   -0.259965
   1 C :   -0.226022
   2 C :   -0.224543
   3 C :   -0.226775
   4 C :   -0.117022
   5 C :   -0.231983
   6 H :    0.222314
   7 H :    0.212072
   8 H :    0.215034
   9 H :    0.234546
  10 H :    0.214880
  11 Pd:    0.364823
  12 O :   -0.462129
  13 O :   -0.493456
  14 O :   -0.359217
  15 C :    0.377103
  16 O :   -0.499926
  17 H :    0.477083
  18 C :    0.374102
  19 H :    0.177123
  20 H :    0.231960
Sum of atomic charges:    0.0000000

LOEWDIN ATOMIC CHARGES
----------------------
   0 C :   -0.135692
   1 C :   -0.133172
   2 C :   -0.149740
   3 C :   -0.128928
   4 C :   -0.016230
   5 C :   -0.109828
   6 H :    0.146627
   7 H :    0.132975
   8 H :    0.133728
   9 H :    0.156191
  10 H :    0.134820
  11 Pd:   -0.299522
  12 O :   -0.213733
  13 O :   -0.177515
  14 O :   -0.028964
  15 C :    0.160107
  16 O :   -0.202758
  17 H :    0.368585
  18 C :    0.130764
  19 H :    0.105072
  20 H :    0.127213

  Mayer bond orders larger than 0.100000
B(  0-C ,  1-C ) :   1.4175 B(  0-C ,  4-C ) :   1.3697 B(  0-C ,  6-H ) :   0.9112
B(  1-C ,  2-C ) :   1.4390 B(  1-C ,  7-H ) :   0.9196 B(  2-C ,  3-C ) :   1.4175
B(  2-C ,  8-H ) :   0.9199 B(  3-C ,  5-C ) :   1.4269 B(  3-C , 10-H ) :   0.9193
B(  4-C ,  5-C ) :   1.3764 B(  4-C , 11-Pd) :   0.9508 B(  5-C ,  9-H ) :   0.9110
B( 11-Pd, 12-O ) :   0.3276 B( 11-Pd, 13-O ) :   0.5514 B( 11-Pd, 14-O ) :   0.3550
B( 12-O , 13-O ) :   0.1162 B( 12-O , 18-C ) :   1.6385 B( 13-O , 18-C ) :   1.4096
B( 14-O , 15-C ) :   1.7949 B( 15-C , 16-O ) :   1.2098 B( 15-C , 20-H ) :   0.8710
B( 16-O , 17-H ) :   0.7260 B( 18-C , 19-H ) :   0.8830

Dispersion correction           -0.012990990
FINAL SINGLE POINT ENERGY      -737.122551243322
Dispersion correction            ... done

DIPOLE MOMENT
-------------
                                X             Y             Z
Electronic contribution:     49.78938      35.80642      -8.68002
Nuclear contribution   :    -51.74762     -34.81333      10.48914
                        -----------------------------------------
Total Dipole Moment    :     -1.95824       0.99309       1.80912
                        -----------------------------------------
Magnitude (a.u.)       :      2.84497
Magnitude (Debye)      :      7.23133

Rotational constants in cm-1:     0.029787     0.017017     0.012639
Rotational constants in MHz :   892.995849   510.169225   378.902547

                             ****ORCA TERMINATED NORMALLY****
TOTAL RUN TIME: 0 days 0 hours 3 minutes 42 seconds 947 msec
