                         Program Version 5.0.3 -  RELEASE  -
|  1> ! EnGrad PBEh-3c
|  2> %output
|  3> xyzfile=True
|  4> end
|  5> %scf
|  6> maxiter 250
|  7> end
|  8> %output
|  9> Print[P_Hirshfeld] = 1
| 10> end
| 11> % maxcore
| 12> 4000
| 13> *xyz 0 1
| 14> C   -1.33038417   0.12663184  -0.83774160
| 15> C   -2.25223925  -0.85514071  -1.13355485
| 16> C   -2.08013938  -2.16148528  -0.68210726
| 17> C   -0.99022784  -2.42853110   0.14135346
| 18> C   -0.20919956  -0.19995367  -0.10476655
| 19> C   -0.07358709  -1.45152856   0.45309718
| 20> H   -1.49215884   1.10026439  -1.26167882
| 21> H   -3.10353219  -0.63713840  -1.77954175
| 22> H   -2.78451241  -2.95306444  -0.96539386
| 23> H    0.75652310  -1.71325069   1.07517662
| 24> H   -0.82713509  -3.45305813   0.46834149
| 25> Pd   1.39314162   0.96171706  -0.21513633
| 26> O    3.54476586   1.51399924  -0.77758160
| 27> O    2.73471969  -0.52338499  -0.62019653
| 28> O    0.31962973   2.65474153   0.29607586
| 29> C   -0.27525855   2.75854394   1.34000992
| 30> O    0.00955426   1.87133245   2.29385257
| 31> H   -0.76810574   1.70433996   2.80743258
| 32> C    3.68538444   0.28086081  -0.86273235
| 33> H    4.65796327  -0.15496030  -1.15305643
| 34> H   -0.93595255   3.57771576   1.52741607
| 35> *
| 36>
| 37>                          ****END OF INPUT****

CARTESIAN COORDINATES (ANGSTROEM)
---------------------------------
  C     -1.330384    0.126632   -0.837742
  C     -2.252239   -0.855141   -1.133555
  C     -2.080139   -2.161485   -0.682107
  C     -0.990228   -2.428531    0.141353
  C     -0.209200   -0.199954   -0.104767
  C     -0.073587   -1.451529    0.453097
  H     -1.492159    1.100264   -1.261679
  H     -3.103532   -0.637138   -1.779542
  H     -2.784512   -2.953064   -0.965394
  H      0.756523   -1.713251    1.075177
  H     -0.827135   -3.453058    0.468341
  Pd     1.393142    0.961717   -0.215136
  O      3.544766    1.513999   -0.777582
  O      2.734720   -0.523385   -0.620197
  O      0.319630    2.654742    0.296076
  C     -0.275259    2.758544    1.340010
  O      0.009554    1.871332    2.293853
  H     -0.768106    1.704340    2.807433
  C      3.685384    0.280861   -0.862732
  H      4.657963   -0.154960   -1.153056
  H     -0.935953    3.577716    1.527416

 Total Charge           Charge          ....    0
 Multiplicity           Mult            ....    1
 Number of Electrons    NEL             ....  106
 Basis Dimension        Dim             ....  227

ORBITAL ENERGIES
----------------

  NO   OCC          E(Eh)            E(eV)
   0   2.0000     -19.599089      -533.3183
   1   2.0000     -19.579261      -532.7788
   2   2.0000     -19.485326      -530.2227
   3   2.0000     -19.468538      -529.7659
   4   2.0000     -10.647895      -289.7439
   5   2.0000     -10.545440      -286.9560
   6   2.0000     -10.446783      -284.2714
   7   2.0000     -10.439354      -284.0693
   8   2.0000     -10.436971      -284.0044
   9   2.0000     -10.436363      -283.9879
  10   2.0000     -10.435406      -283.9618
  11   2.0000     -10.429704      -283.8067
  12   2.0000      -3.638666       -99.0131
  13   2.0000      -2.286862       -62.2287
  14   2.0000      -2.282974       -62.1229
  15   2.0000      -2.252208       -61.2857
  16   2.0000      -1.293461       -35.1969
  17   2.0000      -1.205106       -32.7926
  18   2.0000      -1.176403       -32.0115
  19   2.0000      -1.069182       -29.0939
  20   2.0000      -0.947814       -25.7913
  21   2.0000      -0.830733       -22.6054
  22   2.0000      -0.820803       -22.3352
  23   2.0000      -0.781237       -21.2585
  24   2.0000      -0.720809       -19.6142
  25   2.0000      -0.670438       -18.2435
  26   2.0000      -0.661403       -17.9977
  27   2.0000      -0.649532       -17.6747
  28   2.0000      -0.619165       -16.8483
  29   2.0000      -0.586866       -15.9694
  30   2.0000      -0.573293       -15.6001
  31   2.0000      -0.541851       -14.7445
  32   2.0000      -0.512586       -13.9482
  33   2.0000      -0.511180       -13.9099
  34   2.0000      -0.503653       -13.7051
  35   2.0000      -0.500787       -13.6271
  36   2.0000      -0.481748       -13.1090
  37   2.0000      -0.473231       -12.8773
  38   2.0000      -0.452881       -12.3235
  39   2.0000      -0.446591       -12.1524
  40   2.0000      -0.445075       -12.1111
  41   2.0000      -0.421074       -11.4580
  42   2.0000      -0.389376       -10.5955
  43   2.0000      -0.373228       -10.1560
  44   2.0000      -0.370646       -10.0858
  45   2.0000      -0.352931        -9.6037
  46   2.0000      -0.343232        -9.3398
  47   2.0000      -0.324914        -8.8413
  48   2.0000      -0.311177        -8.4676
  49   2.0000      -0.301712        -8.2100
  50   2.0000      -0.287297        -7.8177
  51   2.0000      -0.278174        -7.5695
  52   2.0000      -0.263070        -7.1585
  53   0.0000      -0.043703        -1.1892
  54   0.0000      -0.015872        -0.4319
  55   0.0000       0.029675         0.8075
  56   0.0000       0.032111         0.8738
  57   0.0000       0.053948         1.4680

MULLIKEN ATOMIC CHARGES
-----------------------
   0 C :   -0.244934
   1 C :   -0.232074
   2 C :   -0.223646
   3 C :   -0.233910
   4 C :   -0.128059
   5 C :   -0.215377
   6 H :    0.222547
   7 H :    0.210998
   8 H :    0.213594
   9 H :    0.237596
  10 H :    0.214284
  11 Pd:    0.364830
  12 O :   -0.467573
  13 O :   -0.487961
  14 O :   -0.358457
  15 C :    0.377324
  16 O :   -0.519856
  17 H :    0.467253
  18 C :    0.377379
  19 H :    0.176856
  20 H :    0.249186
Sum of atomic charges:   -0.0000000

LOEWDIN ATOMIC CHARGES
----------------------
   0 C :   -0.140465
   1 C :   -0.131200
   2 C :   -0.149335
   3 C :   -0.126929
   4 C :   -0.006826
   5 C :   -0.113871
   6 H :    0.146780
   7 H :    0.131934
   8 H :    0.134243
   9 H :    0.157095
  10 H :    0.133963
  11 Pd:   -0.307607
  12 O :   -0.215206
  13 O :   -0.174774
  14 O :   -0.022578
  15 C :    0.190484
  16 O :   -0.230217
  17 H :    0.349370
  18 C :    0.133476
  19 H :    0.104824
  20 H :    0.136840

  Mayer bond orders larger than 0.100000
B(  0-C ,  1-C ) :   1.4243 B(  0-C ,  4-C ) :   1.3754 B(  0-C ,  6-H ) :   0.9114
B(  1-C ,  2-C ) :   1.4352 B(  1-C ,  7-H ) :   0.9194 B(  2-C ,  3-C ) :   1.4177
B(  2-C ,  8-H ) :   0.9213 B(  3-C ,  5-C ) :   1.4281 B(  3-C , 10-H ) :   0.9190
B(  4-C ,  5-C ) :   1.3898 B(  4-C , 11-Pd) :   0.9231 B(  5-C ,  9-H ) :   0.9102
B( 11-Pd, 12-O ) :   0.3358 B( 11-Pd, 13-O ) :   0.5478 B( 11-Pd, 14-O ) :   0.3525
B( 12-O , 13-O ) :   0.1171 B( 12-O , 18-C ) :   1.6247 B( 13-O , 18-C ) :   1.4215
B( 14-O , 15-C ) :   1.8016 B( 15-C , 16-O ) :   1.1715 B( 15-C , 20-H ) :   0.8625
B( 16-O , 17-H ) :   0.7390 B( 18-C , 19-H ) :   0.8842

Dispersion correction           -0.012960790
FINAL SINGLE POINT ENERGY      -737.121053680602
Dispersion correction            ... done

DIPOLE MOMENT
-------------
                                X             Y             Z
Electronic contribution:     50.30047      37.07485      -8.25450
Nuclear contribution   :    -52.26485     -35.98161       9.97676
                        -----------------------------------------
Total Dipole Moment    :     -1.96438       1.09324       1.72225
                        -----------------------------------------
Magnitude (a.u.)       :      2.83198
Magnitude (Debye)      :      7.19833

Rotational constants in cm-1:     0.029693     0.017034     0.012653
Rotational constants in MHz :   890.176113   510.680870   379.334904

                             ****ORCA TERMINATED NORMALLY****
TOTAL RUN TIME: 0 days 0 hours 3 minutes 54 seconds 842 msec
