                         Program Version 5.0.3 -  RELEASE  -
|  1> ! EnGrad PBEh-3c
|  2> %output
|  3> xyzfile=True
|  4> end
|  5> %scf
|  6> maxiter 250
|  7> end
|  8> %output
|  9> Print[P_Hirshfeld] = 1
| 10> end
| 11> % maxcore
| 12> 4000
| 13> *xyz 0 1
| 14> C   -1.33918444   0.12644408  -0.83441346
| 15> C   -2.25482161  -0.86131696  -1.13877295
| 16> C   -2.07074198  -2.16150812  -0.68959119
| 17> C   -0.99139878  -2.43580420   0.14056297
| 18> C   -0.20616778  -0.19106493  -0.09613147
| 19> C   -0.07873801  -1.45656653   0.46284464
| 20> H   -1.49479102   1.10866879  -1.24601659
| 21> H   -3.08935318  -0.63935133  -1.78425393
| 22> H   -2.76352889  -2.95771689  -0.98627649
| 23> H    0.75443234  -1.70341267   1.09103200
| 24> H   -0.81878146  -3.44655696   0.46473498
| 25> Pd   1.39283386   0.96493894  -0.20723623
| 26> O    3.53443139   1.50632843  -0.79114896
| 27> O    2.72723610  -0.52698759  -0.61253824
| 28> O    0.32170521   2.66242796   0.29974823
| 29> C   -0.25707011   2.74926024   1.34040302
| 30> O    0.00201884   1.87188618   2.28945334
| 31> H   -0.76804888   1.70780811   2.80047620
| 32> C    3.67672571   0.27415193  -0.86611288
| 33> H    4.64230524  -0.16356950  -1.16179854
| 34> H   -0.94416908   3.59360400   1.53637148
| 35> *
| 36>
| 37>                          ****END OF INPUT****

CARTESIAN COORDINATES (ANGSTROEM)
---------------------------------
  C     -1.339184    0.126444   -0.834413
  C     -2.254822   -0.861317   -1.138773
  C     -2.070742   -2.161508   -0.689591
  C     -0.991399   -2.435804    0.140563
  C     -0.206168   -0.191065   -0.096131
  C     -0.078738   -1.456567    0.462845
  H     -1.494791    1.108669   -1.246017
  H     -3.089353   -0.639351   -1.784254
  H     -2.763529   -2.957717   -0.986276
  H      0.754432   -1.703413    1.091032
  H     -0.818781   -3.446557    0.464735
  Pd     1.392834    0.964939   -0.207236
  O      3.534431    1.506328   -0.791149
  O      2.727236   -0.526988   -0.612538
  O      0.321705    2.662428    0.299748
  C     -0.257070    2.749260    1.340403
  O      0.002019    1.871886    2.289453
  H     -0.768049    1.707808    2.800476
  C      3.676726    0.274152   -0.866113
  H      4.642305   -0.163570   -1.161799
  H     -0.944169    3.593604    1.536371

 Total Charge           Charge          ....    0
 Multiplicity           Mult            ....    1
 Number of Electrons    NEL             ....  106
 Basis Dimension        Dim             ....  227

ORBITAL ENERGIES
----------------

  NO   OCC          E(Eh)            E(eV)
   0   2.0000     -19.599631      -533.3331
   1   2.0000     -19.579217      -532.7776
   2   2.0000     -19.485901      -530.2383
   3   2.0000     -19.469410      -529.7896
   4   2.0000     -10.648351      -289.7564
   5   2.0000     -10.545666      -286.9622
   6   2.0000     -10.448025      -284.3052
   7   2.0000     -10.437774      -284.0263
   8   2.0000     -10.436154      -283.9822
   9   2.0000     -10.435927      -283.9760
  10   2.0000     -10.434992      -283.9506
  11   2.0000     -10.430699      -283.8338
  12   2.0000      -3.640048       -99.0507
  13   2.0000      -2.288337       -62.2688
  14   2.0000      -2.284324       -62.1596
  15   2.0000      -2.253516       -61.3213
  16   2.0000      -1.301000       -35.4020
  17   2.0000      -1.213208       -33.0131
  18   2.0000      -1.178124       -32.0584
  19   2.0000      -1.070350       -29.1257
  20   2.0000      -0.945807       -25.7367
  21   2.0000      -0.830097       -22.5881
  22   2.0000      -0.819526       -22.3004
  23   2.0000      -0.781089       -21.2545
  24   2.0000      -0.719832       -19.5876
  25   2.0000      -0.670532       -18.2461
  26   2.0000      -0.661110       -17.9897
  27   2.0000      -0.651044       -17.7158
  28   2.0000      -0.621548       -16.9132
  29   2.0000      -0.591074       -16.0840
  30   2.0000      -0.573191       -15.5973
  31   2.0000      -0.542950       -14.7744
  32   2.0000      -0.512980       -13.9589
  33   2.0000      -0.512452       -13.9445
  34   2.0000      -0.502907       -13.6848
  35   2.0000      -0.502054       -13.6616
  36   2.0000      -0.483005       -13.1432
  37   2.0000      -0.473452       -12.8833
  38   2.0000      -0.453118       -12.3300
  39   2.0000      -0.447844       -12.1865
  40   2.0000      -0.444314       -12.0904
  41   2.0000      -0.419738       -11.4217
  42   2.0000      -0.390449       -10.6247
  43   2.0000      -0.374838       -10.1999
  44   2.0000      -0.371552       -10.1104
  45   2.0000      -0.354306        -9.6412
  46   2.0000      -0.344278        -9.3683
  47   2.0000      -0.325845        -8.8667
  48   2.0000      -0.312427        -8.5016
  49   2.0000      -0.303025        -8.2457
  50   2.0000      -0.286877        -7.8063
  51   2.0000      -0.278863        -7.5883
  52   2.0000      -0.262213        -7.1352
  53   0.0000      -0.039092        -1.0637
  54   0.0000      -0.014655        -0.3988
  55   0.0000       0.029400         0.8000
  56   0.0000       0.031801         0.8653
  57   0.0000       0.054283         1.4771

MULLIKEN ATOMIC CHARGES
-----------------------
   0 C :   -0.252016
   1 C :   -0.223913
   2 C :   -0.228143
   3 C :   -0.225819
   4 C :   -0.129962
   5 C :   -0.223445
   6 H :    0.221298
   7 H :    0.212699
   8 H :    0.211947
   9 H :    0.236978
  10 H :    0.215900
  11 Pd:    0.363964
  12 O :   -0.467415
  13 O :   -0.486999
  14 O :   -0.349877
  15 C :    0.372649
  16 O :   -0.512955
  17 H :    0.470009
  18 C :    0.378044
  19 H :    0.177659
  20 H :    0.239397
Sum of atomic charges:   -0.0000000

LOEWDIN ATOMIC CHARGES
----------------------
   0 C :   -0.139562
   1 C :   -0.133252
   2 C :   -0.147417
   3 C :   -0.129214
   4 C :   -0.008650
   5 C :   -0.112934
   6 H :    0.145604
   7 H :    0.132813
   8 H :    0.133625
   9 H :    0.156125
  10 H :    0.134730
  11 Pd:   -0.308800
  12 O :   -0.213291
  13 O :   -0.173729
  14 O :   -0.016023
  15 C :    0.177372
  16 O :   -0.219979
  17 H :    0.350055
  18 C :    0.132968
  19 H :    0.105156
  20 H :    0.134402

  Mayer bond orders larger than 0.100000
B(  0-C ,  1-C ) :   1.4236 B(  0-C ,  4-C ) :   1.3770 B(  0-C ,  6-H ) :   0.9118
B(  1-C ,  2-C ) :   1.4373 B(  1-C ,  7-H ) :   0.9192 B(  2-C ,  3-C ) :   1.4160
B(  2-C ,  8-H ) :   0.9220 B(  3-C ,  5-C ) :   1.4320 B(  3-C , 10-H ) :   0.9188
B(  4-C ,  5-C ) :   1.3866 B(  4-C , 11-Pd) :   0.9247 B(  5-C ,  9-H ) :   0.9104
B( 11-Pd, 12-O ) :   0.3382 B( 11-Pd, 13-O ) :   0.5492 B( 11-Pd, 14-O ) :   0.3528
B( 12-O , 13-O ) :   0.1170 B( 12-O , 18-C ) :   1.6237 B( 13-O , 18-C ) :   1.4219
B( 14-O , 15-C ) :   1.8059 B( 15-C , 16-O ) :   1.1764 B( 15-C , 20-H ) :   0.8628
B( 16-O , 17-H ) :   0.7367 B( 18-C , 19-H ) :   0.8847

Dispersion correction           -0.012964033
FINAL SINGLE POINT ENERGY      -737.122906731115
Dispersion correction            ... done

DIPOLE MOMENT
-------------
                                X             Y             Z
Electronic contribution:     50.40371      37.24522      -7.89722
Nuclear contribution   :    -52.30337     -36.16598       9.61770
                        -----------------------------------------
Total Dipole Moment    :     -1.89966       1.07924       1.72048
                        -----------------------------------------
Magnitude (a.u.)       :      2.78092
Magnitude (Debye)      :      7.06854

Rotational constants in cm-1:     0.029690     0.017058     0.012667
Rotational constants in MHz :   890.076509   511.372142   379.759806

                             ****ORCA TERMINATED NORMALLY****
TOTAL RUN TIME: 0 days 0 hours 3 minutes 55 seconds 983 msec
