                         Program Version 5.0.3 -  RELEASE  -
|  1> ! EnGrad PBEh-3c
|  2> %output
|  3> xyzfile=True
|  4> end
|  5> %scf
|  6> maxiter 250
|  7> end
|  8> %output
|  9> Print[P_Hirshfeld] = 1
| 10> end
| 11> % maxcore
| 12> 4000
| 13> *xyz 0 1
| 14> C   -1.34576407   0.12512434  -0.83037166
| 15> C   -2.25897427  -0.87181813  -1.14437934
| 16> C   -2.06339572  -2.16373634  -0.69794951
| 17> C   -0.99501756  -2.44506478   0.13635572
| 18> C   -0.20026819  -0.17794119  -0.08523453
| 19> C   -0.08464283  -1.45904830   0.47063679
| 20> H   -1.49787544   1.12022347  -1.23101504
| 21> H   -3.07681283  -0.64035482  -1.79053891
| 22> H   -2.73691037  -2.95805435  -1.00696520
| 23> H    0.75553350  -1.69493952   1.10931683
| 24> H   -0.81003053  -3.44332272   0.46380336
| 25> Pd   1.39589662   0.96804475  -0.19877210
| 26> O    3.52072117   1.49677494  -0.80402211
| 27> O    2.71833614  -0.52957345  -0.60512765
| 28> O    0.32720840   2.67365267   0.28580573
| 29> C   -0.24162518   2.74686459   1.34557632
| 30> O    0.00120363   1.87368029   2.28074764
| 31> H   -0.78195382   1.70781436   2.81054221
| 32> C    3.66713688   0.26640340  -0.86972330
| 33> H    4.62553940  -0.17281511  -1.17107626
| 34> H   -0.94868865   3.60289555   1.54622944
| 35> *
| 36>
| 37>                          ****END OF INPUT****

CARTESIAN COORDINATES (ANGSTROEM)
---------------------------------
  C     -1.345764    0.125124   -0.830372
  C     -2.258974   -0.871818   -1.144379
  C     -2.063396   -2.163736   -0.697950
  C     -0.995018   -2.445065    0.136356
  C     -0.200268   -0.177941   -0.085235
  C     -0.084643   -1.459048    0.470637
  H     -1.497875    1.120223   -1.231015
  H     -3.076813   -0.640355   -1.790539
  H     -2.736910   -2.958054   -1.006965
  H      0.755533   -1.694940    1.109317
  H     -0.810031   -3.443323    0.463803
  Pd     1.395897    0.968045   -0.198772
  O      3.520721    1.496775   -0.804022
  O      2.718336   -0.529573   -0.605128
  O      0.327208    2.673653    0.285806
  C     -0.241625    2.746865    1.345576
  O      0.001204    1.873680    2.280748
  H     -0.781954    1.707814    2.810542
  C      3.667137    0.266403   -0.869723
  H      4.625539   -0.172815   -1.171076
  H     -0.948689    3.602896    1.546229

 Total Charge           Charge          ....    0
 Multiplicity           Mult            ....    1
 Number of Electrons    NEL             ....  106
 Basis Dimension        Dim             ....  227

ORBITAL ENERGIES
----------------

  NO   OCC          E(Eh)            E(eV)
   0   2.0000     -19.606042      -533.5075
   1   2.0000     -19.578123      -532.7478
   2   2.0000     -19.486109      -530.2440
   3   2.0000     -19.470054      -529.8071
   4   2.0000     -10.650671      -289.8195
   5   2.0000     -10.545618      -286.9609
   6   2.0000     -10.448027      -284.3053
   7   2.0000     -10.437011      -284.0055
   8   2.0000     -10.435748      -283.9711
   9   2.0000     -10.433792      -283.9179
  10   2.0000     -10.433117      -283.8995
  11   2.0000     -10.431856      -283.8652
  12   2.0000      -3.640860       -99.0728
  13   2.0000      -2.289205       -62.2924
  14   2.0000      -2.285122       -62.1813
  15   2.0000      -2.254164       -61.3389
  16   2.0000      -1.301514       -35.4160
  17   2.0000      -1.210805       -32.9477
  18   2.0000      -1.180428       -32.1211
  19   2.0000      -1.071468       -29.1561
  20   2.0000      -0.942566       -25.6485
  21   2.0000      -0.827015       -22.5042
  22   2.0000      -0.818347       -22.2684
  23   2.0000      -0.781354       -21.2617
  24   2.0000      -0.716696       -19.5023
  25   2.0000      -0.669299       -18.2126
  26   2.0000      -0.659923       -17.9574
  27   2.0000      -0.652460       -17.7543
  28   2.0000      -0.619974       -16.8703
  29   2.0000      -0.591837       -16.1047
  30   2.0000      -0.572129       -15.5684
  31   2.0000      -0.544133       -14.8066
  32   2.0000      -0.513901       -13.9840
  33   2.0000      -0.510875       -13.9016
  34   2.0000      -0.502800       -13.6819
  35   2.0000      -0.500191       -13.6109
  36   2.0000      -0.484550       -13.1853
  37   2.0000      -0.471209       -12.8222
  38   2.0000      -0.452804       -12.3214
  39   2.0000      -0.448010       -12.1910
  40   2.0000      -0.443128       -12.0581
  41   2.0000      -0.417422       -11.3586
  42   2.0000      -0.390108       -10.6154
  43   2.0000      -0.376108       -10.2344
  44   2.0000      -0.371786       -10.1168
  45   2.0000      -0.355281        -9.6677
  46   2.0000      -0.344674        -9.3790
  47   2.0000      -0.325931        -8.8690
  48   2.0000      -0.313202        -8.5227
  49   2.0000      -0.303683        -8.2636
  50   2.0000      -0.284972        -7.7545
  51   2.0000      -0.278405        -7.5758
  52   2.0000      -0.260934        -7.1004
  53   0.0000      -0.038125        -1.0374
  54   0.0000      -0.014382        -0.3913
  55   0.0000       0.029330         0.7981
  56   0.0000       0.031914         0.8684
  57   0.0000       0.050862         1.3840

MULLIKEN ATOMIC CHARGES
-----------------------
   0 C :   -0.262106
   1 C :   -0.215554
   2 C :   -0.231517
   3 C :   -0.217368
   4 C :   -0.128645
   5 C :   -0.235158
   6 H :    0.219480
   7 H :    0.213630
   8 H :    0.211077
   9 H :    0.235148
  10 H :    0.216636
  11 Pd:    0.364387
  12 O :   -0.467234
  13 O :   -0.486016
  14 O :   -0.360062
  15 C :    0.376756
  16 O :   -0.500984
  17 H :    0.474876
  18 C :    0.379087
  19 H :    0.178511
  20 H :    0.235054
Sum of atomic charges:   -0.0000000

LOEWDIN ATOMIC CHARGES
----------------------
   0 C :   -0.137911
   1 C :   -0.135686
   2 C :   -0.146429
   3 C :   -0.131850
   4 C :   -0.013514
   5 C :   -0.111889
   6 H :    0.144266
   7 H :    0.133456
   8 H :    0.133024
   9 H :    0.154806
  10 H :    0.135258
  11 Pd:   -0.312362
  12 O :   -0.210097
  13 O :   -0.171514
  14 O :   -0.027582
  15 C :    0.174619
  16 O :   -0.206533
  17 H :    0.358638
  18 C :    0.132337
  19 H :    0.105629
  20 H :    0.133335

  Mayer bond orders larger than 0.100000
B(  0-C ,  1-C ) :   1.4206 B(  0-C ,  4-C ) :   1.3785 B(  0-C ,  6-H ) :   0.9120
B(  1-C ,  2-C ) :   1.4398 B(  1-C ,  7-H ) :   0.9193 B(  2-C ,  3-C ) :   1.4149
B(  2-C ,  8-H ) :   0.9224 B(  3-C ,  5-C ) :   1.4342 B(  3-C , 10-H ) :   0.9189
B(  4-C ,  5-C ) :   1.3815 B(  4-C , 11-Pd) :   0.9257 B(  5-C ,  9-H ) :   0.9107
B( 11-Pd, 12-O ) :   0.3426 B( 11-Pd, 13-O ) :   0.5504 B( 11-Pd, 14-O ) :   0.3609
B( 12-O , 13-O ) :   0.1166 B( 12-O , 18-C ) :   1.6206 B( 13-O , 18-C ) :   1.4229
B( 14-O , 15-C ) :   1.7834 B( 15-C , 16-O ) :   1.1947 B( 15-C , 20-H ) :   0.8636
B( 16-O , 17-H ) :   0.7308 B( 18-C , 19-H ) :   0.8855

Dispersion correction           -0.012954863
FINAL SINGLE POINT ENERGY      -737.123869018184
Dispersion correction            ... done

DIPOLE MOMENT
-------------
                                X             Y             Z
Electronic contribution:     50.64476      37.41353      -7.40183
Nuclear contribution   :    -52.48927     -36.33179       9.18596
                        -----------------------------------------
Total Dipole Moment    :     -1.84451       1.08174       1.78413
                        -----------------------------------------
Magnitude (a.u.)       :      2.78487
Magnitude (Debye)      :      7.07858

Rotational constants in cm-1:     0.029696     0.017067     0.012677
Rotational constants in MHz :   890.271829   511.644445   380.035685

                             ****ORCA TERMINATED NORMALLY****
TOTAL RUN TIME: 0 days 0 hours 3 minutes 53 seconds 818 msec
