                         Program Version 5.0.3 -  RELEASE  -
|  1> ! EnGrad PBEh-3c
|  2> %output
|  3> xyzfile=True
|  4> end
|  5> %scf
|  6> maxiter 250
|  7> end
|  8> %output
|  9> Print[P_Hirshfeld] = 1
| 10> end
| 11> % maxcore
| 12> 4000
| 13> *xyz 0 1
| 14> C   -1.58826290   0.19646451  -0.47342331
| 15> C   -1.97887542  -0.84743904  -1.30163047
| 16> C   -1.57288974  -2.14379021  -1.02769430
| 17> C   -0.69857366  -2.39799580   0.01776686
| 18> C   -0.82202651  -0.13051368   0.62876414
| 19> C   -0.31074055  -1.38581837   0.88191727
| 20> H   -1.99346771   1.16268356  -0.74576927
| 21> H   -2.66535447  -0.66757748  -2.11740726
| 22> H   -1.95340737  -2.95744477  -1.62635551
| 23> H    0.37102260  -1.64538343   1.68056978
| 24> H   -0.38310113  -3.41399185   0.21168328
| 25> Pd   1.42878990   1.12765821  -0.07563850
| 26> O    3.12501796   1.21209855  -1.34582417
| 27> O    2.64755792  -0.52146126  -0.14641444
| 28> O    0.36579420   2.85965046   0.10332633
| 29> C    0.03336848   2.98235954   1.28259602
| 30> O    0.44610867   2.15708858   2.17215799
| 31> H   -1.33344940   1.15850856   2.77218062
| 32> C    3.34949778   0.02074578  -1.04099809
| 33> H    4.21410021  -0.52226716  -1.44085785
| 34> H   -0.68110362   3.75641530   1.59106139
| 35> *
| 36>
| 37>                          ****END OF INPUT****

CARTESIAN COORDINATES (ANGSTROEM)
---------------------------------
  C     -1.588263    0.196465   -0.473423
  C     -1.978875   -0.847439   -1.301630
  C     -1.572890   -2.143790   -1.027694
  C     -0.698574   -2.397996    0.017767
  C     -0.822027   -0.130514    0.628764
  C     -0.310741   -1.385818    0.881917
  H     -1.993468    1.162684   -0.745769
  H     -2.665354   -0.667577   -2.117407
  H     -1.953407   -2.957445   -1.626356
  H      0.371023   -1.645383    1.680570
  H     -0.383101   -3.413992    0.211683
  Pd     1.428790    1.127658   -0.075638
  O      3.125018    1.212099   -1.345824
  O      2.647558   -0.521461   -0.146414
  O      0.365794    2.859650    0.103326
  C      0.033368    2.982360    1.282596
  O      0.446109    2.157089    2.172158
  H     -1.333449    1.158509    2.772181
  C      3.349498    0.020746   -1.040998
  H      4.214100   -0.522267   -1.440858
  H     -0.681104    3.756415    1.591061

 Total Charge           Charge          ....    0
 Multiplicity           Mult            ....    1
 Number of Electrons    NEL             ....  106
 Basis Dimension        Dim             ....  227

ORBITAL ENERGIES
----------------

  NO   OCC          E(Eh)            E(eV)
   0   2.0000     -19.535509      -531.5882
   1   2.0000     -19.527718      -531.3762
   2   2.0000     -19.523614      -531.2646
   3   2.0000     -19.482356      -530.1419
   4   2.0000     -10.591337      -288.2049
   5   2.0000     -10.563974      -287.4603
   6   2.0000     -10.506165      -285.8873
   7   2.0000     -10.475805      -285.0611
   8   2.0000     -10.472972      -284.9840
   9   2.0000     -10.467789      -284.8430
  10   2.0000     -10.466969      -284.8207
  11   2.0000     -10.466393      -284.8050
  12   2.0000      -3.687699      -100.3474
  13   2.0000      -2.342289       -63.7369
  14   2.0000      -2.324022       -63.2399
  15   2.0000      -2.298763       -62.5525
  16   2.0000      -1.234746       -33.5991
  17   2.0000      -1.204081       -32.7647
  18   2.0000      -1.118714       -30.4418
  19   2.0000      -1.077966       -29.3330
  20   2.0000      -0.980108       -26.6701
  21   2.0000      -0.863270       -23.4908
  22   2.0000      -0.848487       -23.0885
  23   2.0000      -0.699785       -19.0421
  24   2.0000      -0.697955       -18.9923
  25   2.0000      -0.688190       -18.7266
  26   2.0000      -0.674838       -18.3633
  27   2.0000      -0.599120       -16.3029
  28   2.0000      -0.591376       -16.0922
  29   2.0000      -0.570204       -15.5161
  30   2.0000      -0.560979       -15.2650
  31   2.0000      -0.537664       -14.6306
  32   2.0000      -0.533499       -14.5172
  33   2.0000      -0.529198       -14.4002
  34   2.0000      -0.524908       -14.2835
  35   2.0000      -0.509596       -13.8668
  36   2.0000      -0.501009       -13.6331
  37   2.0000      -0.459108       -12.4930
  38   2.0000      -0.448779       -12.2119
  39   2.0000      -0.431711       -11.7474
  40   2.0000      -0.424993       -11.5646
  41   2.0000      -0.412214       -11.2169
  42   2.0000      -0.401120       -10.9150
  43   2.0000      -0.389633       -10.6024
  44   2.0000      -0.384276       -10.4567
  45   2.0000      -0.359998        -9.7960
  46   2.0000      -0.355649        -9.6777
  47   2.0000      -0.344496        -9.3742
  48   2.0000      -0.335794        -9.1374
  49   2.0000      -0.324233        -8.8228
  50   2.0000      -0.313930        -8.5425
  51   2.0000      -0.303376        -8.2553
  52   2.0000      -0.261994        -7.1292
  53   0.0000      -0.127426        -3.4674
  54   0.0000      -0.098634        -2.6840
  55   0.0000      -0.001532        -0.0417
  56   0.0000       0.006052         0.1647
  57   0.0000       0.022026         0.5993

MULLIKEN ATOMIC CHARGES
-----------------------
   0 C :   -0.214332
   1 C :   -0.227351
   2 C :   -0.209813
   3 C :   -0.224914
   4 C :   -0.132834
   5 C :   -0.216286
   6 H :    0.259746
   7 H :    0.237490
   8 H :    0.234449
   9 H :    0.268829
  10 H :    0.235288
  11 Pd:    0.509805
  12 O :   -0.448284
  13 O :   -0.459633
  14 O :   -0.446279
  15 C :    0.353679
  16 O :   -0.448523
  17 H :    0.115640
  18 C :    0.411766
  19 H :    0.207771
  20 H :    0.193787
Sum of atomic charges:   -0.0000000

LOEWDIN ATOMIC CHARGES
----------------------
   0 C :   -0.113629
   1 C :   -0.125792
   2 C :   -0.119920
   3 C :   -0.121139
   4 C :   -0.017986
   5 C :   -0.105328
   6 H :    0.162245
   7 H :    0.143074
   8 H :    0.142449
   9 H :    0.165762
  10 H :    0.143396
  11 Pd:   -0.138099
  12 O :   -0.147268
  13 O :   -0.141381
  14 O :   -0.118903
  15 C :    0.112548
  16 O :   -0.253931
  17 H :    0.137708
  18 C :    0.162104
  19 H :    0.122875
  20 H :    0.111213

  Mayer bond orders larger than 0.100000
B(  0-C ,  1-C ) :   1.4058 B(  0-C ,  4-C ) :   1.3656 B(  0-C ,  6-H ) :   0.8978
B(  1-C ,  2-C ) :   1.4267 B(  1-C ,  7-H ) :   0.9087 B(  2-C ,  3-C ) :   1.4202
B(  2-C ,  8-H ) :   0.9151 B(  3-C ,  5-C ) :   1.4106 B(  3-C , 10-H ) :   0.9098
B(  4-C ,  5-C ) :   1.3978 B(  4-C , 11-Pd) :   0.2927 B(  4-C , 17-H ) :   0.6008
B(  5-C ,  9-H ) :   0.8942 B( 11-Pd, 12-O ) :   0.5017 B( 11-Pd, 13-O ) :   0.5839
B( 11-Pd, 14-O ) :   0.5767 B( 11-Pd, 16-O ) :   0.2004 B( 12-O , 13-O ) :   0.1132
B( 12-O , 18-C ) :   1.5292 B( 13-O , 18-C ) :   1.4278 B( 14-O , 15-C ) :   1.4429
B( 15-C , 16-O ) :   1.6276 B( 15-C , 20-H ) :   0.8794 B( 16-O , 17-H ) :   0.1418
B( 18-C , 19-H ) :   0.8848

Dispersion correction           -0.013510128
FINAL SINGLE POINT ENERGY      -736.898678011609
Dispersion correction            ... done

DIPOLE MOMENT
-------------
                                X             Y             Z
Electronic contribution:     53.24697      41.64381      -4.29971
Nuclear contribution   :    -53.98154     -42.67623       3.71310
                        -----------------------------------------
Total Dipole Moment    :     -0.73457      -1.03242      -0.58661
                        -----------------------------------------
Magnitude (a.u.)       :      1.39628
Magnitude (Debye)      :      3.54905

Rotational constants in cm-1:     0.027964     0.017841     0.013264
Rotational constants in MHz :   838.348952   534.862377   397.631007

                             ****ORCA TERMINATED NORMALLY****
TOTAL RUN TIME: 0 days 0 hours 4 minutes 34 seconds 585 msec
