                         Program Version 5.0.3 -  RELEASE  -
|  1> ! EnGrad PBEh-3c
|  2> %output
|  3> xyzfile=True
|  4> end
|  5> %scf
|  6> maxiter 250
|  7> end
|  8> %output
|  9> Print[P_Hirshfeld] = 1
| 10> end
| 11> % maxcore
| 12> 4000
| 13> *xyz 0 1
| 14> C   -1.56043405   0.19949717  -0.43795783
| 15> C   -2.04196616  -0.84656874  -1.22540563
| 16> C   -1.65546074  -2.15763303  -0.96890696
| 17> C   -0.76942891  -2.39854328   0.06871362
| 18> C   -0.69449161   0.02278719   0.70636267
| 19> C   -0.31145838  -1.35184102   0.86342119
| 20> H   -1.87017079   1.20662372  -0.68241698
| 21> H   -2.68461278  -0.65319569  -2.06857502
| 22> H   -2.01940925  -2.98102329  -1.58276011
| 23> H    0.37954740  -1.56791497   1.66391788
| 24> H   -0.42460752  -3.40118862   0.24857700
| 25> Pd   1.25932354   0.96694217  -0.00619722
| 26> O    3.15728059   1.30779551  -1.23445998
| 27> O    2.53184991  -0.54591571  -0.24641608
| 28> O    0.34773716   2.70255018   0.17574795
| 29> C   -0.01837760   2.90096978   1.36273636
| 30> O    0.15659136   2.12245544   2.34217609
| 31> H   -0.68657441   0.96436198   1.86934555
| 32> C    3.33355560   0.10370527  -0.99087965
| 33> H    4.20877134  -0.43746627  -1.36527421
| 34> H   -0.64337596   3.81951068   1.48783124
| 35> *
| 36>
| 37>                          ****END OF INPUT****

CARTESIAN COORDINATES (ANGSTROEM)
---------------------------------
  C     -1.560434    0.199497   -0.437958
  C     -2.041966   -0.846569   -1.225406
  C     -1.655461   -2.157633   -0.968907
  C     -0.769429   -2.398543    0.068714
  C     -0.694492    0.022787    0.706363
  C     -0.311458   -1.351841    0.863421
  H     -1.870171    1.206624   -0.682417
  H     -2.684613   -0.653196   -2.068575
  H     -2.019409   -2.981023   -1.582760
  H      0.379547   -1.567915    1.663918
  H     -0.424608   -3.401189    0.248577
  Pd     1.259324    0.966942   -0.006197
  O      3.157281    1.307796   -1.234460
  O      2.531850   -0.545916   -0.246416
  O      0.347737    2.702550    0.175748
  C     -0.018378    2.900970    1.362736
  O      0.156591    2.122455    2.342176
  H     -0.686574    0.964362    1.869346
  C      3.333556    0.103705   -0.990880
  H      4.208771   -0.437466   -1.365274
  H     -0.643376    3.819511    1.487831

 Total Charge           Charge          ....    0
 Multiplicity           Mult            ....    1
 Number of Electrons    NEL             ....  106
 Basis Dimension        Dim             ....  227

ORBITAL ENERGIES
----------------

  NO   OCC          E(Eh)            E(eV)
   0   2.0000     -19.537310      -531.6372
   1   2.0000     -19.523130      -531.2514
   2   2.0000     -19.512856      -530.9718
   3   2.0000     -19.494032      -530.4596
   4   2.0000     -10.584068      -288.0071
   5   2.0000     -10.580000      -287.8964
   6   2.0000     -10.484437      -285.2960
   7   2.0000     -10.483972      -285.2834
   8   2.0000     -10.483156      -285.2612
   9   2.0000     -10.480530      -285.1897
  10   2.0000     -10.469914      -284.9008
  11   2.0000     -10.467326      -284.8304
  12   2.0000      -3.685659      -100.2919
  13   2.0000      -2.340251       -63.6815
  14   2.0000      -2.322407       -63.1959
  15   2.0000      -2.297533       -62.5190
  16   2.0000      -1.217846       -33.1393
  17   2.0000      -1.209785       -32.9199
  18   2.0000      -1.110458       -30.2171
  19   2.0000      -1.107663       -30.1411
  20   2.0000      -0.972394       -26.4602
  21   2.0000      -0.855573       -23.2813
  22   2.0000      -0.853674       -23.2297
  23   2.0000      -0.698496       -19.0070
  24   2.0000      -0.697637       -18.9837
  25   2.0000      -0.691338       -18.8123
  26   2.0000      -0.680786       -18.5251
  27   2.0000      -0.606957       -16.5161
  28   2.0000      -0.585959       -15.9448
  29   2.0000      -0.575399       -15.6574
  30   2.0000      -0.563377       -15.3303
  31   2.0000      -0.547577       -14.9003
  32   2.0000      -0.538052       -14.6411
  33   2.0000      -0.531831       -14.4719
  34   2.0000      -0.523084       -14.2338
  35   2.0000      -0.519958       -14.1488
  36   2.0000      -0.495368       -13.4796
  37   2.0000      -0.471227       -12.8227
  38   2.0000      -0.454852       -12.3772
  39   2.0000      -0.436370       -11.8742
  40   2.0000      -0.429807       -11.6956
  41   2.0000      -0.407032       -11.0759
  42   2.0000      -0.404559       -11.0086
  43   2.0000      -0.390691       -10.6313
  44   2.0000      -0.379542       -10.3279
  45   2.0000      -0.376297       -10.2396
  46   2.0000      -0.364350        -9.9145
  47   2.0000      -0.356043        -9.6884
  48   2.0000      -0.344365        -9.3706
  49   2.0000      -0.336358        -9.1528
  50   2.0000      -0.314842        -8.5673
  51   2.0000      -0.309894        -8.4326
  52   2.0000      -0.305233        -8.3058
  53   0.0000      -0.111794        -3.0421
  54   0.0000      -0.010962        -0.2983
  55   0.0000      -0.001450        -0.0395
  56   0.0000       0.023746         0.6462
  57   0.0000       0.035038         0.9534

MULLIKEN ATOMIC CHARGES
-----------------------
   0 C :   -0.138997
   1 C :   -0.223033
   2 C :   -0.198726
   3 C :   -0.216711
   4 C :   -0.539936
   5 C :   -0.143606
   6 H :    0.255083
   7 H :    0.235206
   8 H :    0.241590
   9 H :    0.263209
  10 H :    0.235583
  11 Pd:    0.569820
  12 O :   -0.433021
  13 O :   -0.491521
  14 O :   -0.458864
  15 C :    0.368868
  16 O :   -0.496356
  17 H :    0.384473
  18 C :    0.397157
  19 H :    0.197284
  20 H :    0.192497
Sum of atomic charges:   -0.0000000

LOEWDIN ATOMIC CHARGES
----------------------
   0 C :   -0.059204
   1 C :   -0.144534
   2 C :   -0.078980
   3 C :   -0.140419
   4 C :   -0.190705
   5 C :   -0.050655
   6 H :    0.154839
   7 H :    0.144647
   8 H :    0.145495
   9 H :    0.158383
  10 H :    0.145338
  11 Pd:   -0.166091
  12 O :   -0.170687
  13 O :   -0.159177
  14 O :   -0.117211
  15 C :    0.138977
  16 O :   -0.312164
  17 H :    0.321564
  18 C :    0.151907
  19 H :    0.115582
  20 H :    0.113094

  Mayer bond orders larger than 0.100000
B(  0-C ,  1-C ) :   1.4597 B(  0-C ,  4-C ) :   1.2236 B(  0-C ,  6-H ) :   0.9017
B(  1-C ,  2-C ) :   1.3926 B(  1-C ,  7-H ) :   0.9145 B(  2-C ,  3-C ) :   1.4024
B(  2-C ,  8-H ) :   0.9118 B(  3-C ,  5-C ) :   1.4537 B(  3-C , 10-H ) :   0.9135
B(  4-C ,  5-C ) :   1.2764 B(  4-C , 11-Pd) :   0.3948 B(  4-C , 17-H ) :   0.5833
B(  5-C ,  9-H ) :   0.9000 B( 11-Pd, 12-O ) :   0.4177 B( 11-Pd, 13-O ) :   0.5926
B( 11-Pd, 14-O ) :   0.5682 B( 12-O , 13-O ) :   0.1144 B( 12-O , 18-C ) :   1.6140
B( 13-O , 18-C ) :   1.3828 B( 14-O , 15-C ) :   1.4409 B( 15-C , 16-O ) :   1.6101
B( 15-C , 20-H ) :   0.8751 B( 16-O , 17-H ) :   0.1962 B( 18-C , 19-H ) :   0.8847

Dispersion correction           -0.013938566
FINAL SINGLE POINT ENERGY      -737.066819832533
Dispersion correction            ... done

DIPOLE MOMENT
-------------
                                X             Y             Z
Electronic contribution:     46.61049      34.50725      -2.30898
Nuclear contribution   :    -47.48106     -35.53152       1.74572
                        -----------------------------------------
Total Dipole Moment    :     -0.87057      -1.02427      -0.56326
                        -----------------------------------------
Magnitude (a.u.)       :      1.45749
Magnitude (Debye)      :      3.70465

Rotational constants in cm-1:     0.028554     0.018881     0.013748
Rotational constants in MHz :   856.033468   566.030200   412.162474

                             ****ORCA TERMINATED NORMALLY****
TOTAL RUN TIME: 0 days 0 hours 3 minutes 57 seconds 677 msec
