                         Program Version 5.0.3 -  RELEASE  -
|  1> ! EnGrad PBEh-3c
|  2> %output
|  3> xyzfile=True
|  4> end
|  5> %scf
|  6> maxiter 250
|  7> end
|  8> %output
|  9> Print[P_Hirshfeld] = 1
| 10> end
| 11> % maxcore
| 12> 4000
| 13> *xyz 0 1
| 14> C   -1.54376348   0.20840386  -0.42733124
| 15> C   -2.04421970  -0.84093615  -1.20745221
| 16> C   -1.66412621  -2.15121138  -0.95477881
| 17> C   -0.77730540  -2.39004262   0.07879089
| 18> C   -0.68099398   0.03560569   0.71975412
| 19> C   -0.30691537  -1.34080225   0.87129118
| 20> H   -1.85857508   1.21714838  -0.67186700
| 21> H   -2.68259606  -0.64417586  -2.05367592
| 22> H   -2.01095928  -2.96768464  -1.57471801
| 23> H    0.38599579  -1.56161488   1.67195720
| 24> H   -0.42805231  -3.39233346   0.26021620
| 25> Pd   1.24251241   0.93791331  -0.02774467
| 26> O    3.13721541   1.31652170  -1.19276879
| 27> O    2.51345495  -0.57234343  -0.27037784
| 28> O    0.33148252   2.66672396   0.20902695
| 29> C   -0.05801383   2.88852788   1.39083114
| 30> O    0.03159672   2.10075453   2.38304545
| 31> H   -0.48021828   0.93214312   1.62169665
| 32> C    3.31856310   0.10696496  -0.97982218
| 33> H    4.19737558  -0.42538725  -1.35099672
| 34> H   -0.62840133   3.84545807   1.47889419
| 35> *
| 36>
| 37>                          ****END OF INPUT****

CARTESIAN COORDINATES (ANGSTROEM)
---------------------------------
  C     -1.543763    0.208404   -0.427331
  C     -2.044220   -0.840936   -1.207452
  C     -1.664126   -2.151211   -0.954779
  C     -0.777305   -2.390043    0.078791
  C     -0.680994    0.035606    0.719754
  C     -0.306915   -1.340802    0.871291
  H     -1.858575    1.217148   -0.671867
  H     -2.682596   -0.644176   -2.053676
  H     -2.010959   -2.967685   -1.574718
  H      0.385996   -1.561615    1.671957
  H     -0.428052   -3.392333    0.260216
  Pd     1.242512    0.937913   -0.027745
  O      3.137215    1.316522   -1.192769
  O      2.513455   -0.572343   -0.270378
  O      0.331483    2.666724    0.209027
  C     -0.058014    2.888528    1.390831
  O      0.031597    2.100755    2.383045
  H     -0.480218    0.932143    1.621697
  C      3.318563    0.106965   -0.979822
  H      4.197376   -0.425387   -1.350997
  H     -0.628401    3.845458    1.478894

 Total Charge           Charge          ....    0
 Multiplicity           Mult            ....    1
 Number of Electrons    NEL             ....  106
 Basis Dimension        Dim             ....  227

ORBITAL ENERGIES
----------------

  NO   OCC          E(Eh)            E(eV)
   0   2.0000     -19.534899      -531.5716
   1   2.0000     -19.527958      -531.3828
   2   2.0000     -19.519289      -531.1469
   3   2.0000     -19.489495      -530.3361
   4   2.0000     -10.584442      -288.0173
   5   2.0000     -10.581577      -287.9394
   6   2.0000     -10.486776      -285.3597
   7   2.0000     -10.483025      -285.2576
   8   2.0000     -10.482643      -285.2472
   9   2.0000     -10.478726      -285.1406
  10   2.0000     -10.471519      -284.9445
  11   2.0000     -10.469044      -284.8772
  12   2.0000      -3.690783      -100.4313
  13   2.0000      -2.344942       -63.8091
  14   2.0000      -2.328586       -63.3640
  15   2.0000      -2.302385       -62.6511
  16   2.0000      -1.224048       -33.3080
  17   2.0000      -1.204739       -32.7826
  18   2.0000      -1.114954       -30.3394
  19   2.0000      -1.104148       -30.0454
  20   2.0000      -0.974779       -26.5251
  21   2.0000      -0.860475       -23.4147
  22   2.0000      -0.855626       -23.2828
  23   2.0000      -0.705411       -19.1952
  24   2.0000      -0.700223       -19.0540
  25   2.0000      -0.694891       -18.9089
  26   2.0000      -0.682218       -18.5641
  27   2.0000      -0.612952       -16.6793
  28   2.0000      -0.590951       -16.0806
  29   2.0000      -0.578758       -15.7488
  30   2.0000      -0.560181       -15.2433
  31   2.0000      -0.551421       -15.0049
  32   2.0000      -0.539635       -14.6842
  33   2.0000      -0.533414       -14.5149
  34   2.0000      -0.525837       -14.3087
  35   2.0000      -0.523490       -14.2449
  36   2.0000      -0.495013       -13.4700
  37   2.0000      -0.479428       -13.0459
  38   2.0000      -0.457142       -12.4395
  39   2.0000      -0.440444       -11.9851
  40   2.0000      -0.433429       -11.7942
  41   2.0000      -0.412079       -11.2133
  42   2.0000      -0.408633       -11.1195
  43   2.0000      -0.397307       -10.8113
  44   2.0000      -0.386927       -10.5288
  45   2.0000      -0.377956       -10.2847
  46   2.0000      -0.367599       -10.0029
  47   2.0000      -0.359671        -9.7872
  48   2.0000      -0.345519        -9.4020
  49   2.0000      -0.339038        -9.2257
  50   2.0000      -0.317567        -8.6414
  51   2.0000      -0.314343        -8.5537
  52   2.0000      -0.309992        -8.4353
  53   0.0000      -0.111865        -3.0440
  54   0.0000      -0.007270        -0.1978
  55   0.0000      -0.003471        -0.0944
  56   0.0000       0.027683         0.7533
  57   0.0000       0.034381         0.9355

MULLIKEN ATOMIC CHARGES
-----------------------
   0 C :   -0.152404
   1 C :   -0.219683
   2 C :   -0.196817
   3 C :   -0.216142
   4 C :   -0.570841
   5 C :   -0.149009
   6 H :    0.254038
   7 H :    0.234358
   8 H :    0.242028
   9 H :    0.261005
  10 H :    0.235059
  11 Pd:    0.558125
  12 O :   -0.431561
  13 O :   -0.488109
  14 O :   -0.468634
  15 C :    0.356545
  16 O :   -0.490013
  17 H :    0.445236
  18 C :    0.401721
  19 H :    0.199341
  20 H :    0.195757
Sum of atomic charges:    0.0000000

LOEWDIN ATOMIC CHARGES
----------------------
   0 C :   -0.055204
   1 C :   -0.142342
   2 C :   -0.081215
   3 C :   -0.138178
   4 C :   -0.177214
   5 C :   -0.047671
   6 H :    0.156851
   7 H :    0.145186
   8 H :    0.145802
   9 H :    0.159321
  10 H :    0.145829
  11 Pd:   -0.165151
  12 O :   -0.163133
  13 O :   -0.155047
  14 O :   -0.130397
  15 C :    0.138396
  16 O :   -0.321010
  17 H :    0.297924
  18 C :    0.154674
  19 H :    0.116686
  20 H :    0.115894

  Mayer bond orders larger than 0.100000
B(  0-C ,  1-C ) :   1.4528 B(  0-C ,  4-C ) :   1.2329 B(  0-C ,  6-H ) :   0.9033
B(  1-C ,  2-C ) :   1.3946 B(  1-C ,  7-H ) :   0.9159 B(  2-C ,  3-C ) :   1.4031
B(  2-C ,  8-H ) :   0.9117 B(  3-C ,  5-C ) :   1.4467 B(  3-C , 10-H ) :   0.9149
B(  4-C ,  5-C ) :   1.2822 B(  4-C , 11-Pd) :   0.3829 B(  4-C , 17-H ) :   0.5492
B(  5-C ,  9-H ) :   0.9025 B( 11-Pd, 12-O ) :   0.4343 B( 11-Pd, 13-O ) :   0.5906
B( 11-Pd, 14-O ) :   0.5776 B( 12-O , 13-O ) :   0.1148 B( 12-O , 18-C ) :   1.6000
B( 13-O , 18-C ) :   1.3894 B( 14-O , 15-C ) :   1.4161 B( 14-O , 16-O ) :   0.1060
B( 15-C , 16-O ) :   1.6390 B( 15-C , 20-H ) :   0.8748 B( 16-O , 17-H ) :   0.2096
B( 18-C , 19-H ) :   0.8854

Dispersion correction           -0.013439405
FINAL SINGLE POINT ENERGY      -737.095710222265
Dispersion correction            ... done

DIPOLE MOMENT
-------------
                                X             Y             Z
Electronic contribution:     46.52656      33.25966      -3.84684
Nuclear contribution   :    -47.19536     -34.34878       3.07519
                        -----------------------------------------
Total Dipole Moment    :     -0.66880      -1.08912      -0.77165
                        -----------------------------------------
Magnitude (a.u.)       :      1.49295
Magnitude (Debye)      :      3.79479

Rotational constants in cm-1:     0.028393     0.019230     0.013844
Rotational constants in MHz :   851.214220   576.494089   415.026551

                             ****ORCA TERMINATED NORMALLY****
TOTAL RUN TIME: 0 days 0 hours 4 minutes 28 seconds 384 msec
