                         Program Version 5.0.3 -  RELEASE  -
|  1> ! EnGrad PBEh-3c
|  2> %output
|  3> xyzfile=True
|  4> end
|  5> %scf
|  6> maxiter 250
|  7> end
|  8> %output
|  9> Print[P_Hirshfeld] = 1
| 10> end
| 11> % maxcore
| 12> 4000
| 13> *xyz 0 1
| 14> C   -1.54244172   0.21790694  -0.41119566
| 15> C   -2.02919384  -0.83218130  -1.20294125
| 16> C   -1.64790798  -2.14064175  -0.95575232
| 17> C   -0.76701877  -2.37832730   0.08540817
| 18> C   -0.68752212   0.01742862   0.70793535
| 19> C   -0.30772278  -1.33009745   0.89125472
| 20> H   -1.87052011   1.21985610  -0.66393500
| 21> H   -2.67383885  -0.63387610  -2.05370992
| 22> H   -1.98314447  -2.95272752  -1.58421923
| 23> H    0.38463153  -1.56733833   1.68749369
| 24> H   -0.41607745  -3.38923303   0.26291330
| 25> Pd   1.25255816   0.94747948  -0.04500901
| 26> O    3.10065636   1.30138892  -1.18262096
| 27> O    2.50347545  -0.58720950  -0.27622124
| 28> O    0.32592517   2.65865185   0.21988871
| 29> C   -0.09047556   2.88437776   1.41625148
| 30> O   -0.02855567   2.10977038   2.36430415
| 31> H   -0.41952242   0.90825085   1.54978293
| 32> C    3.31482296   0.09437786  -0.96933362
| 33> H    4.18621946  -0.43336558  -1.36107195
| 34> H   -0.60878946   3.85367521   1.49153717
| 35> *
| 36>
| 37>                          ****END OF INPUT****

CARTESIAN COORDINATES (ANGSTROEM)
---------------------------------
  C     -1.542442    0.217907   -0.411196
  C     -2.029194   -0.832181   -1.202941
  C     -1.647908   -2.140642   -0.955752
  C     -0.767019   -2.378327    0.085408
  C     -0.687522    0.017429    0.707935
  C     -0.307723   -1.330097    0.891255
  H     -1.870520    1.219856   -0.663935
  H     -2.673839   -0.633876   -2.053710
  H     -1.983144   -2.952728   -1.584219
  H      0.384632   -1.567338    1.687494
  H     -0.416077   -3.389233    0.262913
  Pd     1.252558    0.947479   -0.045009
  O      3.100656    1.301389   -1.182621
  O      2.503475   -0.587209   -0.276221
  O      0.325925    2.658652    0.219889
  C     -0.090476    2.884378    1.416251
  O     -0.028556    2.109770    2.364304
  H     -0.419522    0.908251    1.549783
  C      3.314823    0.094378   -0.969334
  H      4.186219   -0.433366   -1.361072
  H     -0.608789    3.853675    1.491537

 Total Charge           Charge          ....    0
 Multiplicity           Mult            ....    1
 Number of Electrons    NEL             ....  106
 Basis Dimension        Dim             ....  227

ORBITAL ENERGIES
----------------

  NO   OCC          E(Eh)            E(eV)
   0   2.0000     -19.529644      -531.4286
   1   2.0000     -19.524026      -531.2758
   2   2.0000     -19.523414      -531.2591
   3   2.0000     -19.491260      -530.3842
   4   2.0000     -10.587439      -288.0989
   5   2.0000     -10.574370      -287.7432
   6   2.0000     -10.482598      -285.2460
   7   2.0000     -10.478921      -285.1459
   8   2.0000     -10.478485      -285.1341
   9   2.0000     -10.473919      -285.0098
  10   2.0000     -10.469940      -284.9016
  11   2.0000     -10.468024      -284.8494
  12   2.0000      -3.690854      -100.4333
  13   2.0000      -2.344728       -63.8033
  14   2.0000      -2.329176       -63.3801
  15   2.0000      -2.302199       -62.6460
  16   2.0000      -1.229372       -33.4529
  17   2.0000      -1.204667       -32.7807
  18   2.0000      -1.117264       -30.4023
  19   2.0000      -1.108940       -30.1758
  20   2.0000      -0.975507       -26.5449
  21   2.0000      -0.862269       -23.4635
  22   2.0000      -0.853924       -23.2364
  23   2.0000      -0.705631       -19.2012
  24   2.0000      -0.700055       -19.0495
  25   2.0000      -0.696676       -18.9575
  26   2.0000      -0.681770       -18.5519
  27   2.0000      -0.613375       -16.6908
  28   2.0000      -0.592513       -16.1231
  29   2.0000      -0.580339       -15.7918
  30   2.0000      -0.561051       -15.2670
  31   2.0000      -0.552223       -15.0268
  32   2.0000      -0.538844       -14.6627
  33   2.0000      -0.532485       -14.4897
  34   2.0000      -0.529277       -14.4023
  35   2.0000      -0.522703       -14.2235
  36   2.0000      -0.493979       -13.4418
  37   2.0000      -0.480172       -13.0662
  38   2.0000      -0.456819       -12.4307
  39   2.0000      -0.442282       -12.0351
  40   2.0000      -0.430096       -11.7035
  41   2.0000      -0.414380       -11.2759
  42   2.0000      -0.411958       -11.2100
  43   2.0000      -0.400634       -10.9018
  44   2.0000      -0.391364       -10.6495
  45   2.0000      -0.377061       -10.2603
  46   2.0000      -0.366944        -9.9850
  47   2.0000      -0.361064        -9.8251
  48   2.0000      -0.344180        -9.3656
  49   2.0000      -0.337235        -9.1766
  50   2.0000      -0.318299        -8.6614
  51   2.0000      -0.316369        -8.6088
  52   2.0000      -0.308369        -8.3911
  53   0.0000      -0.107302        -2.9198
  54   0.0000      -0.004799        -0.1306
  55   0.0000      -0.000252        -0.0069
  56   0.0000       0.026286         0.7153
  57   0.0000       0.041687         1.1344

MULLIKEN ATOMIC CHARGES
-----------------------
   0 C :   -0.169599
   1 C :   -0.220037
   2 C :   -0.196448
   3 C :   -0.219700
   4 C :   -0.536241
   5 C :   -0.156189
   6 H :    0.252757
   7 H :    0.232659
   8 H :    0.240028
   9 H :    0.256666
  10 H :    0.232754
  11 Pd:    0.553350
  12 O :   -0.435825
  13 O :   -0.483417
  14 O :   -0.496865
  15 C :    0.350760
  16 O :   -0.451802
  17 H :    0.442938
  18 C :    0.406445
  19 H :    0.203169
  20 H :    0.194597
Sum of atomic charges:    0.0000000

LOEWDIN ATOMIC CHARGES
----------------------
   0 C :   -0.061239
   1 C :   -0.137924
   2 C :   -0.089340
   3 C :   -0.133419
   4 C :   -0.170027
   5 C :   -0.056237
   6 H :    0.158655
   7 H :    0.144110
   8 H :    0.145091
   9 H :    0.159187
  10 H :    0.144448
  11 Pd:   -0.162885
  12 O :   -0.155424
  13 O :   -0.151391
  14 O :   -0.157738
  15 C :    0.121297
  16 O :   -0.275727
  17 H :    0.286530
  18 C :    0.158898
  19 H :    0.119370
  20 H :    0.113765

  Mayer bond orders larger than 0.100000
B(  0-C ,  1-C ) :   1.4402 B(  0-C ,  4-C ) :   1.2653 B(  0-C ,  6-H ) :   0.9058
B(  1-C ,  2-C ) :   1.4019 B(  1-C ,  7-H ) :   0.9164 B(  2-C ,  3-C ) :   1.4055
B(  2-C ,  8-H ) :   0.9126 B(  3-C ,  5-C ) :   1.4383 B(  3-C , 10-H ) :   0.9158
B(  4-C ,  5-C ) :   1.3052 B(  4-C , 11-Pd) :   0.3579 B(  4-C , 17-H ) :   0.5590
B(  5-C ,  9-H ) :   0.9057 B( 11-Pd, 12-O ) :   0.4639 B( 11-Pd, 13-O ) :   0.5812
B( 11-Pd, 14-O ) :   0.6053 B( 12-O , 13-O ) :   0.1147 B( 12-O , 18-C ) :   1.5704
B( 13-O , 18-C ) :   1.4050 B( 14-O , 15-C ) :   1.3597 B( 14-O , 16-O ) :   0.1074
B( 15-C , 16-O ) :   1.7165 B( 15-C , 20-H ) :   0.8763 B( 16-O , 17-H ) :   0.1980
B( 18-C , 19-H ) :   0.8856

Dispersion correction           -0.013450579
FINAL SINGLE POINT ENERGY      -737.106632756990
Dispersion correction            ... done

DIPOLE MOMENT
-------------
                                X             Y             Z
Electronic contribution:     47.40322      33.74288      -4.65297
Nuclear contribution   :    -47.90145     -34.82209       3.93615
                        -----------------------------------------
Total Dipole Moment    :     -0.49823      -1.07921      -0.71682
                        -----------------------------------------
Magnitude (a.u.)       :      1.38808
Magnitude (Debye)      :      3.52821

Rotational constants in cm-1:     0.028269     0.019443     0.013888
Rotational constants in MHz :   847.486460   582.892689   416.365729

                             ****ORCA TERMINATED NORMALLY****
TOTAL RUN TIME: 0 days 0 hours 4 minutes 25 seconds 566 msec
