                         Program Version 5.0.3 -  RELEASE  -
|  1> ! EnGrad PBEh-3c
|  2> %output
|  3> xyzfile=True
|  4> end
|  5> %scf
|  6> maxiter 250
|  7> end
|  8> %output
|  9> Print[P_Hirshfeld] = 1
| 10> end
| 11> % maxcore
| 12> 4000
| 13> *xyz 0 1
| 14> C   -1.55033264   0.22187630  -0.40051517
| 15> C   -2.02061864  -0.82149109  -1.19899948
| 16> C   -1.63109562  -2.13182110  -0.95634662
| 17> C   -0.75764509  -2.37114137   0.09703752
| 18> C   -0.67872727   0.01204021   0.69522454
| 19> C   -0.31097748  -1.32954096   0.90459942
| 20> H   -1.87530450   1.22132548  -0.65126791
| 21> H   -2.66504670  -0.62517194  -2.05452948
| 22> H   -1.96084148  -2.94674431  -1.59790610
| 23> H    0.37927744  -1.56660645   1.69866338
| 24> H   -0.40526404  -3.38634280   0.26394913
| 25> Pd   1.25159191   0.95110708  -0.04537921
| 26> O    3.07498769   1.29171064  -1.18024728
| 27> O    2.48955272  -0.59413738  -0.27758886
| 28> O    0.32355294   2.65437439   0.23212028
| 29> C   -0.10718762   2.88790089   1.41469543
| 30> O   -0.06716761   2.12026009   2.35552777
| 31> H   -0.38959023   0.87378148   1.50146640
| 32> C    3.30884197   0.08485639  -0.96353492
| 33> H    4.17870692  -0.43821832  -1.37020742
| 34> H   -0.59018914   3.85893877   1.50055877
| 35> *
| 36>
| 37>                          ****END OF INPUT****

CARTESIAN COORDINATES (ANGSTROEM)
---------------------------------
  C     -1.550333    0.221876   -0.400515
  C     -2.020619   -0.821491   -1.198999
  C     -1.631096   -2.131821   -0.956347
  C     -0.757645   -2.371141    0.097038
  C     -0.678727    0.012040    0.695225
  C     -0.310977   -1.329541    0.904599
  H     -1.875304    1.221325   -0.651268
  H     -2.665047   -0.625172   -2.054529
  H     -1.960841   -2.946744   -1.597906
  H      0.379277   -1.566606    1.698663
  H     -0.405264   -3.386343    0.263949
  Pd     1.251592    0.951107   -0.045379
  O      3.074988    1.291711   -1.180247
  O      2.489553   -0.594137   -0.277589
  O      0.323553    2.654374    0.232120
  C     -0.107188    2.887901    1.414695
  O     -0.067168    2.120260    2.355528
  H     -0.389590    0.873781    1.501466
  C      3.308842    0.084856   -0.963535
  H      4.178707   -0.438218   -1.370207
  H     -0.590189    3.858939    1.500559

 Total Charge           Charge          ....    0
 Multiplicity           Mult            ....    1
 Number of Electrons    NEL             ....  106
 Basis Dimension        Dim             ....  227

ORBITAL ENERGIES
----------------

  NO   OCC          E(Eh)            E(eV)
   0   2.0000     -19.531022      -531.4661
   1   2.0000     -19.525033      -531.3032
   2   2.0000     -19.519038      -531.1400
   3   2.0000     -19.484267      -530.1939
   4   2.0000     -10.589787      -288.1628
   5   2.0000     -10.566449      -287.5277
   6   2.0000     -10.481654      -285.2203
   7   2.0000     -10.480163      -285.1797
   8   2.0000     -10.477676      -285.1121
   9   2.0000     -10.472244      -284.9643
  10   2.0000     -10.470344      -284.9125
  11   2.0000     -10.468343      -284.8581
  12   2.0000      -3.691206      -100.4428
  13   2.0000      -2.344940       -63.8091
  14   2.0000      -2.329945       -63.4010
  15   2.0000      -2.302360       -62.6504
  16   2.0000      -1.231031       -33.4981
  17   2.0000      -1.204771       -32.7835
  18   2.0000      -1.117032       -30.3960
  19   2.0000      -1.106960       -30.1219
  20   2.0000      -0.977545       -26.6003
  21   2.0000      -0.862952       -23.4821
  22   2.0000      -0.856764       -23.3137
  23   2.0000      -0.707782       -19.2597
  24   2.0000      -0.700848       -19.0711
  25   2.0000      -0.698470       -19.0063
  26   2.0000      -0.681016       -18.5314
  27   2.0000      -0.615030       -16.7358
  28   2.0000      -0.593387       -16.1469
  29   2.0000      -0.580776       -15.8037
  30   2.0000      -0.560882       -15.2624
  31   2.0000      -0.550179       -14.9711
  32   2.0000      -0.538734       -14.6597
  33   2.0000      -0.533404       -14.5147
  34   2.0000      -0.530275       -14.4295
  35   2.0000      -0.521739       -14.1973
  36   2.0000      -0.496684       -13.5155
  37   2.0000      -0.482761       -13.1366
  38   2.0000      -0.458515       -12.4768
  39   2.0000      -0.443245       -12.0613
  40   2.0000      -0.428851       -11.6696
  41   2.0000      -0.415089       -11.2951
  42   2.0000      -0.413289       -11.2462
  43   2.0000      -0.402270       -10.9463
  44   2.0000      -0.392926       -10.6921
  45   2.0000      -0.376992       -10.2585
  46   2.0000      -0.366840        -9.9822
  47   2.0000      -0.359631        -9.7860
  48   2.0000      -0.341616        -9.2958
  49   2.0000      -0.336124        -9.1464
  50   2.0000      -0.318618        -8.6700
  51   2.0000      -0.314746        -8.5647
  52   2.0000      -0.310544        -8.4503
  53   0.0000      -0.105926        -2.8824
  54   0.0000      -0.004044        -0.1100
  55   0.0000      -0.000205        -0.0056
  56   0.0000       0.023731         0.6457
  57   0.0000       0.049120         1.3366

MULLIKEN ATOMIC CHARGES
-----------------------
   0 C :   -0.173900
   1 C :   -0.219666
   2 C :   -0.198607
   3 C :   -0.220271
   4 C :   -0.533342
   5 C :   -0.150835
   6 H :    0.252424
   7 H :    0.233057
   8 H :    0.239750
   9 H :    0.254745
  10 H :    0.232846
  11 Pd:    0.553171
  12 O :   -0.439108
  13 O :   -0.481953
  14 O :   -0.501034
  15 C :    0.343867
  16 O :   -0.442800
  17 H :    0.444793
  18 C :    0.408690
  19 H :    0.206154
  20 H :    0.192020
Sum of atomic charges:   -0.0000000

LOEWDIN ATOMIC CHARGES
----------------------
   0 C :   -0.060701
   1 C :   -0.136728
   2 C :   -0.088649
   3 C :   -0.132236
   4 C :   -0.163552
   5 C :   -0.056868
   6 H :    0.159808
   7 H :    0.144206
   8 H :    0.145345
   9 H :    0.159650
  10 H :    0.144380
  11 Pd:   -0.163722
  12 O :   -0.154445
  13 O :   -0.150107
  14 O :   -0.158238
  15 C :    0.107116
  16 O :   -0.267883
  17 H :    0.276688
  18 C :    0.163119
  19 H :    0.121559
  20 H :    0.111258

  Mayer bond orders larger than 0.100000
B(  0-C ,  1-C ) :   1.4375 B(  0-C ,  4-C ) :   1.2825 B(  0-C ,  6-H ) :   0.9071
B(  1-C ,  2-C ) :   1.4025 B(  1-C ,  7-H ) :   0.9162 B(  2-C ,  3-C ) :   1.4024
B(  2-C ,  8-H ) :   0.9130 B(  3-C ,  5-C ) :   1.4378 B(  3-C , 10-H ) :   0.9158
B(  4-C ,  5-C ) :   1.3098 B(  4-C , 11-Pd) :   0.3569 B(  4-C , 17-H ) :   0.5616
B(  5-C ,  9-H ) :   0.9077 B( 11-Pd, 12-O ) :   0.4762 B( 11-Pd, 13-O ) :   0.5773
B( 11-Pd, 14-O ) :   0.6109 B( 12-O , 13-O ) :   0.1147 B( 12-O , 18-C ) :   1.5556
B( 13-O , 18-C ) :   1.4097 B( 14-O , 15-C ) :   1.3497 B( 14-O , 16-O ) :   0.1077
B( 15-C , 16-O ) :   1.7472 B( 15-C , 20-H ) :   0.8781 B( 16-O , 17-H ) :   0.1950
B( 18-C , 19-H ) :   0.8851

Dispersion correction           -0.013470338
FINAL SINGLE POINT ENERGY      -737.111989821921
Dispersion correction            ... done

DIPOLE MOMENT
-------------
                                X             Y             Z
Electronic contribution:     47.60557      33.83632      -4.77032
Nuclear contribution   :    -48.02784     -34.98151       4.00235
                        -----------------------------------------
Total Dipole Moment    :     -0.42227      -1.14519      -0.76796
                        -----------------------------------------
Magnitude (a.u.)       :      1.44207
Magnitude (Debye)      :      3.66544

Rotational constants in cm-1:     0.028213     0.019617     0.013943
Rotational constants in MHz :   845.810907   588.114167   418.006126

                             ****ORCA TERMINATED NORMALLY****
TOTAL RUN TIME: 0 days 0 hours 4 minutes 5 seconds 598 msec
