                         Program Version 5.0.3 -  RELEASE  -
|  1> ! EnGrad PBEh-3c
|  2> %output
|  3> xyzfile=True
|  4> end
|  5> %scf
|  6> maxiter 250
|  7> end
|  8> %output
|  9> Print[P_Hirshfeld] = 1
| 10> end
| 11> % maxcore
| 12> 4000
| 13> *xyz 0 1
| 14> C   -1.56044491   0.22415398  -0.39744681
| 15> C   -2.01261987  -0.81394136  -1.20348386
| 16> C   -1.60390328  -2.12046157  -0.96065634
| 17> C   -0.74644485  -2.37214584   0.10469023
| 18> C   -0.66337621   0.00099074   0.67355268
| 19> C   -0.31099282  -1.33727242   0.91542889
| 20> H   -1.88640418   1.22215029  -0.63902759
| 21> H   -2.65270500  -0.61571471  -2.05610544
| 22> H   -1.92716424  -2.93598942  -1.61667532
| 23> H    0.37342492  -1.56842630   1.71337341
| 24> H   -0.39104174  -3.38193737   0.26396734
| 25> Pd   1.25498139   0.96004720  -0.04422727
| 26> O    3.04837466   1.27319718  -1.18502779
| 27> O    2.48015610  -0.60272436  -0.27185516
| 28> O    0.32462740   2.66599482   0.22671280
| 29> C   -0.11672902   2.90028528   1.40369030
| 30> O   -0.09631738   2.12966561   2.35126234
| 31> H   -0.40690728   0.84531285   1.51798820
| 32> C    3.29625825   0.06988175  -0.96436988
| 33> H    4.17063230  -0.44788947  -1.38557370
| 34> H   -0.57557348   3.87162052   1.51774242
| 35> *
| 36>
| 37>                          ****END OF INPUT****

CARTESIAN COORDINATES (ANGSTROEM)
---------------------------------
  C     -1.560445    0.224154   -0.397447
  C     -2.012620   -0.813941   -1.203484
  C     -1.603903   -2.120462   -0.960656
  C     -0.746445   -2.372146    0.104690
  C     -0.663376    0.000991    0.673553
  C     -0.310993   -1.337272    0.915429
  H     -1.886404    1.222150   -0.639028
  H     -2.652705   -0.615715   -2.056105
  H     -1.927164   -2.935989   -1.616675
  H      0.373425   -1.568426    1.713373
  H     -0.391042   -3.381937    0.263967
  Pd     1.254981    0.960047   -0.044227
  O      3.048375    1.273197   -1.185028
  O      2.480156   -0.602724   -0.271855
  O      0.324627    2.665995    0.226713
  C     -0.116729    2.900285    1.403690
  O     -0.096317    2.129666    2.351262
  H     -0.406907    0.845313    1.517988
  C      3.296258    0.069882   -0.964370
  H      4.170632   -0.447889   -1.385574
  H     -0.575573    3.871621    1.517742

 Total Charge           Charge          ....    0
 Multiplicity           Mult            ....    1
 Number of Electrons    NEL             ....  106
 Basis Dimension        Dim             ....  227

ORBITAL ENERGIES
----------------

  NO   OCC          E(Eh)            E(eV)
   0   2.0000     -19.531355      -531.4752
   1   2.0000     -19.525602      -531.3187
   2   2.0000     -19.518195      -531.1171
   3   2.0000     -19.481228      -530.1112
   4   2.0000     -10.590887      -288.1927
   5   2.0000     -10.564463      -287.4736
   6   2.0000     -10.481197      -285.2079
   7   2.0000     -10.480987      -285.2022
   8   2.0000     -10.476525      -285.0807
   9   2.0000     -10.471037      -284.9314
  10   2.0000     -10.469607      -284.8925
  11   2.0000     -10.467314      -284.8301
  12   2.0000      -3.690072      -100.4120
  13   2.0000      -2.343479       -63.7693
  14   2.0000      -2.329256       -63.3823
  15   2.0000      -2.300979       -62.6128
  16   2.0000      -1.233150       -33.5557
  17   2.0000      -1.200019       -32.6542
  18   2.0000      -1.117294       -30.4031
  19   2.0000      -1.103534       -30.0287
  20   2.0000      -0.978224       -26.6188
  21   2.0000      -0.861023       -23.4296
  22   2.0000      -0.859401       -23.3855
  23   2.0000      -0.707167       -19.2430
  24   2.0000      -0.701210       -19.0809
  25   2.0000      -0.698100       -18.9963
  26   2.0000      -0.680621       -18.5206
  27   2.0000      -0.614673       -16.7261
  28   2.0000      -0.593385       -16.1468
  29   2.0000      -0.579654       -15.7732
  30   2.0000      -0.561224       -15.2717
  31   2.0000      -0.547291       -14.8925
  32   2.0000      -0.538111       -14.6428
  33   2.0000      -0.534083       -14.5331
  34   2.0000      -0.530910       -14.4468
  35   2.0000      -0.519328       -14.1316
  36   2.0000      -0.500653       -13.6235
  37   2.0000      -0.481156       -13.0929
  38   2.0000      -0.459292       -12.4980
  39   2.0000      -0.442309       -12.0358
  40   2.0000      -0.426530       -11.6065
  41   2.0000      -0.415604       -11.3092
  42   2.0000      -0.414610       -11.2821
  43   2.0000      -0.402557       -10.9541
  44   2.0000      -0.392342       -10.6762
  45   2.0000      -0.376567       -10.2469
  46   2.0000      -0.366216        -9.9652
  47   2.0000      -0.358022        -9.7423
  48   2.0000      -0.338603        -9.2138
  49   2.0000      -0.335545        -9.1306
  50   2.0000      -0.317080        -8.6282
  51   2.0000      -0.312275        -8.4974
  52   2.0000      -0.312083        -8.4922
  53   0.0000      -0.104607        -2.8465
  54   0.0000      -0.003390        -0.0922
  55   0.0000      -0.000206        -0.0056
  56   0.0000       0.023075         0.6279
  57   0.0000       0.049379         1.3437

MULLIKEN ATOMIC CHARGES
-----------------------
   0 C :   -0.159261
   1 C :   -0.221961
   2 C :   -0.200095
   3 C :   -0.221460
   4 C :   -0.572356
   5 C :   -0.130607
   6 H :    0.252588
   7 H :    0.234445
   8 H :    0.238216
   9 H :    0.254103
  10 H :    0.233850
  11 Pd:    0.560032
  12 O :   -0.440950
  13 O :   -0.478896
  14 O :   -0.501051
  15 C :    0.344711
  16 O :   -0.449705
  17 H :    0.447787
  18 C :    0.409778
  19 H :    0.206735
  20 H :    0.194097
Sum of atomic charges:    0.0000000

LOEWDIN ATOMIC CHARGES
----------------------
   0 C :   -0.058286
   1 C :   -0.137121
   2 C :   -0.086130
   3 C :   -0.132684
   4 C :   -0.167779
   5 C :   -0.055027
   6 H :    0.160022
   7 H :    0.144298
   8 H :    0.144964
   9 H :    0.159629
  10 H :    0.144407
  11 Pd:   -0.167222
  12 O :   -0.151397
  13 O :   -0.148496
  14 O :   -0.157364
  15 C :    0.109309
  16 O :   -0.276055
  17 H :    0.277152
  18 C :    0.163555
  19 H :    0.122580
  20 H :    0.111646

  Mayer bond orders larger than 0.100000
B(  0-C ,  1-C ) :   1.4415 B(  0-C ,  4-C ) :   1.2889 B(  0-C ,  6-H ) :   0.9069
B(  1-C ,  2-C ) :   1.4014 B(  1-C ,  7-H ) :   0.9152 B(  2-C ,  3-C ) :   1.4013
B(  2-C ,  8-H ) :   0.9139 B(  3-C ,  5-C ) :   1.4410 B(  3-C , 10-H ) :   0.9151
B(  4-C ,  5-C ) :   1.3027 B(  4-C , 11-Pd) :   0.3616 B(  4-C , 17-H ) :   0.5612
B(  5-C ,  9-H ) :   0.9084 B( 11-Pd, 12-O ) :   0.4862 B( 11-Pd, 13-O ) :   0.5741
B( 11-Pd, 14-O ) :   0.6067 B( 12-O , 13-O ) :   0.1144 B( 12-O , 18-C ) :   1.5436
B( 13-O , 18-C ) :   1.4149 B( 14-O , 15-C ) :   1.3535 B( 14-O , 16-O ) :   0.1079
B( 15-C , 16-O ) :   1.7433 B( 15-C , 20-H ) :   0.8793 B( 16-O , 17-H ) :   0.1961
B( 18-C , 19-H ) :   0.8846

Dispersion correction           -0.013472109
FINAL SINGLE POINT ENERGY      -737.114859065670
Dispersion correction            ... done

DIPOLE MOMENT
-------------
                                X             Y             Z
Electronic contribution:     47.89306      34.22885      -4.68422
Nuclear contribution   :    -48.28297     -35.39754       3.89744
                        -----------------------------------------
Total Dipole Moment    :     -0.38991      -1.16869      -0.78678
                        -----------------------------------------
Magnitude (a.u.)       :      1.46181
Magnitude (Debye)      :      3.71562

Rotational constants in cm-1:     0.028071     0.019733     0.013981
Rotational constants in MHz :   841.546985   591.580823   419.128415

                             ****ORCA TERMINATED NORMALLY****
TOTAL RUN TIME: 0 days 0 hours 4 minutes 22 seconds 994 msec
