                         Program Version 5.0.3 -  RELEASE  -
|  1> ! EnGrad PBEh-3c
|  2> %output
|  3> xyzfile=True
|  4> end
|  5> %scf
|  6> maxiter 250
|  7> end
|  8> %output
|  9> Print[P_Hirshfeld] = 1
| 10> end
| 11> % maxcore
| 12> 4000
| 13> *xyz 0 1
| 14> C   -1.56498423   0.22361348  -0.40044425
| 15> C   -2.00379081  -0.80939658  -1.21049182
| 16> C   -1.56929961  -2.10949065  -0.97035295
| 17> C   -0.73595578  -2.37852980   0.11002498
| 18> C   -0.63278064  -0.00745627   0.64745144
| 19> C   -0.30469729  -1.34981161   0.92063402
| 20> H   -1.89996185   1.22506907  -0.62512321
| 21> H   -2.63969089  -0.60394100  -2.05871086
| 22> H   -1.87705954  -2.91678850  -1.64032907
| 23> H    0.36938680  -1.57149512   1.73271108
| 24> H   -0.37378003  -3.38005949   0.26618137
| 25> Pd   1.25292866   0.96673725  -0.04096550
| 26> O    3.01693231   1.24944831  -1.19146645
| 27> O    2.46825927  -0.61997567  -0.26310536
| 28> O    0.32453810   2.68906281   0.21421450
| 29> C   -0.12542298   2.91065298   1.39498240
| 30> O   -0.14418988   2.14075859   2.34521468
| 31> H   -0.43402594   0.82110024   1.56147455
| 32> C    3.27798067   0.04634657  -0.96972041
| 33> H    4.15690714  -0.45996267  -1.40590634
| 34> H   -0.56179818   3.90034147   1.54281259
| 35> *
| 36>
| 37>                          ****END OF INPUT****

CARTESIAN COORDINATES (ANGSTROEM)
---------------------------------
  C     -1.564984    0.223613   -0.400444
  C     -2.003791   -0.809397   -1.210492
  C     -1.569300   -2.109491   -0.970353
  C     -0.735956   -2.378530    0.110025
  C     -0.632781   -0.007456    0.647451
  C     -0.304697   -1.349812    0.920634
  H     -1.899962    1.225069   -0.625123
  H     -2.639691   -0.603941   -2.058711
  H     -1.877060   -2.916788   -1.640329
  H      0.369387   -1.571495    1.732711
  H     -0.373780   -3.380059    0.266181
  Pd     1.252929    0.966737   -0.040965
  O      3.016932    1.249448   -1.191466
  O      2.468259   -0.619976   -0.263105
  O      0.324538    2.689063    0.214214
  C     -0.125423    2.910653    1.394982
  O     -0.144190    2.140759    2.345215
  H     -0.434026    0.821100    1.561475
  C      3.277981    0.046347   -0.969720
  H      4.156907   -0.459963   -1.405906
  H     -0.561798    3.900341    1.542813

 Total Charge           Charge          ....    0
 Multiplicity           Mult            ....    1
 Number of Electrons    NEL             ....  106
 Basis Dimension        Dim             ....  227

ORBITAL ENERGIES
----------------

  NO   OCC          E(Eh)            E(eV)
   0   2.0000     -19.530385      -531.4488
   1   2.0000     -19.524424      -531.2866
   2   2.0000     -19.518387      -531.1223
   3   2.0000     -19.482913      -530.1570
   4   2.0000     -10.590917      -288.1935
   5   2.0000     -10.565887      -287.5124
   6   2.0000     -10.482235      -285.2361
   7   2.0000     -10.481937      -285.2280
   8   2.0000     -10.476935      -285.0919
   9   2.0000     -10.471215      -284.9362
  10   2.0000     -10.469103      -284.8788
  11   2.0000     -10.466539      -284.8090
  12   2.0000      -3.687243      -100.3350
  13   2.0000      -2.339852       -63.6706
  14   2.0000      -2.327174       -63.3256
  15   2.0000      -2.297979       -62.5312
  16   2.0000      -1.231846       -33.5202
  17   2.0000      -1.196457       -32.5572
  18   2.0000      -1.114965       -30.3398
  19   2.0000      -1.103503       -30.0278
  20   2.0000      -0.978406       -26.6238
  21   2.0000      -0.862604       -23.4727
  22   2.0000      -0.857747       -23.3405
  23   2.0000      -0.706377       -19.2215
  24   2.0000      -0.700784       -19.0693
  25   2.0000      -0.696709       -18.9584
  26   2.0000      -0.677165       -18.4266
  27   2.0000      -0.613765       -16.7014
  28   2.0000      -0.591689       -16.1007
  29   2.0000      -0.577524       -15.7152
  30   2.0000      -0.560262       -15.2455
  31   2.0000      -0.545686       -14.8489
  32   2.0000      -0.537561       -14.6278
  33   2.0000      -0.534089       -14.5333
  34   2.0000      -0.530268       -14.4293
  35   2.0000      -0.516269       -14.0484
  36   2.0000      -0.504147       -13.7185
  37   2.0000      -0.478994       -13.0341
  38   2.0000      -0.459845       -12.5130
  39   2.0000      -0.440614       -11.9897
  40   2.0000      -0.424497       -11.5512
  41   2.0000      -0.416907       -11.3446
  42   2.0000      -0.413671       -11.2566
  43   2.0000      -0.401402       -10.9227
  44   2.0000      -0.390228       -10.6186
  45   2.0000      -0.375678       -10.2227
  46   2.0000      -0.365927        -9.9574
  47   2.0000      -0.356153        -9.6914
  48   2.0000      -0.335376        -9.1260
  49   2.0000      -0.334857        -9.1119
  50   2.0000      -0.316140        -8.6026
  51   2.0000      -0.313170        -8.5218
  52   2.0000      -0.308847        -8.4042
  53   0.0000      -0.103016        -2.8032
  54   0.0000      -0.003613        -0.0983
  55   0.0000      -0.000815        -0.0222
  56   0.0000       0.022889         0.6228
  57   0.0000       0.049090         1.3358

MULLIKEN ATOMIC CHARGES
-----------------------
   0 C :   -0.141187
   1 C :   -0.222337
   2 C :   -0.201227
   3 C :   -0.219860
   4 C :   -0.612833
   5 C :   -0.109699
   6 H :    0.254288
   7 H :    0.236202
   8 H :    0.237777
   9 H :    0.255065
  10 H :    0.235167
  11 Pd:    0.561407
  12 O :   -0.444910
  13 O :   -0.476957
  14 O :   -0.500032
  15 C :    0.348272
  16 O :   -0.451278
  17 H :    0.440103
  18 C :    0.411093
  19 H :    0.207331
  20 H :    0.193615
Sum of atomic charges:   -0.0000000

LOEWDIN ATOMIC CHARGES
----------------------
   0 C :   -0.052589
   1 C :   -0.138928
   2 C :   -0.081149
   3 C :   -0.134559
   4 C :   -0.175703
   5 C :   -0.049932
   6 H :    0.160371
   7 H :    0.144752
   8 H :    0.144577
   9 H :    0.159494
  10 H :    0.144827
  11 Pd:   -0.180485
  12 O :   -0.151895
  13 O :   -0.149991
  14 O :   -0.159810
  15 C :    0.113241
  16 O :   -0.276865
  17 H :    0.284015
  18 C :    0.165622
  19 H :    0.123453
  20 H :    0.111553

  Mayer bond orders larger than 0.100000
B(  0-C ,  1-C ) :   1.4475 B(  0-C ,  4-C ) :   1.2812 B(  0-C ,  6-H ) :   0.9051
B(  1-C ,  2-C ) :   1.3985 B(  1-C ,  7-H ) :   0.9141 B(  2-C ,  3-C ) :   1.4007
B(  2-C ,  8-H ) :   0.9144 B(  3-C ,  5-C ) :   1.4462 B(  3-C , 10-H ) :   0.9143
B(  4-C ,  5-C ) :   1.2849 B(  4-C , 11-Pd) :   0.3809 B(  4-C , 17-H ) :   0.5655
B(  5-C ,  9-H ) :   0.9076 B( 11-Pd, 12-O ) :   0.4928 B( 11-Pd, 13-O ) :   0.5674
B( 11-Pd, 14-O ) :   0.6021 B( 12-O , 13-O ) :   0.1144 B( 12-O , 18-C ) :   1.5312
B( 13-O , 18-C ) :   1.4209 B( 14-O , 15-C ) :   1.3558 B( 14-O , 16-O ) :   0.1086
B( 15-C , 16-O ) :   1.7386 B( 15-C , 20-H ) :   0.8790 B( 16-O , 17-H ) :   0.1953
B( 18-C , 19-H ) :   0.8841

Dispersion correction           -0.013473625
FINAL SINGLE POINT ENERGY      -737.114267291432
Dispersion correction            ... done

DIPOLE MOMENT
-------------
                                X             Y             Z
Electronic contribution:     47.92247      34.54258      -4.39634
Nuclear contribution   :    -48.31403     -35.74969       3.63852
                        -----------------------------------------
Total Dipole Moment    :     -0.39155      -1.20711      -0.75782
                        -----------------------------------------
Magnitude (a.u.)       :      1.47808
Magnitude (Debye)      :      3.75699

Rotational constants in cm-1:     0.027846     0.019899     0.014027
Rotational constants in MHz :   834.793747   596.544323   420.527712

                             ****ORCA TERMINATED NORMALLY****
TOTAL RUN TIME: 0 days 0 hours 4 minutes 37 seconds 270 msec
