                         Program Version 5.0.3 -  RELEASE  -
|  1> ! EnGrad PBEh-3c
|  2> %output
|  3> xyzfile=True
|  4> end
|  5> %scf
|  6> maxiter 250
|  7> end
|  8> %output
|  9> Print[P_Hirshfeld] = 1
| 10> end
| 11> % maxcore
| 12> 4000
| 13> *xyz 0 1
| 14> C   -1.56168386   0.22400646  -0.39826492
| 15> C   -2.01021009  -0.81270092  -1.20539660
| 16> C   -1.59445863  -2.11746719  -0.96330291
| 17> C   -0.74358199  -2.37388827   0.10614628
| 18> C   -0.65502553  -0.00131477   0.66642866
| 19> C   -0.30927453  -1.34069484   0.91684957
| 20> H   -1.89010458   1.22294693  -0.63523256
| 21> H   -2.64915296  -0.61250122  -2.05681656
| 22> H   -1.91348878  -2.93074877  -1.62313133
| 23> H    0.37232277  -1.56926390   1.71865139
| 24> H   -0.38633037  -3.38142483   0.26457164
| 25> Pd   1.25442112   0.96187317  -0.04333701
| 26> O    3.03979286   1.26671522  -1.18678514
| 27> O    2.47690901  -0.60743289  -0.26946701
| 28> O    0.32460303   2.67229094   0.22330154
| 29> C   -0.11910193   2.90311502   1.40131358
| 30> O   -0.10938359   2.13269330   2.34961171
| 31> H   -0.41430899   0.83870432   1.52985726
| 32> C    3.29126960   0.06345811  -0.96583024
| 33> H    4.16688619  -0.45118470  -1.39112325
| 34> H   -0.57181368   3.87945955   1.52458501
| 35> *
| 36>
| 37>                          ****END OF INPUT****

CARTESIAN COORDINATES (ANGSTROEM)
---------------------------------
  C     -1.561684    0.224006   -0.398265
  C     -2.010210   -0.812701   -1.205397
  C     -1.594459   -2.117467   -0.963303
  C     -0.743582   -2.373888    0.106146
  C     -0.655026   -0.001315    0.666429
  C     -0.309275   -1.340695    0.916850
  H     -1.890105    1.222947   -0.635233
  H     -2.649153   -0.612501   -2.056817
  H     -1.913489   -2.930749   -1.623131
  H      0.372323   -1.569264    1.718651
  H     -0.386330   -3.381425    0.264572
  Pd     1.254421    0.961873   -0.043337
  O      3.039793    1.266715   -1.186785
  O      2.476909   -0.607433   -0.269467
  O      0.324603    2.672291    0.223302
  C     -0.119102    2.903115    1.401314
  O     -0.109384    2.132693    2.349612
  H     -0.414309    0.838704    1.529857
  C      3.291270    0.063458   -0.965830
  H      4.166886   -0.451185   -1.391123
  H     -0.571814    3.879460    1.524585

 Total Charge           Charge          ....    0
 Multiplicity           Mult            ....    1
 Number of Electrons    NEL             ....  106
 Basis Dimension        Dim             ....  227

ORBITAL ENERGIES
----------------

  NO   OCC          E(Eh)            E(eV)
   0   2.0000     -19.531101      -531.4683
   1   2.0000     -19.525301      -531.3105
   2   2.0000     -19.518223      -531.1178
   3   2.0000     -19.481642      -530.1224
   4   2.0000     -10.590900      -288.1930
   5   2.0000     -10.564794      -287.4827
   6   2.0000     -10.481463      -285.2151
   7   2.0000     -10.481240      -285.2090
   8   2.0000     -10.476614      -285.0832
   9   2.0000     -10.471033      -284.9313
  10   2.0000     -10.469465      -284.8886
  11   2.0000     -10.467093      -284.8241
  12   2.0000      -3.689297      -100.3909
  13   2.0000      -2.342488       -63.7423
  14   2.0000      -2.328682       -63.3667
  15   2.0000      -2.300154       -62.5904
  16   2.0000      -1.232817       -33.5466
  17   2.0000      -1.199050       -32.6278
  18   2.0000      -1.116674       -30.3863
  19   2.0000      -1.103547       -30.0290
  20   2.0000      -0.978282       -26.6204
  21   2.0000      -0.860974       -23.4283
  22   2.0000      -0.859468       -23.3873
  23   2.0000      -0.706921       -19.2363
  24   2.0000      -0.701131       -19.0787
  25   2.0000      -0.697734       -18.9863
  26   2.0000      -0.679689       -18.4953
  27   2.0000      -0.614434       -16.7196
  28   2.0000      -0.592934       -16.1345
  29   2.0000      -0.579083       -15.7577
  30   2.0000      -0.560975       -15.2649
  31   2.0000      -0.546798       -14.8791
  32   2.0000      -0.537992       -14.6395
  33   2.0000      -0.534003       -14.5310
  34   2.0000      -0.530828       -14.4446
  35   2.0000      -0.518552       -14.1105
  36   2.0000      -0.501639       -13.6503
  37   2.0000      -0.480591       -13.0775
  38   2.0000      -0.459465       -12.5027
  39   2.0000      -0.441838       -12.0230
  40   2.0000      -0.425940       -11.5904
  41   2.0000      -0.416035       -11.3209
  42   2.0000      -0.414360       -11.2753
  43   2.0000      -0.402261       -10.9461
  44   2.0000      -0.391773       -10.6607
  45   2.0000      -0.376308       -10.2399
  46   2.0000      -0.366109        -9.9623
  47   2.0000      -0.357528        -9.7288
  48   2.0000      -0.337662        -9.1882
  49   2.0000      -0.335440        -9.1278
  50   2.0000      -0.316753        -8.6193
  51   2.0000      -0.312586        -8.5059
  52   2.0000      -0.311300        -8.4709
  53   0.0000      -0.104160        -2.8343
  54   0.0000      -0.003353        -0.0912
  55   0.0000      -0.000372        -0.0101
  56   0.0000       0.023021         0.6264
  57   0.0000       0.049336         1.3425

MULLIKEN ATOMIC CHARGES
-----------------------
   0 C :   -0.153670
   1 C :   -0.222363
   2 C :   -0.200207
   3 C :   -0.221390
   4 C :   -0.585893
   5 C :   -0.123924
   6 H :    0.253009
   7 H :    0.234914
   8 H :    0.238088
   9 H :    0.254284
  10 H :    0.234208
  11 Pd:    0.560477
  12 O :   -0.441998
  13 O :   -0.478341
  14 O :   -0.500789
  15 C :    0.345586
  16 O :   -0.450094
  17 H :    0.447063
  18 C :    0.410181
  19 H :    0.206899
  20 H :    0.193962
Sum of atomic charges:    0.0000000

LOEWDIN ATOMIC CHARGES
----------------------
   0 C :   -0.056654
   1 C :   -0.137599
   2 C :   -0.084781
   3 C :   -0.133180
   4 C :   -0.170118
   5 C :   -0.053549
   6 H :    0.160119
   7 H :    0.144422
   8 H :    0.144852
   9 H :    0.159589
  10 H :    0.144516
  11 Pd:   -0.170803
  12 O :   -0.151497
  13 O :   -0.148874
  14 O :   -0.158022
  15 C :    0.110316
  16 O :   -0.276254
  17 H :    0.278990
  18 C :    0.164123
  19 H :    0.122815
  20 H :    0.111590

  Mayer bond orders larger than 0.100000
B(  0-C ,  1-C ) :   1.4433 B(  0-C ,  4-C ) :   1.2873 B(  0-C ,  6-H ) :   0.9064
B(  1-C ,  2-C ) :   1.4006 B(  1-C ,  7-H ) :   0.9149 B(  2-C ,  3-C ) :   1.4011
B(  2-C ,  8-H ) :   0.9141 B(  3-C ,  5-C ) :   1.4425 B(  3-C , 10-H ) :   0.9149
B(  4-C ,  5-C ) :   1.2978 B(  4-C , 11-Pd) :   0.3667 B(  4-C , 17-H ) :   0.5614
B(  5-C ,  9-H ) :   0.9082 B( 11-Pd, 12-O ) :   0.4882 B( 11-Pd, 13-O ) :   0.5723
B( 11-Pd, 14-O ) :   0.6054 B( 12-O , 13-O ) :   0.1144 B( 12-O , 18-C ) :   1.5401
B( 13-O , 18-C ) :   1.4166 B( 14-O , 15-C ) :   1.3541 B( 14-O , 16-O ) :   0.1080
B( 15-C , 16-O ) :   1.7422 B( 15-C , 20-H ) :   0.8792 B( 16-O , 17-H ) :   0.1963
B( 18-C , 19-H ) :   0.8845

Dispersion correction           -0.013472053
FINAL SINGLE POINT ENERGY      -737.115134652639
Dispersion correction            ... done

DIPOLE MOMENT
-------------
                                X             Y             Z
Electronic contribution:     47.90141      34.31422      -4.60588
Nuclear contribution   :    -48.29145     -35.49366       3.82677
                        -----------------------------------------
Total Dipole Moment    :     -0.39004      -1.17944      -0.77911
                        -----------------------------------------
Magnitude (a.u.)       :      1.46636
Magnitude (Debye)      :      3.72719

Rotational constants in cm-1:     0.028009     0.019779     0.013994
Rotational constants in MHz :   839.686308   592.953249   419.519512

                             ****ORCA TERMINATED NORMALLY****
TOTAL RUN TIME: 0 days 0 hours 4 minutes 35 seconds 617 msec
