                         Program Version 5.0.3 -  RELEASE  -
|  1> ! EnGrad PBEh-3c
|  2> %output
|  3> xyzfile=True
|  4> end
|  5> %scf
|  6> maxiter 250
|  7> end
|  8> %output
|  9> Print[P_Hirshfeld] = 1
| 10> end
| 11> % maxcore
| 12> 4000
| 13> *xyz 0 1
| 14> C   -1.60856001   0.18591940  -0.48216145
| 15> C   -1.98660887  -0.86641875  -1.29978462
| 16> C   -1.57488317  -2.14275890  -1.02898225
| 17> C   -0.71358387  -2.41445133   0.01677954
| 18> C   -0.79367116  -0.06977449   0.67001864
| 19> C   -0.31425985  -1.39446018   0.87293626
| 20> H   -1.97587084   1.17271239  -0.72709091
| 21> H   -2.66609969  -0.66340748  -2.12001039
| 22> H   -1.95688509  -2.96239751  -1.62631824
| 23> H    0.36836209  -1.62957997   1.68476368
| 24> H   -0.38120228  -3.41642923   0.21180821
| 25> Pd   1.38883386   1.11190687  -0.01451311
| 26> O    3.12566952   1.21636403  -1.36068813
| 27> O    2.60899692  -0.50946705  -0.16019796
| 28> O    0.39332467   2.85219554  -0.00879325
| 29> C    0.05583557   2.88754203   1.44683863
| 30> O    0.40222041   2.21917692   2.11518051
| 31> H   -1.29067679   1.13382018   2.69837472
| 32> C    3.38294364   0.04247540  -1.01622958
| 33> H    4.21370379  -0.52079422  -1.45061938
| 34> H   -0.67751535   3.76686155   1.57574207
| 35> *
| 36>
| 37>                          ****END OF INPUT****

CARTESIAN COORDINATES (ANGSTROEM)
---------------------------------
  C     -1.608560    0.185919   -0.482161
  C     -1.986609   -0.866419   -1.299785
  C     -1.574883   -2.142759   -1.028982
  C     -0.713584   -2.414451    0.016780
  C     -0.793671   -0.069774    0.670019
  C     -0.314260   -1.394460    0.872936
  H     -1.975871    1.172712   -0.727091
  H     -2.666100   -0.663407   -2.120010
  H     -1.956885   -2.962398   -1.626318
  H      0.368362   -1.629580    1.684764
  H     -0.381202   -3.416429    0.211808
  Pd     1.388834    1.111907   -0.014513
  O      3.125670    1.216364   -1.360688
  O      2.608997   -0.509467   -0.160198
  O      0.393325    2.852196   -0.008793
  C      0.055836    2.887542    1.446839
  O      0.402220    2.219177    2.115181
  H     -1.290677    1.133820    2.698375
  C      3.382944    0.042475   -1.016230
  H      4.213704   -0.520794   -1.450619
  H     -0.677515    3.766862    1.575742

 Total Charge           Charge          ....    0
 Multiplicity           Mult            ....    1
 Number of Electrons    NEL             ....  106
 Basis Dimension        Dim             ....  227

ORBITAL ENERGIES
----------------

  NO   OCC          E(Eh)            E(eV)
   0   2.0000     -19.531396      -531.4763
   1   2.0000     -19.512421      -530.9600
   2   2.0000     -19.508081      -530.8419
   3   2.0000     -19.477220      -530.0021
   4   2.0000     -10.576288      -287.7954
   5   2.0000     -10.563689      -287.4526
   6   2.0000     -10.526093      -286.4295
   7   2.0000     -10.486350      -285.3481
   8   2.0000     -10.485883      -285.3354
   9   2.0000     -10.474988      -285.0389
  10   2.0000     -10.472165      -284.9621
  11   2.0000     -10.471411      -284.9416
  12   2.0000      -3.672013       -99.9206
  13   2.0000      -2.325745       -63.2867
  14   2.0000      -2.306501       -62.7631
  15   2.0000      -2.287111       -62.2355
  16   2.0000      -1.327346       -36.1189
  17   2.0000      -1.208503       -32.8850
  18   2.0000      -1.093206       -29.7476
  19   2.0000      -1.027474       -27.9590
  20   2.0000      -0.980473       -26.6800
  21   2.0000      -0.865577       -23.5535
  22   2.0000      -0.852453       -23.1964
  23   2.0000      -0.702253       -19.1093
  24   2.0000      -0.693284       -18.8652
  25   2.0000      -0.684379       -18.6229
  26   2.0000      -0.659488       -17.9456
  27   2.0000      -0.605427       -16.4745
  28   2.0000      -0.599627       -16.3167
  29   2.0000      -0.576050       -15.6751
  30   2.0000      -0.569300       -15.4914
  31   2.0000      -0.558754       -15.2045
  32   2.0000      -0.539259       -14.6740
  33   2.0000      -0.536149       -14.5893
  34   2.0000      -0.533935       -14.5291
  35   2.0000      -0.510765       -13.8986
  36   2.0000      -0.507271       -13.8035
  37   2.0000      -0.464085       -12.6284
  38   2.0000      -0.449682       -12.2365
  39   2.0000      -0.428118       -11.6497
  40   2.0000      -0.424636       -11.5549
  41   2.0000      -0.399618       -10.8741
  42   2.0000      -0.389917       -10.6102
  43   2.0000      -0.378245       -10.2926
  44   2.0000      -0.359115        -9.7720
  45   2.0000      -0.348747        -9.4899
  46   2.0000      -0.346975        -9.4417
  47   2.0000      -0.333198        -9.0668
  48   2.0000      -0.321950        -8.7607
  49   2.0000      -0.315274        -8.5790
  50   2.0000      -0.314610        -8.5610
  51   2.0000      -0.299488        -8.1495
  52   2.0000      -0.296380        -8.0649
  53   0.0000      -0.138280        -3.7628
  54   0.0000      -0.085116        -2.3161
  55   0.0000      -0.005638        -0.1534
  56   0.0000      -0.001028        -0.0280
  57   0.0000       0.033719         0.9175

MULLIKEN ATOMIC CHARGES
-----------------------
   0 C :   -0.212387
   1 C :   -0.207177
   2 C :   -0.208867
   3 C :   -0.205494
   4 C :   -0.181896
   5 C :   -0.215264
   6 H :    0.275669
   7 H :    0.242325
   8 H :    0.238133
   9 H :    0.268859
  10 H :    0.241868
  11 Pd:    0.495247
  12 O :   -0.443755
  13 O :   -0.498885
  14 O :   -0.578368
  15 C :    0.266360
  16 O :   -0.142152
  17 H :    0.106768
  18 C :    0.396904
  19 H :    0.203087
  20 H :    0.159025
Sum of atomic charges:   -0.0000000

LOEWDIN ATOMIC CHARGES
----------------------
   0 C :   -0.085409
   1 C :   -0.132119
   2 C :   -0.101830
   3 C :   -0.126945
   4 C :   -0.031874
   5 C :   -0.086624
   6 H :    0.166756
   7 H :    0.148127
   8 H :    0.144737
   9 H :    0.164143
  10 H :    0.147897
  11 Pd:   -0.189190
  12 O :   -0.163900
  13 O :   -0.179431
  14 O :   -0.298599
  15 C :    0.054808
  16 O :    0.061986
  17 H :    0.135031
  18 C :    0.160117
  19 H :    0.119921
  20 H :    0.092399

  Mayer bond orders larger than 0.100000
B(  0-C ,  1-C ) :   1.4201 B(  0-C ,  4-C ) :   1.3321 B(  0-C ,  6-H ) :   0.8937
B(  1-C ,  2-C ) :   1.4140 B(  1-C ,  7-H ) :   0.9082 B(  2-C ,  3-C ) :   1.4100
B(  2-C ,  8-H ) :   0.9132 B(  3-C ,  5-C ) :   1.4296 B(  3-C , 10-H ) :   0.9085
B(  4-C ,  5-C ) :   1.3551 B(  4-C , 11-Pd) :   0.2701 B(  4-C , 17-H ) :   0.7199
B(  5-C ,  9-H ) :   0.8965 B( 11-Pd, 12-O ) :   0.4585 B( 11-Pd, 13-O ) :   0.5469
B( 11-Pd, 14-O ) :   0.8083 B( 11-Pd, 16-O ) :   0.1063 B( 12-O , 13-O ) :   0.1133
B( 12-O , 18-C ) :   1.5760 B( 13-O , 18-C ) :   1.4065 B( 14-O , 15-C ) :   1.0215
B( 15-C , 16-O ) :   2.1593 B( 15-C , 20-H ) :   0.8586 B( 18-C , 19-H ) :   0.8826

Dispersion correction           -0.013626797
FINAL SINGLE POINT ENERGY      -736.792213859533
Dispersion correction            ... done

DIPOLE MOMENT
-------------
                                X             Y             Z
Electronic contribution:     51.31235      40.54208      -0.53871
Nuclear contribution   :    -52.26623     -41.90346       0.82159
                        -----------------------------------------
Total Dipole Moment    :     -0.95388      -1.36138       0.28288
                        -----------------------------------------
Magnitude (a.u.)       :      1.68620
Magnitude (Debye)      :      4.28597

Rotational constants in cm-1:     0.028162     0.017927     0.013331
Rotational constants in MHz :   844.266329   537.446877   399.651262

                             ****ORCA TERMINATED NORMALLY****
TOTAL RUN TIME: 0 days 0 hours 5 minutes 3 seconds 793 msec
