                         Program Version 5.0.3 -  RELEASE  -
|  1> ! EnGrad PBEh-3c
|  2> %output
|  3> xyzfile=True
|  4> end
|  5> %scf
|  6> maxiter 250
|  7> end
|  8> %output
|  9> Print[P_Hirshfeld] = 1
| 10> end
| 11> % maxcore
| 12> 4000
| 13> *xyz 0 1
| 14> C   -1.59783023   0.19149392  -0.47754216
| 15> C   -1.98252070  -0.85638540  -1.30076040
| 16> C   -1.57382937  -2.14330409  -1.02830139
| 17> C   -0.70564894  -2.40575235   0.01730147
| 18> C   -0.80866081  -0.10188339   0.64821004
| 19> C   -0.31239942  -1.38989181   0.87768394
| 20> H   -1.98517317   1.16741079  -0.73696496
| 21> H   -2.66570574  -0.66561189  -2.11863428
| 22> H   -1.95504664  -2.95977932  -1.62633795
| 23> H    0.36976853  -1.63793424   1.68254663
| 24> H   -0.38220608  -3.41514074   0.21174217
| 25> Pd   1.40995605   1.12023359  -0.04682617
| 26> O    3.12532508   1.21410915  -1.35283051
| 27> O    2.62938164  -0.51580762  -0.15291150
| 28> O    0.37877108   2.85613648   0.05047716
| 29> C    0.04395866   2.93766595   1.36001412
| 30> O    0.42542131   2.18635481   2.14530084
| 31> H   -1.31328792   1.14687134   2.73739116
| 32> C    3.36526297   0.03098835  -1.02932310
| 33> H    4.21391335  -0.52157287  -1.44545909
| 34> H   -0.67941224   3.76133929   1.58384041
| 35> *
| 36>
| 37>                          ****END OF INPUT****

CARTESIAN COORDINATES (ANGSTROEM)
---------------------------------
  C     -1.597830    0.191494   -0.477542
  C     -1.982521   -0.856385   -1.300760
  C     -1.573829   -2.143304   -1.028301
  C     -0.705649   -2.405752    0.017301
  C     -0.808661   -0.101883    0.648210
  C     -0.312399   -1.389892    0.877684
  H     -1.985173    1.167411   -0.736965
  H     -2.665706   -0.665612   -2.118634
  H     -1.955047   -2.959779   -1.626338
  H      0.369769   -1.637934    1.682547
  H     -0.382206   -3.415141    0.211742
  Pd     1.409956    1.120234   -0.046826
  O      3.125325    1.214109   -1.352831
  O      2.629382   -0.515808   -0.152912
  O      0.378771    2.856136    0.050477
  C      0.043959    2.937666    1.360014
  O      0.425421    2.186355    2.145301
  H     -1.313288    1.146871    2.737391
  C      3.365263    0.030988   -1.029323
  H      4.213913   -0.521573   -1.445459
  H     -0.679412    3.761339    1.583840

 Total Charge           Charge          ....    0
 Multiplicity           Mult            ....    1
 Number of Electrons    NEL             ....  106
 Basis Dimension        Dim             ....  227

ORBITAL ENERGIES
----------------

  NO   OCC          E(Eh)            E(eV)
   0   2.0000     -19.526238      -531.3360
   1   2.0000     -19.519878      -531.1629
   2   2.0000     -19.502466      -530.6891
   3   2.0000     -19.501991      -530.6762
   4   2.0000     -10.585424      -288.0440
   5   2.0000     -10.562172      -287.4113
   6   2.0000     -10.515562      -286.1430
   7   2.0000     -10.480641      -285.1928
   8   2.0000     -10.479033      -285.1490
   9   2.0000     -10.470746      -284.9235
  10   2.0000     -10.469432      -284.8877
  11   2.0000     -10.469248      -284.8827
  12   2.0000      -3.682740      -100.2124
  13   2.0000      -2.337141       -63.5968
  14   2.0000      -2.317887       -63.0729
  15   2.0000      -2.295433       -62.4619
  16   2.0000      -1.224266       -33.3140
  17   2.0000      -1.219640       -33.1881
  18   2.0000      -1.108372       -30.1603
  19   2.0000      -1.080229       -29.3945
  20   2.0000      -0.980156       -26.6714
  21   2.0000      -0.864260       -23.5177
  22   2.0000      -0.850680       -23.1482
  23   2.0000      -0.700599       -19.0643
  24   2.0000      -0.693094       -18.8600
  25   2.0000      -0.690650       -18.7935
  26   2.0000      -0.662984       -18.0407
  27   2.0000      -0.601584       -16.3699
  28   2.0000      -0.583438       -15.8762
  29   2.0000      -0.563541       -15.3347
  30   2.0000      -0.555133       -15.1059
  31   2.0000      -0.536837       -14.6081
  32   2.0000      -0.532891       -14.5007
  33   2.0000      -0.531171       -14.4539
  34   2.0000      -0.524087       -14.2611
  35   2.0000      -0.513227       -13.9656
  36   2.0000      -0.504518       -13.7286
  37   2.0000      -0.460939       -12.5428
  38   2.0000      -0.449116       -12.2211
  39   2.0000      -0.434511       -11.8236
  40   2.0000      -0.425555       -11.5799
  41   2.0000      -0.408118       -11.1055
  42   2.0000      -0.399858       -10.8807
  43   2.0000      -0.386018       -10.5041
  44   2.0000      -0.373333       -10.1589
  45   2.0000      -0.359674        -9.7872
  46   2.0000      -0.357240        -9.7210
  47   2.0000      -0.344048        -9.3620
  48   2.0000      -0.331506        -9.0207
  49   2.0000      -0.322952        -8.7880
  50   2.0000      -0.315462        -8.5842
  51   2.0000      -0.306456        -8.3391
  52   2.0000      -0.280225        -7.6253
  53   0.0000      -0.132032        -3.5928
  54   0.0000      -0.093674        -2.5490
  55   0.0000      -0.003142        -0.0855
  56   0.0000       0.002026         0.0551
  57   0.0000       0.027343         0.7441

MULLIKEN ATOMIC CHARGES
-----------------------
   0 C :   -0.214198
   1 C :   -0.217384
   2 C :   -0.209853
   3 C :   -0.215185
   4 C :   -0.156544
   5 C :   -0.217611
   6 H :    0.267981
   7 H :    0.239709
   8 H :    0.236189
   9 H :    0.269217
  10 H :    0.238394
  11 Pd:    0.514353
  12 O :   -0.445757
  13 O :   -0.477846
  14 O :   -0.528857
  15 C :    0.343434
  16 O :   -0.332136
  17 H :    0.116276
  18 C :    0.406173
  19 H :    0.206170
  20 H :    0.177473
Sum of atomic charges:   -0.0000000

LOEWDIN ATOMIC CHARGES
----------------------
   0 C :   -0.100493
   1 C :   -0.128688
   2 C :   -0.111619
   3 C :   -0.123921
   4 C :   -0.025662
   5 C :   -0.097355
   6 H :    0.164467
   7 H :    0.145438
   8 H :    0.143495
   9 H :    0.165014
  10 H :    0.145545
  11 Pd:   -0.150060
  12 O :   -0.154311
  13 O :   -0.158203
  14 O :   -0.217242
  15 C :    0.100586
  16 O :   -0.123306
  17 H :    0.140597
  18 C :    0.161807
  19 H :    0.121700
  20 H :    0.102212

  Mayer bond orders larger than 0.100000
B(  0-C ,  1-C ) :   1.4133 B(  0-C ,  4-C ) :   1.3505 B(  0-C ,  6-H ) :   0.8961
B(  1-C ,  2-C ) :   1.4207 B(  1-C ,  7-H ) :   0.9086 B(  2-C ,  3-C ) :   1.4159
B(  2-C ,  8-H ) :   0.9142 B(  3-C ,  5-C ) :   1.4199 B(  3-C , 10-H ) :   0.9093
B(  4-C ,  5-C ) :   1.3786 B(  4-C , 11-Pd) :   0.2721 B(  4-C , 17-H ) :   0.6721
B(  5-C ,  9-H ) :   0.8953 B( 11-Pd, 12-O ) :   0.4857 B( 11-Pd, 13-O ) :   0.5695
B( 11-Pd, 14-O ) :   0.6916 B( 11-Pd, 16-O ) :   0.1486 B( 12-O , 13-O ) :   0.1131
B( 12-O , 18-C ) :   1.5512 B( 13-O , 18-C ) :   1.4167 B( 14-O , 15-C ) :   1.2243
B( 15-C , 16-O ) :   1.8720 B( 15-C , 20-H ) :   0.8754 B( 18-C , 19-H ) :   0.8837

Dispersion correction           -0.013566539
FINAL SINGLE POINT ENERGY      -736.901445680788
Dispersion correction            ... done

DIPOLE MOMENT
-------------
                                X             Y             Z
Electronic contribution:     52.36027      41.09145      -2.55882
Nuclear contribution   :    -53.17300     -42.31197       2.35015
                        -----------------------------------------
Total Dipole Moment    :     -0.81273      -1.22052      -0.20867
                        -----------------------------------------
Magnitude (a.u.)       :      1.48113
Magnitude (Debye)      :      3.76472

Rotational constants in cm-1:     0.028070     0.017887     0.013297
Rotational constants in MHz :   841.518545   536.230610   398.619411

                             ****ORCA TERMINATED NORMALLY****
TOTAL RUN TIME: 0 days 0 hours 4 minutes 32 seconds 112 msec
