                         Program Version 5.0.3 -  RELEASE  -
|  1> ! EnGrad PBEh-3c
|  2> %output
|  3> xyzfile=True
|  4> end
|  5> %scf
|  6> maxiter 250
|  7> end
|  8> %output
|  9> Print[P_Hirshfeld] = 1
| 10> end
| 11> % maxcore
| 12> 4000
| 13> *xyz 0 1
| 14> C   -1.60513485   0.18736126  -0.47414673
| 15> C   -1.98716799  -0.86268135  -1.30031111
| 16> C   -1.57501874  -2.14734500  -1.02960856
| 17> C   -0.71259051  -2.41124035   0.01770320
| 18> C   -0.79737472  -0.07380931   0.66758432
| 19> C   -0.31568070  -1.38863727   0.87516023
| 20> H   -1.97605605   1.17289245  -0.72619378
| 21> H   -2.66529094  -0.66361648  -2.12012918
| 22> H   -1.95614432  -2.96211484  -1.62663643
| 23> H    0.36713694  -1.62938366   1.68483535
| 24> H   -0.38047451  -3.41757704   0.21169641
| 25> Pd   1.38623249   1.11413712  -0.01767971
| 26> O    3.12638879   1.21556960  -1.35982583
| 27> O    2.61184646  -0.50933370  -0.16164272
| 28> O    0.38755202   2.84747280   0.02936634
| 29> C    0.03591681   2.94256557   1.35540237
| 30> O    0.42958027   2.17153454   2.16998741
| 31> H   -1.28995031   1.12726675   2.69026538
| 32> C    3.37602735   0.04374376  -1.01455116
| 33> H    4.21426014  -0.52101281  -1.45016330
| 34> H   -0.67401871   3.76299287   1.57586914
| 35> *
| 36>
| 37>                          ****END OF INPUT****

CARTESIAN COORDINATES (ANGSTROEM)
---------------------------------
  C     -1.605135    0.187361   -0.474147
  C     -1.987168   -0.862681   -1.300311
  C     -1.575019   -2.147345   -1.029609
  C     -0.712591   -2.411240    0.017703
  C     -0.797375   -0.073809    0.667584
  C     -0.315681   -1.388637    0.875160
  H     -1.976056    1.172892   -0.726194
  H     -2.665291   -0.663616   -2.120129
  H     -1.956144   -2.962115   -1.626636
  H      0.367137   -1.629384    1.684835
  H     -0.380475   -3.417577    0.211696
  Pd     1.386232    1.114137   -0.017680
  O      3.126389    1.215570   -1.359826
  O      2.611846   -0.509334   -0.161643
  O      0.387552    2.847473    0.029366
  C      0.035917    2.942566    1.355402
  O      0.429580    2.171535    2.169987
  H     -1.289950    1.127267    2.690265
  C      3.376027    0.043744   -1.014551
  H      4.214260   -0.521013   -1.450163
  H     -0.674019    3.762993    1.575869

 Total Charge           Charge          ....    0
 Multiplicity           Mult            ....    1
 Number of Electrons    NEL             ....  106
 Basis Dimension        Dim             ....  227

ORBITAL ENERGIES
----------------

  NO   OCC          E(Eh)            E(eV)
   0   2.0000     -19.521367      -531.2034
   1   2.0000     -19.514042      -531.0041
   2   2.0000     -19.510360      -530.9039
   3   2.0000     -19.508591      -530.8557
   4   2.0000     -10.581465      -287.9363
   5   2.0000     -10.572768      -287.6997
   6   2.0000     -10.515045      -286.1289
   7   2.0000     -10.481129      -285.2060
   8   2.0000     -10.479441      -285.1601
   9   2.0000     -10.470840      -284.9260
  10   2.0000     -10.468487      -284.8620
  11   2.0000     -10.468270      -284.8561
  12   2.0000      -3.681549      -100.1800
  13   2.0000      -2.336442       -63.5778
  14   2.0000      -2.315638       -63.0117
  15   2.0000      -2.294809       -62.4449
  16   2.0000      -1.218120       -33.1467
  17   2.0000      -1.203483       -32.7484
  18   2.0000      -1.102698       -30.0059
  19   2.0000      -1.078238       -29.3403
  20   2.0000      -0.975698       -26.5501
  21   2.0000      -0.860351       -23.4113
  22   2.0000      -0.848703       -23.0944
  23   2.0000      -0.698098       -18.9962
  24   2.0000      -0.689038       -18.7497
  25   2.0000      -0.688051       -18.7228
  26   2.0000      -0.672102       -18.2888
  27   2.0000      -0.600319       -16.3355
  28   2.0000      -0.578526       -15.7425
  29   2.0000      -0.562124       -15.2962
  30   2.0000      -0.550393       -14.9769
  31   2.0000      -0.532721       -14.4961
  32   2.0000      -0.531305       -14.4576
  33   2.0000      -0.529594       -14.4110
  34   2.0000      -0.518755       -14.1160
  35   2.0000      -0.507617       -13.8130
  36   2.0000      -0.501512       -13.6468
  37   2.0000      -0.459518       -12.5041
  38   2.0000      -0.446119       -12.1395
  39   2.0000      -0.434435       -11.8216
  40   2.0000      -0.421286       -11.4638
  41   2.0000      -0.407111       -11.0780
  42   2.0000      -0.396918       -10.8007
  43   2.0000      -0.383800       -10.4437
  44   2.0000      -0.369926       -10.0662
  45   2.0000      -0.363105        -9.8806
  46   2.0000      -0.358431        -9.7534
  47   2.0000      -0.345247        -9.3946
  48   2.0000      -0.331358        -9.0167
  49   2.0000      -0.324442        -8.8285
  50   2.0000      -0.313054        -8.5186
  51   2.0000      -0.304227        -8.2784
  52   2.0000      -0.285893        -7.7796
  53   0.0000      -0.130149        -3.5415
  54   0.0000      -0.091174        -2.4810
  55   0.0000      -0.002015        -0.0548
  56   0.0000       0.001988         0.0541
  57   0.0000       0.030650         0.8340

MULLIKEN ATOMIC CHARGES
-----------------------
   0 C :   -0.217385
   1 C :   -0.211763
   2 C :   -0.210426
   3 C :   -0.209218
   4 C :   -0.176612
   5 C :   -0.220311
   6 H :    0.264941
   7 H :    0.238941
   8 H :    0.236282
   9 H :    0.267044
  10 H :    0.238291
  11 Pd:    0.526731
  12 O :   -0.442563
  13 O :   -0.483698
  14 O :   -0.531190
  15 C :    0.358668
  16 O :   -0.359862
  17 H :    0.136662
  18 C :    0.399674
  19 H :    0.203748
  20 H :    0.192046
Sum of atomic charges:    0.0000000

LOEWDIN ATOMIC CHARGES
----------------------
   0 C :   -0.095803
   1 C :   -0.132356
   2 C :   -0.107103
   3 C :   -0.127458
   4 C :   -0.042223
   5 C :   -0.091296
   6 H :    0.161491
   7 H :    0.145660
   8 H :    0.143372
   9 H :    0.163025
  10 H :    0.145913
  11 Pd:   -0.156546
  12 O :   -0.161044
  13 O :   -0.163819
  14 O :   -0.217148
  15 C :    0.136040
  16 O :   -0.152487
  17 H :    0.162745
  18 C :    0.157764
  19 H :    0.120374
  20 H :    0.110900

  Mayer bond orders larger than 0.100000
B(  0-C ,  1-C ) :   1.4203 B(  0-C ,  4-C ) :   1.3328 B(  0-C ,  6-H ) :   0.8976
B(  1-C ,  2-C ) :   1.4158 B(  1-C ,  7-H ) :   0.9096 B(  2-C ,  3-C ) :   1.4133
B(  2-C ,  8-H ) :   0.9139 B(  3-C ,  5-C ) :   1.4243 B(  3-C , 10-H ) :   0.9100
B(  4-C ,  5-C ) :   1.3644 B(  4-C , 11-Pd) :   0.2922 B(  4-C , 17-H ) :   0.6729
B(  5-C ,  9-H ) :   0.8968 B( 11-Pd, 12-O ) :   0.4629 B( 11-Pd, 13-O ) :   0.5727
B( 11-Pd, 14-O ) :   0.6878 B( 11-Pd, 16-O ) :   0.1497 B( 12-O , 13-O ) :   0.1127
B( 12-O , 18-C ) :   1.5733 B( 13-O , 18-C ) :   1.4061 B( 14-O , 15-C ) :   1.2242
B( 15-C , 16-O ) :   1.8293 B( 15-C , 20-H ) :   0.8755 B( 18-C , 19-H ) :   0.8824

Dispersion correction           -0.013624529
FINAL SINGLE POINT ENERGY      -736.913215859853
Dispersion correction            ... done

DIPOLE MOMENT
-------------
                                X             Y             Z
Electronic contribution:     51.21044      40.94691      -1.16182
Nuclear contribution   :    -52.13230     -42.03713       1.05812
                        -----------------------------------------
Total Dipole Moment    :     -0.92187      -1.09022      -0.10369
                        -----------------------------------------
Magnitude (a.u.)       :      1.43149
Magnitude (Debye)      :      3.63857

Rotational constants in cm-1:     0.028130     0.017913     0.013341
Rotational constants in MHz :   843.311170   537.012619   399.957406

                             ****ORCA TERMINATED NORMALLY****
TOTAL RUN TIME: 0 days 0 hours 4 minutes 56 seconds 363 msec
