                         Program Version 5.0.3 -  RELEASE  -
|  1> ! EnGrad PBEh-3c
|  2> %output
|  3> xyzfile=True
|  4> end
|  5> %scf
|  6> maxiter 250
|  7> end
|  8> %output
|  9> Print[P_Hirshfeld] = 1
| 10> end
| 11> % maxcore
| 12> 4000
| 13> *xyz 0 1
| 14> C   -1.60727280   0.18449456  -0.46217367
| 15> C   -1.99399118  -0.86433450  -1.29733567
| 16> C   -1.58009809  -2.15604960  -1.03024671
| 17> C   -0.71970940  -2.41283547   0.02195004
| 18> C   -0.78536902  -0.04989748   0.68141467
| 19> C   -0.32044653  -1.37960139   0.87344676
| 20> H   -1.96348818   1.17868790  -0.71564830
| 21> H   -2.66671301  -0.66225708  -2.12105436
| 22> H   -1.96136569  -2.96654177  -1.62555424
| 23> H    0.36429550  -1.61959990   1.68447100
| 24> H   -0.38036929  -3.42218166   0.21252029
| 25> Pd   1.35936486   1.10548364   0.00936759
| 26> O    3.13079041   1.22032134  -1.36285123
| 27> O    2.59502322  -0.50257973  -0.17263856
| 28> O    0.38928711   2.83416254   0.04281789
| 29> C    0.03893522   2.94042914   1.32574678
| 30> O    0.42729847   2.16363397   2.19207058
| 31> H   -1.25536684   1.10045193   2.62356717
| 32> C    3.38117155   0.05848158  -0.99958850
| 33> H    4.21641194  -0.51736444  -1.45148416
| 34> H   -0.66859584   3.76458240   1.56633031
| 35> *
| 36>
| 37>                          ****END OF INPUT****

CARTESIAN COORDINATES (ANGSTROEM)
---------------------------------
  C     -1.607273    0.184495   -0.462174
  C     -1.993991   -0.864334   -1.297336
  C     -1.580098   -2.156050   -1.030247
  C     -0.719709   -2.412835    0.021950
  C     -0.785369   -0.049897    0.681415
  C     -0.320447   -1.379601    0.873447
  H     -1.963488    1.178688   -0.715648
  H     -2.666713   -0.662257   -2.121054
  H     -1.961366   -2.966542   -1.625554
  H      0.364295   -1.619600    1.684471
  H     -0.380369   -3.422182    0.212520
  Pd     1.359365    1.105484    0.009368
  O      3.130790    1.220321   -1.362851
  O      2.595023   -0.502580   -0.172639
  O      0.389287    2.834163    0.042818
  C      0.038935    2.940429    1.325747
  O      0.427298    2.163634    2.192071
  H     -1.255367    1.100452    2.623567
  C      3.381172    0.058482   -0.999588
  H      4.216412   -0.517364   -1.451484
  H     -0.668596    3.764582    1.566330

 Total Charge           Charge          ....    0
 Multiplicity           Mult            ....    1
 Number of Electrons    NEL             ....  106
 Basis Dimension        Dim             ....  227

ORBITAL ENERGIES
----------------

  NO   OCC          E(Eh)            E(eV)
   0   2.0000     -19.521855      -531.2167
   1   2.0000     -19.519368      -531.1490
   2   2.0000     -19.510187      -530.8992
   3   2.0000     -19.504889      -530.7550
   4   2.0000     -10.579249      -287.8760
   5   2.0000     -10.577185      -287.8198
   6   2.0000     -10.512267      -286.0533
   7   2.0000     -10.481551      -285.2175
   8   2.0000     -10.479448      -285.1603
   9   2.0000     -10.472187      -284.9627
  10   2.0000     -10.469035      -284.8769
  11   2.0000     -10.468392      -284.8594
  12   2.0000      -3.683308      -100.2279
  13   2.0000      -2.338878       -63.6441
  14   2.0000      -2.316597       -63.0378
  15   2.0000      -2.296717       -62.4968
  16   2.0000      -1.215764       -33.0826
  17   2.0000      -1.192726       -32.4557
  18   2.0000      -1.100940       -29.9581
  19   2.0000      -1.092845       -29.7378
  20   2.0000      -0.972338       -26.4587
  21   2.0000      -0.856544       -23.3078
  22   2.0000      -0.848427       -23.0869
  23   2.0000      -0.696292       -18.9471
  24   2.0000      -0.687902       -18.7188
  25   2.0000      -0.684775       -18.6337
  26   2.0000      -0.673846       -18.3363
  27   2.0000      -0.599488       -16.3129
  28   2.0000      -0.576751       -15.6942
  29   2.0000      -0.564543       -15.3620
  30   2.0000      -0.548740       -14.9320
  31   2.0000      -0.531769       -14.4702
  32   2.0000      -0.530024       -14.4227
  33   2.0000      -0.528751       -14.3880
  34   2.0000      -0.516749       -14.0615
  35   2.0000      -0.508029       -13.8242
  36   2.0000      -0.498410       -13.5624
  37   2.0000      -0.460272       -12.5246
  38   2.0000      -0.444786       -12.1033
  39   2.0000      -0.433721       -11.8022
  40   2.0000      -0.417331       -11.3562
  41   2.0000      -0.409085       -11.1318
  42   2.0000      -0.395439       -10.7604
  43   2.0000      -0.383098       -10.4246
  44   2.0000      -0.371380       -10.1058
  45   2.0000      -0.367850       -10.0097
  46   2.0000      -0.358753        -9.7622
  47   2.0000      -0.347321        -9.4511
  48   2.0000      -0.334818        -9.1109
  49   2.0000      -0.327662        -8.9161
  50   2.0000      -0.310874        -8.4593
  51   2.0000      -0.303786        -8.2664
  52   2.0000      -0.289106        -7.8670
  53   0.0000      -0.127020        -3.4564
  54   0.0000      -0.089500        -2.4354
  55   0.0000      -0.001519        -0.0413
  56   0.0000       0.002052         0.0558
  57   0.0000       0.031582         0.8594

MULLIKEN ATOMIC CHARGES
-----------------------
   0 C :   -0.215160
   1 C :   -0.212545
   2 C :   -0.209165
   3 C :   -0.208837
   4 C :   -0.200593
   5 C :   -0.217640
   6 H :    0.260825
   7 H :    0.238383
   8 H :    0.237613
   9 H :    0.265009
  10 H :    0.237648
  11 Pd:    0.535746
  12 O :   -0.438421
  13 O :   -0.484342
  14 O :   -0.509342
  15 C :    0.370538
  16 O :   -0.400291
  17 H :    0.164539
  18 C :    0.392761
  19 H :    0.200737
  20 H :    0.192537
Sum of atomic charges:   -0.0000000

LOEWDIN ATOMIC CHARGES
----------------------
   0 C :   -0.092802
   1 C :   -0.134927
   2 C :   -0.103170
   3 C :   -0.130181
   4 C :   -0.061185
   5 C :   -0.085730
   6 H :    0.158699
   7 H :    0.145479
   8 H :    0.143414
   9 H :    0.161527
  10 H :    0.145939
  11 Pd:   -0.156741
  12 O :   -0.166553
  13 O :   -0.164376
  14 O :   -0.181257
  15 C :    0.143659
  16 O :   -0.195594
  17 H :    0.191654
  18 C :    0.151433
  19 H :    0.118884
  20 H :    0.111829

  Mayer bond orders larger than 0.100000
B(  0-C ,  1-C ) :   1.4264 B(  0-C ,  4-C ) :   1.3162 B(  0-C ,  6-H ) :   0.8990
B(  1-C ,  2-C ) :   1.4106 B(  1-C ,  7-H ) :   0.9106 B(  2-C ,  3-C ) :   1.4117
B(  2-C ,  8-H ) :   0.9132 B(  3-C ,  5-C ) :   1.4265 B(  3-C , 10-H ) :   0.9108
B(  4-C ,  5-C ) :   1.3522 B(  4-C , 11-Pd) :   0.3204 B(  4-C , 17-H ) :   0.6615
B(  5-C ,  9-H ) :   0.8978 B( 11-Pd, 12-O ) :   0.4420 B( 11-Pd, 13-O ) :   0.5798
B( 11-Pd, 14-O ) :   0.6570 B( 11-Pd, 16-O ) :   0.1575 B( 12-O , 13-O ) :   0.1121
B( 12-O , 18-C ) :   1.5938 B( 13-O , 18-C ) :   1.3976 B( 14-O , 15-C ) :   1.2832
B( 15-C , 16-O ) :   1.7560 B( 15-C , 20-H ) :   0.8777 B( 18-C , 19-H ) :   0.8811

Dispersion correction           -0.013698827
FINAL SINGLE POINT ENERGY      -736.928394774555
Dispersion correction            ... done

DIPOLE MOMENT
-------------
                                X             Y             Z
Electronic contribution:     49.97409      40.61878      -0.03811
Nuclear contribution   :    -50.96764     -41.62979      -0.08291
                        -----------------------------------------
Total Dipole Moment    :     -0.99355      -1.01101      -0.12102
                        -----------------------------------------
Magnitude (a.u.)       :      1.42265
Magnitude (Debye)      :      3.61608

Rotational constants in cm-1:     0.028287     0.017982     0.013399
Rotational constants in MHz :   848.020074   539.094752   401.685778

                             ****ORCA TERMINATED NORMALLY****
TOTAL RUN TIME: 0 days 0 hours 4 minutes 50 seconds 507 msec
