                         Program Version 5.0.3 -  RELEASE  -
|  1> ! EnGrad PBEh-3c
|  2> %output
|  3> xyzfile=True
|  4> end
|  5> %scf
|  6> maxiter 250
|  7> end
|  8> %output
|  9> Print[P_Hirshfeld] = 1
| 10> end
| 11> % maxcore
| 12> 4000
| 13> *xyz 0 1
| 14> C   -1.60354199   0.18558660  -0.44724626
| 15> C   -1.99893021  -0.86085799  -1.29082691
| 16> C   -1.58719107  -2.16244431  -1.02843455
| 17> C   -0.72365990  -2.40915935   0.02878479
| 18> C   -0.77861103  -0.04182253   0.68410335
| 19> C   -0.32412609  -1.36689440   0.87449704
| 20> H   -1.95246748   1.18145727  -0.70902617
| 21> H   -2.66922552  -0.66184543  -2.12082364
| 22> H   -1.96881807  -2.97250252  -1.62445617
| 23> H    0.36170356  -1.61223285   1.68116005
| 24> H   -0.38216940  -3.42577671   0.21411977
| 25> Pd   1.34196609   1.09545359   0.02005954
| 26> O    3.13650110   1.22840610  -1.35884522
| 27> O    2.58573187  -0.49931175  -0.17968594
| 28> O    0.38240722   2.81994537   0.08855985
| 29> C    0.04255802   2.94703753   1.27693964
| 30> O    0.42352398   2.15695734   2.21064917
| 31> H   -1.21987717   1.07506911   2.55758829
| 32> C    3.37728916   0.06721013  -0.99396757
| 33> H    4.21818774  -0.51077069  -1.44656256
| 34> H   -0.66201764   3.76232465   1.55702698
| 35> *
| 36>
| 37>                          ****END OF INPUT****

CARTESIAN COORDINATES (ANGSTROEM)
---------------------------------
  C     -1.603542    0.185587   -0.447246
  C     -1.998930   -0.860858   -1.290827
  C     -1.587191   -2.162444   -1.028435
  C     -0.723660   -2.409159    0.028785
  C     -0.778611   -0.041823    0.684103
  C     -0.324126   -1.366894    0.874497
  H     -1.952467    1.181457   -0.709026
  H     -2.669226   -0.661845   -2.120824
  H     -1.968818   -2.972503   -1.624456
  H      0.361704   -1.612233    1.681160
  H     -0.382169   -3.425777    0.214120
  Pd     1.341966    1.095454    0.020060
  O      3.136501    1.228406   -1.358845
  O      2.585732   -0.499312   -0.179686
  O      0.382407    2.819945    0.088560
  C      0.042558    2.947038    1.276940
  O      0.423524    2.156957    2.210649
  H     -1.219877    1.075069    2.557588
  C      3.377289    0.067210   -0.993968
  H      4.218188   -0.510771   -1.446563
  H     -0.662018    3.762325    1.557027

 Total Charge           Charge          ....    0
 Multiplicity           Mult            ....    1
 Number of Electrons    NEL             ....  106
 Basis Dimension        Dim             ....  227

ORBITAL ENERGIES
----------------

  NO   OCC          E(Eh)            E(eV)
   0   2.0000     -19.536149      -531.6056
   1   2.0000     -19.522013      -531.2210
   2   2.0000     -19.510545      -530.9089
   3   2.0000     -19.491169      -530.3817
   4   2.0000     -10.580243      -287.9030
   5   2.0000     -10.575671      -287.7786
   6   2.0000     -10.505679      -285.8741
   7   2.0000     -10.480037      -285.1763
   8   2.0000     -10.476929      -285.0917
   9   2.0000     -10.472800      -284.9794
  10   2.0000     -10.469322      -284.8847
  11   2.0000     -10.468107      -284.8517
  12   2.0000      -3.686801      -100.3230
  13   2.0000      -2.343070       -63.7582
  14   2.0000      -2.319891       -63.1274
  15   2.0000      -2.299714       -62.5784
  16   2.0000      -1.218319       -33.1521
  17   2.0000      -1.210743       -32.9460
  18   2.0000      -1.103319       -30.0228
  19   2.0000      -1.091804       -29.7095
  20   2.0000      -0.970275       -26.4025
  21   2.0000      -0.853303       -23.2195
  22   2.0000      -0.848631       -23.0924
  23   2.0000      -0.695118       -18.9151
  24   2.0000      -0.688123       -18.7248
  25   2.0000      -0.685711       -18.6591
  26   2.0000      -0.676083       -18.3972
  27   2.0000      -0.598175       -16.2772
  28   2.0000      -0.581944       -15.8355
  29   2.0000      -0.573014       -15.5925
  30   2.0000      -0.551339       -15.0027
  31   2.0000      -0.533013       -14.5040
  32   2.0000      -0.529462       -14.4074
  33   2.0000      -0.528366       -14.3776
  34   2.0000      -0.519999       -14.1499
  35   2.0000      -0.516206       -14.0467
  36   2.0000      -0.495263       -13.4768
  37   2.0000      -0.461705       -12.5636
  38   2.0000      -0.444765       -12.1027
  39   2.0000      -0.430550       -11.7159
  40   2.0000      -0.414971       -11.2919
  41   2.0000      -0.407675       -11.0934
  42   2.0000      -0.396426       -10.7873
  43   2.0000      -0.384506       -10.4629
  44   2.0000      -0.375333       -10.2133
  45   2.0000      -0.369742       -10.0612
  46   2.0000      -0.363098        -9.8804
  47   2.0000      -0.346484        -9.4283
  48   2.0000      -0.338211        -9.2032
  49   2.0000      -0.330706        -8.9990
  50   2.0000      -0.308732        -8.4010
  51   2.0000      -0.302787        -8.2393
  52   2.0000      -0.285789        -7.7767
  53   0.0000      -0.123573        -3.3626
  54   0.0000      -0.086193        -2.3454
  55   0.0000      -0.001065        -0.0290
  56   0.0000       0.004315         0.1174
  57   0.0000       0.032366         0.8807

MULLIKEN ATOMIC CHARGES
-----------------------
   0 C :   -0.209706
   1 C :   -0.217797
   2 C :   -0.208070
   3 C :   -0.213229
   4 C :   -0.219820
   5 C :   -0.212363
   6 H :    0.255179
   7 H :    0.236807
   8 H :    0.238254
   9 H :    0.263654
  10 H :    0.235894
  11 Pd:    0.540003
  12 O :   -0.436707
  13 O :   -0.479796
  14 O :   -0.451303
  15 C :    0.366211
  16 O :   -0.458148
  17 H :    0.189828
  18 C :    0.390966
  19 H :    0.199650
  20 H :    0.190496
Sum of atomic charges:    0.0000000

LOEWDIN ATOMIC CHARGES
----------------------
   0 C :   -0.094253
   1 C :   -0.135699
   2 C :   -0.102830
   3 C :   -0.130928
   4 C :   -0.077608
   5 C :   -0.084523
   6 H :    0.155757
   7 H :    0.144470
   8 H :    0.143297
   9 H :    0.160605
  10 H :    0.145134
  11 Pd:   -0.150503
  12 O :   -0.169312
  13 O :   -0.158732
  14 O :   -0.107351
  15 C :    0.128756
  16 O :   -0.260963
  17 H :    0.216957
  18 C :    0.148439
  19 H :    0.118279
  20 H :    0.111009

  Mayer bond orders larger than 0.100000
B(  0-C ,  1-C ) :   1.4288 B(  0-C ,  4-C ) :   1.3084 B(  0-C ,  6-H ) :   0.9007
B(  1-C ,  2-C ) :   1.4086 B(  1-C ,  7-H ) :   0.9116 B(  2-C ,  3-C ) :   1.4108
B(  2-C ,  8-H ) :   0.9129 B(  3-C ,  5-C ) :   1.4269 B(  3-C , 10-H ) :   0.9118
B(  4-C ,  5-C ) :   1.3491 B(  4-C , 11-Pd) :   0.3493 B(  4-C , 17-H ) :   0.6303
B(  5-C ,  9-H ) :   0.8980 B( 11-Pd, 12-O ) :   0.4314 B( 11-Pd, 13-O ) :   0.5917
B( 11-Pd, 14-O ) :   0.5952 B( 11-Pd, 16-O ) :   0.1750 B( 12-O , 13-O ) :   0.1118
B( 12-O , 18-C ) :   1.6031 B( 13-O , 18-C ) :   1.3925 B( 14-O , 15-C ) :   1.4164
B( 15-C , 16-O ) :   1.6352 B( 15-C , 20-H ) :   0.8805 B( 16-O , 17-H ) :   0.1341
B( 18-C , 19-H ) :   0.8806

Dispersion correction           -0.013763604
FINAL SINGLE POINT ENERGY      -736.937593469192
Dispersion correction            ... done

DIPOLE MOMENT
-------------
                                X             Y             Z
Electronic contribution:     49.24390      40.22597       0.14748
Nuclear contribution   :    -50.23537     -41.15058      -0.43626
                        -----------------------------------------
Total Dipole Moment    :     -0.99146      -0.92461      -0.28878
                        -----------------------------------------
Magnitude (a.u.)       :      1.38611
Magnitude (Debye)      :      3.52321

Rotational constants in cm-1:     0.028444     0.018070     0.013448
Rotational constants in MHz :   852.725490   541.739898   403.164896

                             ****ORCA TERMINATED NORMALLY****
TOTAL RUN TIME: 0 days 0 hours 4 minutes 2 seconds 21 msec
