                         Program Version 5.0.3 -  RELEASE  -
|  1> ! EnGrad PBEh-3c
|  2> %output
|  3> xyzfile=True
|  4> end
|  5> %scf
|  6> maxiter 250
|  7> end
|  8> %output
|  9> Print[P_Hirshfeld] = 1
| 10> end
| 11> % maxcore
| 12> 4000
| 13> *xyz 0 1
| 14> C   -1.60117863   0.18653839  -0.43837370
| 15> C   -2.00393723  -0.85910732  -1.28197915
| 16> C   -1.59549093  -2.16440773  -1.02389011
| 17> C   -0.72890697  -2.40675538   0.03574382
| 18> C   -0.76858606  -0.03183659   0.68734110
| 19> C   -0.32610839  -1.35876923   0.87420847
| 20> H   -1.93990401   1.18372563  -0.70289321
| 21> H   -2.67254940  -0.66129482  -2.11910401
| 22> H   -1.97839080  -2.97950390  -1.62253124
| 23> H    0.36003081  -1.60427732   1.67677870
| 24> H   -0.38570320  -3.42740029   0.21656265
| 25> Pd   1.32676287   1.08063994   0.02957922
| 26> O    3.14256805   1.23917289  -1.35172803
| 27> O    2.57444556  -0.49723639  -0.18602363
| 28> O    0.38219583   2.80423308   0.10141267
| 29> C    0.04036625   2.94295376   1.28450666
| 30> O    0.40843124   2.16198042   2.21285693
| 31> H   -1.17602140   1.05218475   2.48533863
| 32> C    3.37573278   0.07501661  -0.99172926
| 33> H    4.21941229  -0.50201823  -1.43905598
| 34> H   -0.65461742   3.76003124   1.54492860
| 35> *
| 36>
| 37>                          ****END OF INPUT****

CARTESIAN COORDINATES (ANGSTROEM)
---------------------------------
  C     -1.601179    0.186538   -0.438374
  C     -2.003937   -0.859107   -1.281979
  C     -1.595491   -2.164408   -1.023890
  C     -0.728907   -2.406755    0.035744
  C     -0.768586   -0.031837    0.687341
  C     -0.326108   -1.358769    0.874208
  H     -1.939904    1.183726   -0.702893
  H     -2.672549   -0.661295   -2.119104
  H     -1.978391   -2.979504   -1.622531
  H      0.360031   -1.604277    1.676779
  H     -0.385703   -3.427400    0.216563
  Pd     1.326763    1.080640    0.029579
  O      3.142568    1.239173   -1.351728
  O      2.574446   -0.497236   -0.186024
  O      0.382196    2.804233    0.101413
  C      0.040366    2.942954    1.284507
  O      0.408431    2.161980    2.212857
  H     -1.176021    1.052185    2.485339
  C      3.375733    0.075017   -0.991729
  H      4.219412   -0.502018   -1.439056
  H     -0.654617    3.760031    1.544929

 Total Charge           Charge          ....    0
 Multiplicity           Mult            ....    1
 Number of Electrons    NEL             ....  106
 Basis Dimension        Dim             ....  227

ORBITAL ENERGIES
----------------

  NO   OCC          E(Eh)            E(eV)
   0   2.0000     -19.534102      -531.5499
   1   2.0000     -19.520517      -531.1803
   2   2.0000     -19.508773      -530.8607
   3   2.0000     -19.489527      -530.3370
   4   2.0000     -10.579162      -287.8736
   5   2.0000     -10.572704      -287.6979
   6   2.0000     -10.504279      -285.8360
   7   2.0000     -10.480555      -285.1904
   8   2.0000     -10.477127      -285.0971
   9   2.0000     -10.475252      -285.0461
  10   2.0000     -10.470423      -284.9147
  11   2.0000     -10.469104      -284.8788
  12   2.0000      -3.686111      -100.3042
  13   2.0000      -2.342467       -63.7418
  14   2.0000      -2.319155       -63.1074
  15   2.0000      -2.299173       -62.5637
  16   2.0000      -1.216951       -33.1149
  17   2.0000      -1.212425       -32.9918
  18   2.0000      -1.101575       -29.9754
  19   2.0000      -1.096118       -29.8269
  20   2.0000      -0.970623       -26.4120
  21   2.0000      -0.852873       -23.2079
  22   2.0000      -0.850084       -23.1319
  23   2.0000      -0.695666       -18.9300
  24   2.0000      -0.688819       -18.7437
  25   2.0000      -0.686055       -18.6685
  26   2.0000      -0.676007       -18.3951
  27   2.0000      -0.598601       -16.2888
  28   2.0000      -0.582839       -15.8599
  29   2.0000      -0.572650       -15.5826
  30   2.0000      -0.550686       -14.9849
  31   2.0000      -0.533308       -14.5121
  32   2.0000      -0.530917       -14.4470
  33   2.0000      -0.528602       -14.3840
  34   2.0000      -0.520560       -14.1652
  35   2.0000      -0.515423       -14.0254
  36   2.0000      -0.494474       -13.4553
  37   2.0000      -0.463235       -12.6053
  38   2.0000      -0.446147       -12.1403
  39   2.0000      -0.430961       -11.7271
  40   2.0000      -0.414127       -11.2690
  41   2.0000      -0.409668       -11.1476
  42   2.0000      -0.395218       -10.7544
  43   2.0000      -0.383817       -10.4442
  44   2.0000      -0.374832       -10.1997
  45   2.0000      -0.370308       -10.0766
  46   2.0000      -0.362537        -9.8651
  47   2.0000      -0.346765        -9.4359
  48   2.0000      -0.337659        -9.1882
  49   2.0000      -0.331244        -9.0136
  50   2.0000      -0.308616        -8.3979
  51   2.0000      -0.304282        -8.2799
  52   2.0000      -0.288964        -7.8631
  53   0.0000      -0.121168        -3.2972
  54   0.0000      -0.078793        -2.1441
  55   0.0000      -0.001433        -0.0390
  56   0.0000       0.005254         0.1430
  57   0.0000       0.033574         0.9136

MULLIKEN ATOMIC CHARGES
-----------------------
   0 C :   -0.201197
   1 C :   -0.220102
   2 C :   -0.206484
   3 C :   -0.215354
   4 C :   -0.245710
   5 C :   -0.204289
   6 H :    0.255437
   7 H :    0.236531
   8 H :    0.239230
   9 H :    0.263619
  10 H :    0.235846
  11 Pd:    0.547516
  12 O :   -0.435509
  13 O :   -0.484832
  14 O :   -0.452584
  15 C :    0.363417
  16 O :   -0.457779
  17 H :    0.205439
  18 C :    0.389379
  19 H :    0.199119
  20 H :    0.188307
Sum of atomic charges:    0.0000000

LOEWDIN ATOMIC CHARGES
----------------------
   0 C :   -0.090123
   1 C :   -0.136673
   2 C :   -0.099748
   3 C :   -0.131824
   4 C :   -0.089661
   5 C :   -0.080776
   6 H :    0.155623
   7 H :    0.144572
   8 H :    0.143836
   9 H :    0.160211
  10 H :    0.145264
  11 Pd:   -0.151500
  12 O :   -0.172411
  13 O :   -0.161670
  14 O :   -0.105385
  15 C :    0.120124
  16 O :   -0.257966
  17 H :    0.232333
  18 C :    0.148633
  19 H :    0.117886
  20 H :    0.109254

  Mayer bond orders larger than 0.100000
B(  0-C ,  1-C ) :   1.4319 B(  0-C ,  4-C ) :   1.2994 B(  0-C ,  6-H ) :   0.9007
B(  1-C ,  2-C ) :   1.4058 B(  1-C ,  7-H ) :   0.9120 B(  2-C ,  3-C ) :   1.4081
B(  2-C ,  8-H ) :   0.9125 B(  3-C ,  5-C ) :   1.4306 B(  3-C , 10-H ) :   0.9120
B(  4-C ,  5-C ) :   1.3408 B(  4-C , 11-Pd) :   0.3582 B(  4-C , 17-H ) :   0.6367
B(  5-C ,  9-H ) :   0.8981 B( 11-Pd, 12-O ) :   0.4209 B( 11-Pd, 13-O ) :   0.5932
B( 11-Pd, 14-O ) :   0.5969 B( 11-Pd, 16-O ) :   0.1649 B( 12-O , 13-O ) :   0.1120
B( 12-O , 18-C ) :   1.6135 B( 13-O , 18-C ) :   1.3850 B( 14-O , 15-C ) :   1.4148
B( 15-C , 16-O ) :   1.6484 B( 15-C , 20-H ) :   0.8818 B( 16-O , 17-H ) :   0.1316
B( 18-C , 19-H ) :   0.8805

Dispersion correction           -0.013832336
FINAL SINGLE POINT ENERGY      -736.949983197929
Dispersion correction            ... done

DIPOLE MOMENT
-------------
                                X             Y             Z
Electronic contribution:     48.59530      39.50204       0.49325
Nuclear contribution   :    -49.61944     -40.44923      -0.76844
                        -----------------------------------------
Total Dipole Moment    :     -1.02414      -0.94719      -0.27519
                        -----------------------------------------
Magnitude (a.u.)       :      1.42189
Magnitude (Debye)      :      3.61415

Rotational constants in cm-1:     0.028570     0.018165     0.013493
Rotational constants in MHz :   856.495846   544.570700   404.513336

                             ****ORCA TERMINATED NORMALLY****
TOTAL RUN TIME: 0 days 0 hours 4 minutes 25 seconds 263 msec
