                         Program Version 5.0.3 -  RELEASE  -
|  1> ! EnGrad PBEh-3c
|  2> %output
|  3> xyzfile=True
|  4> end
|  5> %scf
|  6> maxiter 250
|  7> end
|  8> %output
|  9> Print[P_Hirshfeld] = 1
| 10> end
| 11> % maxcore
| 12> 4000
| 13> *xyz 0 1
| 14> C   -1.59092571   0.19241378  -0.42810146
| 15> C   -2.01530279  -0.85154646  -1.25919511
| 16> C   -1.61725110  -2.16350203  -1.00711118
| 17> C   -0.73981727  -2.39917384   0.05164610
| 18> C   -0.74713034  -0.02237778   0.68390507
| 19> C   -0.32519426  -1.34798160   0.87343380
| 20> H   -1.91295838   1.18573998  -0.69573318
| 21> H   -2.68076630  -0.66111127  -2.10902974
| 22> H   -2.00291221  -2.99344509  -1.61416326
| 23> H    0.36003492  -1.58968207   1.66401243
| 24> H   -0.39868565  -3.42523249   0.22448711
| 25> Pd   1.30661588   1.04216587   0.02744876
| 26> O    3.15784905   1.26677760  -1.32194925
| 27> O    2.55938901  -0.50028959  -0.19828043
| 28> O    0.38057996   2.76759137   0.11791697
| 29> C    0.02364857   2.93849155   1.33572538
| 30> O    0.36085665   2.17320415   2.21610717
| 31> H   -1.06350887   1.01136473   2.32005087
| 32> C    3.36203987   0.08587990  -0.99833535
| 33> H    4.22153877  -0.47788672  -1.41312541
| 34> H   -0.64153800   3.75733579   1.51888135
| 35> *
| 36>
| 37>                          ****END OF INPUT****

CARTESIAN COORDINATES (ANGSTROEM)
---------------------------------
  C     -1.590926    0.192414   -0.428101
  C     -2.015303   -0.851546   -1.259195
  C     -1.617251   -2.163502   -1.007111
  C     -0.739817   -2.399174    0.051646
  C     -0.747130   -0.022378    0.683905
  C     -0.325194   -1.347982    0.873434
  H     -1.912958    1.185740   -0.695733
  H     -2.680766   -0.661111   -2.109030
  H     -2.002912   -2.993445   -1.614163
  H      0.360035   -1.589682    1.664012
  H     -0.398686   -3.425232    0.224487
  Pd     1.306616    1.042166    0.027449
  O      3.157849    1.266778   -1.321949
  O      2.559389   -0.500290   -0.198280
  O      0.380580    2.767591    0.117917
  C      0.023649    2.938492    1.335725
  O      0.360857    2.173204    2.216107
  H     -1.063509    1.011365    2.320051
  C      3.362040    0.085880   -0.998335
  H      4.221539   -0.477887   -1.413125
  H     -0.641538    3.757336    1.518881

 Total Charge           Charge          ....    0
 Multiplicity           Mult            ....    1
 Number of Electrons    NEL             ....  106
 Basis Dimension        Dim             ....  227

ORBITAL ENERGIES
----------------

  NO   OCC          E(Eh)            E(eV)
   0   2.0000     -19.520396      -531.1770
   1   2.0000     -19.518037      -531.1128
   2   2.0000     -19.506604      -530.8017
   3   2.0000     -19.492303      -530.4125
   4   2.0000     -10.577021      -287.8154
   5   2.0000     -10.566324      -287.5243
   6   2.0000     -10.501529      -285.7611
   7   2.0000     -10.480701      -285.1944
   8   2.0000     -10.480342      -285.1846
   9   2.0000     -10.477035      -285.0946
  10   2.0000     -10.471940      -284.9560
  11   2.0000     -10.470363      -284.9130
  12   2.0000      -3.682514      -100.2063
  13   2.0000      -2.338436       -63.6321
  14   2.0000      -2.316145       -63.0255
  15   2.0000      -2.295816       -62.4723
  16   2.0000      -1.212430       -32.9919
  17   2.0000      -1.207853       -32.8673
  18   2.0000      -1.104223       -30.0474
  19   2.0000      -1.099284       -29.9130
  20   2.0000      -0.973328       -26.4856
  21   2.0000      -0.854818       -23.2608
  22   2.0000      -0.852881       -23.2081
  23   2.0000      -0.697897       -18.9908
  24   2.0000      -0.691013       -18.8034
  25   2.0000      -0.687700       -18.7133
  26   2.0000      -0.677246       -18.4288
  27   2.0000      -0.600582       -16.3427
  28   2.0000      -0.580019       -15.7831
  29   2.0000      -0.570713       -15.5299
  30   2.0000      -0.549863       -14.9625
  31   2.0000      -0.535509       -14.5719
  32   2.0000      -0.532699       -14.4955
  33   2.0000      -0.529464       -14.4075
  34   2.0000      -0.519356       -14.1324
  35   2.0000      -0.513678       -13.9779
  36   2.0000      -0.495424       -13.4812
  37   2.0000      -0.465505       -12.6670
  38   2.0000      -0.450091       -12.2476
  39   2.0000      -0.433844       -11.8055
  40   2.0000      -0.415795       -11.3144
  41   2.0000      -0.412802       -11.2329
  42   2.0000      -0.392806       -10.6888
  43   2.0000      -0.381940       -10.3931
  44   2.0000      -0.371685       -10.1141
  45   2.0000      -0.369939       -10.0665
  46   2.0000      -0.359600        -9.7852
  47   2.0000      -0.347949        -9.4682
  48   2.0000      -0.337635        -9.1875
  49   2.0000      -0.330488        -8.9930
  50   2.0000      -0.310056        -8.4370
  51   2.0000      -0.307932        -8.3793
  52   2.0000      -0.295725        -8.0471
  53   0.0000      -0.115051        -3.1307
  54   0.0000      -0.057323        -1.5598
  55   0.0000      -0.001723        -0.0469
  56   0.0000       0.008640         0.2351
  57   0.0000       0.036108         0.9825

MULLIKEN ATOMIC CHARGES
-----------------------
   0 C :   -0.179210
   1 C :   -0.224812
   2 C :   -0.204129
   3 C :   -0.219661
   4 C :   -0.308790
   5 C :   -0.183513
   6 H :    0.259560
   7 H :    0.235987
   8 H :    0.240538
   9 H :    0.264944
  10 H :    0.235687
  11 Pd:    0.562431
  12 O :   -0.434472
  13 O :   -0.495228
  14 O :   -0.491004
  15 C :    0.359964
  16 O :   -0.428320
  17 H :    0.233924
  18 C :    0.390146
  19 H :    0.197626
  20 H :    0.188336
Sum of atomic charges:   -0.0000000

LOEWDIN ATOMIC CHARGES
----------------------
   0 C :   -0.081246
   1 C :   -0.137621
   2 C :   -0.093667
   3 C :   -0.132872
   4 C :   -0.111693
   5 C :   -0.074417
   6 H :    0.157270
   7 H :    0.144677
   8 H :    0.145103
   9 H :    0.159971
  10 H :    0.145292
  11 Pd:   -0.155895
  12 O :   -0.174784
  13 O :   -0.165444
  14 O :   -0.144064
  15 C :    0.110730
  16 O :   -0.222589
  17 H :    0.256729
  18 C :    0.150455
  19 H :    0.116610
  20 H :    0.107456

  Mayer bond orders larger than 0.100000
B(  0-C ,  1-C ) :   1.4385 B(  0-C ,  4-C ) :   1.2847 B(  0-C ,  6-H ) :   0.8996
B(  1-C ,  2-C ) :   1.4009 B(  1-C ,  7-H ) :   0.9127 B(  2-C ,  3-C ) :   1.4036
B(  2-C ,  8-H ) :   0.9121 B(  3-C ,  5-C ) :   1.4395 B(  3-C , 10-H ) :   0.9123
B(  4-C ,  5-C ) :   1.3252 B(  4-C , 11-Pd) :   0.3608 B(  4-C , 17-H ) :   0.6632
B(  5-C ,  9-H ) :   0.8980 B( 11-Pd, 12-O ) :   0.4109 B( 11-Pd, 13-O ) :   0.5906
B( 11-Pd, 14-O ) :   0.6263 B( 11-Pd, 16-O ) :   0.1279 B( 12-O , 13-O ) :   0.1128
B( 12-O , 18-C ) :   1.6242 B( 13-O , 18-C ) :   1.3762 B( 14-O , 15-C ) :   1.3471
B( 15-C , 16-O ) :   1.7351 B( 15-C , 20-H ) :   0.8829 B( 16-O , 17-H ) :   0.1171
B( 18-C , 19-H ) :   0.8818

Dispersion correction           -0.013970431
FINAL SINGLE POINT ENERGY      -736.979834898091
Dispersion correction            ... done

DIPOLE MOMENT
-------------
                                X             Y             Z
Electronic contribution:     47.81287      37.63725       0.24630
Nuclear contribution   :    -48.89136     -38.66569      -0.44075
                        -----------------------------------------
Total Dipole Moment    :     -1.07849      -1.02843      -0.19445
                        -----------------------------------------
Magnitude (a.u.)       :      1.50287
Magnitude (Debye)      :      3.82000

Rotational constants in cm-1:     0.028736     0.018374     0.013572
Rotational constants in MHz :   861.481716   550.844587   406.879028

                             ****ORCA TERMINATED NORMALLY****
TOTAL RUN TIME: 0 days 0 hours 4 minutes 35 seconds 500 msec
