                         Program Version 5.0.3 -  RELEASE  -
|  1> ! EnGrad PBEh-3c
|  2> %output
|  3> xyzfile=True
|  4> end
|  5> %scf
|  6> maxiter 250
|  7> end
|  8> %output
|  9> Print[P_Hirshfeld] = 1
| 10> end
| 11> % maxcore
| 12> 4000
| 13> *xyz 0 1
| 14> C   -1.58655982   0.19392874  -0.43133337
| 15> C   -2.02214854  -0.85035325  -1.25099362
| 16> C   -1.62700932  -2.16230896  -0.99788008
| 17> C   -0.74680396  -2.39935166   0.05599941
| 18> C   -0.73456059  -0.01189326   0.68753906
| 19> C   -0.32247784  -1.35030954   0.87061617
| 20> H   -1.90138700   1.18900753  -0.69278224
| 21> H   -2.68269409  -0.66029066  -2.10048429
| 22> H   -2.01101856  -2.99440621  -1.60721200
| 23> H    0.36323211  -1.58359232   1.66142962
| 24> H   -0.40558092  -3.42023456   0.22933301
| 25> Pd   1.29606156   1.02513816   0.02317604
| 26> O    3.16212602   1.27750615  -1.30428863
| 27> O    2.55351664  -0.50695318  -0.20733169
| 28> O    0.37504220   2.75392561   0.12708380
| 29> C    0.02075195   2.92730324   1.34439084
| 30> O    0.32756286   2.16835063   2.23770381
| 31> H   -0.99519458   0.99697800   2.23148033
| 32> C    3.35624395   0.09159151  -0.99905886
| 33> H    4.22061376  -0.46735046  -1.40119977
| 34> H   -0.64391377   3.76934394   1.51061988
| 35> *
| 36>
| 37>                          ****END OF INPUT****

CARTESIAN COORDINATES (ANGSTROEM)
---------------------------------
  C     -1.586560    0.193929   -0.431333
  C     -2.022149   -0.850353   -1.250994
  C     -1.627009   -2.162309   -0.997880
  C     -0.746804   -2.399352    0.055999
  C     -0.734561   -0.011893    0.687539
  C     -0.322478   -1.350310    0.870616
  H     -1.901387    1.189008   -0.692782
  H     -2.682694   -0.660291   -2.100484
  H     -2.011019   -2.994406   -1.607212
  H      0.363232   -1.583592    1.661430
  H     -0.405581   -3.420235    0.229333
  Pd     1.296062    1.025138    0.023176
  O      3.162126    1.277506   -1.304289
  O      2.553517   -0.506953   -0.207332
  O      0.375042    2.753926    0.127084
  C      0.020752    2.927303    1.344391
  O      0.327563    2.168351    2.237704
  H     -0.995195    0.996978    2.231480
  C      3.356244    0.091592   -0.999059
  H      4.220614   -0.467350   -1.401200
  H     -0.643914    3.769344    1.510620

 Total Charge           Charge          ....    0
 Multiplicity           Mult            ....    1
 Number of Electrons    NEL             ....  106
 Basis Dimension        Dim             ....  227

ORBITAL ENERGIES
----------------

  NO   OCC          E(Eh)            E(eV)
   0   2.0000     -19.521407      -531.2045
   1   2.0000     -19.517994      -531.1116
   2   2.0000     -19.507039      -530.8135
   3   2.0000     -19.492734      -530.4242
   4   2.0000     -10.576757      -287.8082
   5   2.0000     -10.568485      -287.5831
   6   2.0000     -10.499248      -285.6991
   7   2.0000     -10.482019      -285.2302
   8   2.0000     -10.481465      -285.2152
   9   2.0000     -10.477877      -285.1175
  10   2.0000     -10.471583      -284.9463
  11   2.0000     -10.469742      -284.8962
  12   2.0000      -3.682189      -100.1975
  13   2.0000      -2.337844       -63.6160
  14   2.0000      -2.316424       -63.0331
  15   2.0000      -2.295243       -62.4567
  16   2.0000      -1.212880       -33.0041
  17   2.0000      -1.208678       -32.8898
  18   2.0000      -1.107448       -30.1352
  19   2.0000      -1.100493       -29.9459
  20   2.0000      -0.973295       -26.4847
  21   2.0000      -0.855625       -23.2827
  22   2.0000      -0.852745       -23.2044
  23   2.0000      -0.698171       -18.9982
  24   2.0000      -0.690770       -18.7968
  25   2.0000      -0.687495       -18.7077
  26   2.0000      -0.676476       -18.4078
  27   2.0000      -0.601893       -16.3783
  28   2.0000      -0.580127       -15.7861
  29   2.0000      -0.571213       -15.5435
  30   2.0000      -0.551976       -15.0200
  31   2.0000      -0.538370       -14.6498
  32   2.0000      -0.533488       -14.5169
  33   2.0000      -0.530290       -14.4299
  34   2.0000      -0.520476       -14.1629
  35   2.0000      -0.514249       -13.9934
  36   2.0000      -0.496089       -13.4993
  37   2.0000      -0.466183       -12.6855
  38   2.0000      -0.451145       -12.2763
  39   2.0000      -0.433807       -11.8045
  40   2.0000      -0.418198       -11.3798
  41   2.0000      -0.411834       -11.2066
  42   2.0000      -0.393738       -10.7142
  43   2.0000      -0.382717       -10.4143
  44   2.0000      -0.371626       -10.1125
  45   2.0000      -0.370336       -10.0773
  46   2.0000      -0.360654        -9.8139
  47   2.0000      -0.348862        -9.4930
  48   2.0000      -0.339820        -9.2470
  49   2.0000      -0.331221        -9.0130
  50   2.0000      -0.311156        -8.4670
  51   2.0000      -0.309040        -8.4094
  52   2.0000      -0.297677        -8.1002
  53   0.0000      -0.113355        -3.0846
  54   0.0000      -0.044184        -1.2023
  55   0.0000      -0.001391        -0.0378
  56   0.0000       0.011655         0.3172
  57   0.0000       0.036612         0.9963

MULLIKEN ATOMIC CHARGES
-----------------------
   0 C :   -0.169859
   1 C :   -0.223816
   2 C :   -0.203290
   3 C :   -0.218082
   4 C :   -0.354779
   5 C :   -0.174795
   6 H :    0.259812
   7 H :    0.236018
   8 H :    0.240858
   9 H :    0.264995
  10 H :    0.235904
  11 Pd:    0.564705
  12 O :   -0.433068
  13 O :   -0.496794
  14 O :   -0.488408
  15 C :    0.360110
  16 O :   -0.433872
  17 H :    0.261967
  18 C :    0.390802
  19 H :    0.196953
  20 H :    0.184641
Sum of atomic charges:   -0.0000000

LOEWDIN ATOMIC CHARGES
----------------------
   0 C :   -0.075535
   1 C :   -0.139609
   2 C :   -0.088897
   3 C :   -0.135079
   4 C :   -0.131248
   5 C :   -0.068625
   6 H :    0.156889
   7 H :    0.144730
   8 H :    0.145397
   9 H :    0.159403
  10 H :    0.145328
  11 Pd:   -0.159514
  12 O :   -0.173650
  13 O :   -0.165785
  14 O :   -0.142852
  15 C :    0.110077
  16 O :   -0.231100
  17 H :    0.277928
  18 C :    0.150172
  19 H :    0.115983
  20 H :    0.105988

  Mayer bond orders larger than 0.100000
B(  0-C ,  1-C ) :   1.4448 B(  0-C ,  4-C ) :   1.2690 B(  0-C ,  6-H ) :   0.8998
B(  1-C ,  2-C ) :   1.3975 B(  1-C ,  7-H ) :   0.9131 B(  2-C ,  3-C ) :   1.4023
B(  2-C ,  8-H ) :   0.9120 B(  3-C ,  5-C ) :   1.4443 B(  3-C , 10-H ) :   0.9125
B(  4-C ,  5-C ) :   1.3123 B(  4-C , 11-Pd) :   0.3717 B(  4-C , 17-H ) :   0.6603
B(  5-C ,  9-H ) :   0.8984 B( 11-Pd, 12-O ) :   0.4083 B( 11-Pd, 13-O ) :   0.5915
B( 11-Pd, 14-O ) :   0.6188 B( 11-Pd, 16-O ) :   0.1128 B( 12-O , 13-O ) :   0.1131
B( 12-O , 18-C ) :   1.6273 B( 13-O , 18-C ) :   1.3743 B( 14-O , 15-C ) :   1.3563
B( 15-C , 16-O ) :   1.7282 B( 15-C , 20-H ) :   0.8811 B( 16-O , 17-H ) :   0.1258
B( 18-C , 19-H ) :   0.8824

Dispersion correction           -0.014015676
FINAL SINGLE POINT ENERGY      -736.997112493752
Dispersion correction            ... done

DIPOLE MOMENT
-------------
                                X             Y             Z
Electronic contribution:     47.46007      36.87039      -0.10873
Nuclear contribution   :    -48.53028     -37.93051      -0.12253
                        -----------------------------------------
Total Dipole Moment    :     -1.07021      -1.06012      -0.23126
                        -----------------------------------------
Magnitude (a.u.)       :      1.52403
Magnitude (Debye)      :      3.87378

Rotational constants in cm-1:     0.028752     0.018464     0.013610
Rotational constants in MHz :   861.949135   553.534018   408.006783

                             ****ORCA TERMINATED NORMALLY****
TOTAL RUN TIME: 0 days 0 hours 4 minutes 10 seconds 141 msec
