                         Program Version 5.0.3 -  RELEASE  -
|  1> ! EnGrad PBEh-3c
|  2> %output
|  3> xyzfile=True
|  4> end
|  5> %scf
|  6> maxiter 250
|  7> end
|  8> %output
|  9> Print[P_Hirshfeld] = 1
| 10> end
| 11> % maxcore
| 12> 4000
| 13> *xyz 0 1
| 14> C   -1.57830766   0.19553490  -0.43794240
| 15> C   -2.02935250  -0.84942586  -1.24346491
| 16> C   -1.63682806  -2.15998350  -0.98726880
| 17> C   -0.75439321  -2.40036636   0.05901977
| 18> C   -0.72112812  -0.00163222   0.69219803
| 19> C   -0.31776485  -1.35474314   0.86685525
| 20> H   -1.89166691   1.19437474  -0.69105505
| 21> H   -2.68315280  -0.65856967  -2.08846793
| 22> H   -2.01478203  -2.98954816  -1.59788252
| 23> H    0.36973573  -1.57917615   1.66196230
| 24> H   -0.41311453  -3.41211670   0.23576982
| 25> Pd   1.28651542   1.00688469   0.01012248
| 26> O    3.16194331   1.28785573  -1.28022743
| 27> O    2.54956128  -0.52074893  -0.21935096
| 28> O    0.36473398   2.73978967   0.14235671
| 29> C    0.01084299   2.91911932   1.34391412
| 30> O    0.27587368   2.15029595   2.27836606
| 31> H   -0.90034980   0.98898644   2.12215747
| 32> C    3.34811741   0.09457230  -0.99875042
| 33> H    4.21684307  -0.45701659  -1.38802784
| 34> H   -0.64811100   3.78869654   1.50447076
| 35> *
| 36>
| 37>                          ****END OF INPUT****

CARTESIAN COORDINATES (ANGSTROEM)
---------------------------------
  C     -1.578308    0.195535   -0.437942
  C     -2.029352   -0.849426   -1.243465
  C     -1.636828   -2.159984   -0.987269
  C     -0.754393   -2.400366    0.059020
  C     -0.721128   -0.001632    0.692198
  C     -0.317765   -1.354743    0.866855
  H     -1.891667    1.194375   -0.691055
  H     -2.683153   -0.658570   -2.088468
  H     -2.014782   -2.989548   -1.597883
  H      0.369736   -1.579176    1.661962
  H     -0.413115   -3.412117    0.235770
  Pd     1.286515    1.006885    0.010122
  O      3.161943    1.287856   -1.280227
  O      2.549561   -0.520749   -0.219351
  O      0.364734    2.739790    0.142357
  C      0.010843    2.919119    1.343914
  O      0.275874    2.150296    2.278366
  H     -0.900350    0.988986    2.122157
  C      3.348117    0.094572   -0.998750
  H      4.216843   -0.457017   -1.388028
  H     -0.648111    3.788697    1.504471

 Total Charge           Charge          ....    0
 Multiplicity           Mult            ....    1
 Number of Electrons    NEL             ....  106
 Basis Dimension        Dim             ....  227

ORBITAL ENERGIES
----------------

  NO   OCC          E(Eh)            E(eV)
   0   2.0000     -19.529570      -531.4266
   1   2.0000     -19.520075      -531.1683
   2   2.0000     -19.509353      -530.8765
   3   2.0000     -19.493053      -530.4329
   4   2.0000     -10.577861      -287.8382
   5   2.0000     -10.575851      -287.7835
   6   2.0000     -10.493171      -285.5337
   7   2.0000     -10.481859      -285.2259
   8   2.0000     -10.481515      -285.2165
   9   2.0000     -10.477895      -285.1180
  10   2.0000     -10.469818      -284.8982
  11   2.0000     -10.467618      -284.8384
  12   2.0000      -3.682957      -100.2184
  13   2.0000      -2.338232       -63.6265
  14   2.0000      -2.318192       -63.0812
  15   2.0000      -2.295370       -62.4602
  16   2.0000      -1.214820       -33.0569
  17   2.0000      -1.207982       -32.8709
  18   2.0000      -1.108910       -30.1750
  19   2.0000      -1.103560       -30.0294
  20   2.0000      -0.972145       -26.4534
  21   2.0000      -0.855477       -23.2787
  22   2.0000      -0.851329       -23.1658
  23   2.0000      -0.697362       -18.9762
  24   2.0000      -0.692241       -18.8368
  25   2.0000      -0.688381       -18.7318
  26   2.0000      -0.677864       -18.4456
  27   2.0000      -0.602754       -16.4018
  28   2.0000      -0.581868       -15.8334
  29   2.0000      -0.573045       -15.5933
  30   2.0000      -0.555964       -15.1285
  31   2.0000      -0.541795       -14.7430
  32   2.0000      -0.534322       -14.5396
  33   2.0000      -0.530313       -14.4306
  34   2.0000      -0.521044       -14.1783
  35   2.0000      -0.516576       -14.0567
  36   2.0000      -0.495956       -13.4957
  37   2.0000      -0.466137       -12.6842
  38   2.0000      -0.451645       -12.2899
  39   2.0000      -0.434012       -11.8101
  40   2.0000      -0.421837       -11.4788
  41   2.0000      -0.409602       -11.1458
  42   2.0000      -0.397046       -10.8042
  43   2.0000      -0.385351       -10.4859
  44   2.0000      -0.374290       -10.1850
  45   2.0000      -0.371893       -10.1197
  46   2.0000      -0.362731        -9.8704
  47   2.0000      -0.350246        -9.5307
  48   2.0000      -0.341849        -9.3022
  49   2.0000      -0.332972        -9.0606
  50   2.0000      -0.311525        -8.4770
  51   2.0000      -0.309272        -8.4157
  52   2.0000      -0.298523        -8.1232
  53   0.0000      -0.112162        -3.0521
  54   0.0000      -0.027800        -0.7565
  55   0.0000      -0.000443        -0.0121
  56   0.0000       0.017183         0.4676
  57   0.0000       0.036034         0.9805

MULLIKEN ATOMIC CHARGES
-----------------------
   0 C :   -0.160167
   1 C :   -0.222275
   2 C :   -0.202718
   3 C :   -0.215919
   4 C :   -0.415138
   5 C :   -0.165934
   6 H :    0.257169
   7 H :    0.235473
   8 H :    0.240518
   9 H :    0.263926
  10 H :    0.235506
  11 Pd:    0.565129
  12 O :   -0.433503
  13 O :   -0.493528
  14 O :   -0.470523
  15 C :    0.366545
  16 O :   -0.465822
  17 H :    0.303623
  18 C :    0.393519
  19 H :    0.197108
  20 H :    0.187008
Sum of atomic charges:   -0.0000000

LOEWDIN ATOMIC CHARGES
----------------------
   0 C :   -0.070403
   1 C :   -0.142080
   2 C :   -0.084786
   3 C :   -0.137779
   4 C :   -0.159203
   5 C :   -0.062615
   6 H :    0.155363
   7 H :    0.144337
   8 H :    0.145161
   9 H :    0.158545
  10 H :    0.144962
  11 Pd:   -0.162436
  12 O :   -0.172021
  13 O :   -0.162270
  14 O :   -0.126332
  15 C :    0.123024
  16 O :   -0.270957
  17 H :    0.304765
  18 C :    0.150715
  19 H :    0.115793
  20 H :    0.108216

  Mayer bond orders larger than 0.100000
B(  0-C ,  1-C ) :   1.4515 B(  0-C ,  4-C ) :   1.2517 B(  0-C ,  6-H ) :   0.9010
B(  1-C ,  2-C ) :   1.3954 B(  1-C ,  7-H ) :   0.9136 B(  2-C ,  3-C ) :   1.4026
B(  2-C ,  8-H ) :   0.9122 B(  3-C ,  5-C ) :   1.4483 B(  3-C , 10-H ) :   0.9129
B(  4-C ,  5-C ) :   1.3004 B(  4-C , 11-Pd) :   0.3879 B(  4-C , 17-H ) :   0.6283
B(  5-C ,  9-H ) :   0.8992 B( 11-Pd, 12-O ) :   0.4129 B( 11-Pd, 13-O ) :   0.5929
B( 11-Pd, 14-O ) :   0.5906 B( 12-O , 13-O ) :   0.1136 B( 12-O , 18-C ) :   1.6209
B( 13-O , 18-C ) :   1.3788 B( 14-O , 15-C ) :   1.4054 B( 15-C , 16-O ) :   1.6630
B( 15-C , 20-H ) :   0.8782 B( 16-O , 17-H ) :   0.1590 B( 18-C , 19-H ) :   0.8835

Dispersion correction           -0.014034598
FINAL SINGLE POINT ENERGY      -737.020430596179
Dispersion correction            ... done

DIPOLE MOMENT
-------------
                                X             Y             Z
Electronic contribution:     47.26993      36.16488      -0.98277
Nuclear contribution   :    -48.27816     -37.19235       0.63691
                        -----------------------------------------
Total Dipole Moment    :     -1.00823      -1.02747      -0.34586
                        -----------------------------------------
Magnitude (a.u.)       :      1.48049
Magnitude (Debye)      :      3.76311

Rotational constants in cm-1:     0.028670     0.018575     0.013649
Rotational constants in MHz :   859.507949   556.874026   409.185004

                             ****ORCA TERMINATED NORMALLY****
TOTAL RUN TIME: 0 days 0 hours 4 minutes 7 seconds 452 msec
