                         Program Version 5.0.3 -  RELEASE  -
|  1> ! EnGrad PBEh-3c
|  2> %output
|  3> xyzfile=True
|  4> end
|  5> %scf
|  6> maxiter 250
|  7> end
|  8> %output
|  9> Print[P_Hirshfeld] = 1
| 10> end
| 11> % maxcore
| 12> 4000
| 13> *xyz 1 1
| 14> Ir   0.42369863  -0.68288319   1.01638701
| 15> C    0.00120892  -2.60405759   1.95996552
| 16> C    1.18317626  -2.06313627   2.55987260
| 17> C    1.56745077  -2.34599367   0.30540252
| 18> C    0.24955715  -2.81315761   0.58719505
| 19> C    2.13777456  -1.90807494   1.53140592
| 20> N   -0.89646965   0.05377081  -0.38523828
| 21> C   -2.33004116   0.18747558  -0.00814771
| 22> C   -2.81062634   1.63105997   0.03174518
| 23> H   -3.83062168   1.68085260   0.40909951
| 24> H   -2.79232404   2.07906348  -0.96228039
| 25> H   -2.19290428   2.24709330   0.67635060
| 26> C   -3.26379861  -0.66526937  -0.86137111
| 27> H   -2.40172526  -0.18143641   1.01357576
| 28> H   -4.26068532  -0.67767710  -0.42425438
| 29> H   -3.36559864  -0.28297303  -1.87795917
| 30> H   -2.91856854  -1.69658482  -0.92666669
| 31> C   -0.59923325   0.27645315  -1.60927908
| 32> C    0.68005727   0.20586564  -2.24863515
| 33> H   -1.41400271   0.54599153  -2.27919782
| 34> C    1.95341399   0.29169733  -1.76522284
| 35> C    2.97981386   0.15956318  -2.71132260
| 36> S    0.77035603  -0.06042762  -3.94498524
| 37> C    2.46256277  -0.08224541  -3.95325356
| 38> H    2.29396581   0.89552322  -0.76161926
| 39> H    4.04149770   0.17547952  -2.51291215
| 40> H    3.02187840  -0.25580631  -4.85982934
| 41> H   -0.87203404  -2.95642357   2.48941028
| 42> H    1.31552076  -1.89595813   3.61731315
| 43> H    3.13430116  -1.50479947   1.64328017
| 44> O    1.43347985   1.44254039   1.01751516
| 45> O   -0.24122700   0.92079018   2.21673353
| 46> C    0.56864515   1.81220276   1.86042074
| 47> C    0.56158933   3.20651389   2.36555260
| 48> H    0.75413880   3.92331414   1.56904277
| 49> H    1.34882219   3.34588413   3.10811957
| 50> H   -0.38962385   3.43027082   2.84114796
| 51> H    2.09332757  -2.50531660  -0.62057121
| 52> H   -0.39674058  -3.32917653  -0.10678164
| 53> *
| 54>
| 55>                          ****END OF INPUT****

CARTESIAN COORDINATES (ANGSTROEM)
---------------------------------
  Ir     0.423699   -0.682883    1.016387
  C      0.001209   -2.604058    1.959966
  C      1.183176   -2.063136    2.559873
  C      1.567451   -2.345994    0.305403
  C      0.249557   -2.813158    0.587195
  C      2.137775   -1.908075    1.531406
  N     -0.896470    0.053771   -0.385238
  C     -2.330041    0.187476   -0.008148
  C     -2.810626    1.631060    0.031745
  H     -3.830622    1.680853    0.409100
  H     -2.792324    2.079063   -0.962280
  H     -2.192904    2.247093    0.676351
  C     -3.263799   -0.665269   -0.861371
  H     -2.401725   -0.181436    1.013576
  H     -4.260685   -0.677677   -0.424254
  H     -3.365599   -0.282973   -1.877959
  H     -2.918569   -1.696585   -0.926667
  C     -0.599233    0.276453   -1.609279
  C      0.680057    0.205866   -2.248635
  H     -1.414003    0.545992   -2.279198
  C      1.953414    0.291697   -1.765223
  C      2.979814    0.159563   -2.711323
  S      0.770356   -0.060428   -3.944985
  C      2.462563   -0.082245   -3.953254
  H      2.293966    0.895523   -0.761619
  H      4.041498    0.175480   -2.512912
  H      3.021878   -0.255806   -4.859829
  H     -0.872034   -2.956424    2.489410
  H      1.315521   -1.895958    3.617313
  H      3.134301   -1.504799    1.643280
  O      1.433480    1.442540    1.017515
  O     -0.241227    0.920790    2.216734
  C      0.568645    1.812203    1.860421
  C      0.561589    3.206514    2.365553
  H      0.754139    3.923314    1.569043
  H      1.348822    3.345884    3.108120
  H     -0.389624    3.430271    2.841148
  H      2.093328   -2.505317   -0.620571
  H     -0.396741   -3.329177   -0.106782

 Total Charge           Charge          ....    1
 Multiplicity           Mult            ....    1
 Number of Electrons    NEL             ....  164
 Basis Dimension        Dim             ....  358

ORBITAL ENERGIES
----------------

  NO   OCC          E(Eh)            E(eV)
   0   2.0000     -89.744516     -2442.0724
   1   2.0000     -19.630079      -534.1616
   2   2.0000     -19.616640      -533.7959
   3   2.0000     -14.829502      -403.5313
   4   2.0000     -10.691977      -290.9435
   5   2.0000     -10.654480      -289.9232
   6   2.0000     -10.633644      -289.3562
   7   2.0000     -10.632574      -289.3270
   8   2.0000     -10.631570      -289.2997
   9   2.0000     -10.627564      -289.1907
  10   2.0000     -10.619502      -288.9713
  11   2.0000     -10.608915      -288.6832
  12   2.0000     -10.608644      -288.6759
  13   2.0000     -10.600351      -288.4502
  14   2.0000     -10.585886      -288.0566
  15   2.0000     -10.568999      -287.5971
  16   2.0000     -10.549753      -287.0734
  17   2.0000     -10.549372      -287.0630
  18   2.0000     -10.541923      -286.8603
  19   2.0000      -8.384471      -228.1531
  20   2.0000      -6.274517      -170.7383
  21   2.0000      -6.271046      -170.6438
  22   2.0000      -6.269068      -170.5900
  23   2.0000      -4.030378      -109.6722
  24   2.0000      -2.349856       -63.9428
  25   2.0000      -2.314521       -62.9813
  26   2.0000      -2.311735       -62.9055
  27   2.0000      -1.332714       -36.2650
  28   2.0000      -1.207040       -32.8452
  29   2.0000      -1.198130       -32.6028
  30   2.0000      -1.173179       -31.9238
  31   2.0000      -1.119531       -30.4640
  32   2.0000      -1.011732       -27.5306
  33   2.0000      -0.983216       -26.7547
  34   2.0000      -0.976691       -26.5771
  35   2.0000      -0.962121       -26.1806
  36   2.0000      -0.948377       -25.8066
  37   2.0000      -0.945082       -25.7170
  38   2.0000      -0.891772       -24.2664
  39   2.0000      -0.867368       -23.6023
  40   2.0000      -0.793319       -21.5873
  41   2.0000      -0.785100       -21.3637
  42   2.0000      -0.784102       -21.3365
  43   2.0000      -0.773286       -21.0422
  44   2.0000      -0.768545       -20.9132
  45   2.0000      -0.742006       -20.1910
  46   2.0000      -0.732370       -19.9288
  47   2.0000      -0.704611       -19.1734
  48   2.0000      -0.684171       -18.6172
  49   2.0000      -0.673579       -18.3290
  50   2.0000      -0.669736       -18.2245
  51   2.0000      -0.656934       -17.8761
  52   2.0000      -0.649861       -17.6836
  53   2.0000      -0.642379       -17.4800
  54   2.0000      -0.637013       -17.3340
  55   2.0000      -0.631030       -17.1712
  56   2.0000      -0.622681       -16.9440
  57   2.0000      -0.610172       -16.6036
  58   2.0000      -0.607110       -16.5203
  59   2.0000      -0.603889       -16.4326
  60   2.0000      -0.592215       -16.1150
  61   2.0000      -0.582580       -15.8528
  62   2.0000      -0.569571       -15.4988
  63   2.0000      -0.567358       -15.4386
  64   2.0000      -0.561766       -15.2864
  65   2.0000      -0.560021       -15.2390
  66   2.0000      -0.549356       -14.9487
  67   2.0000      -0.541579       -14.7371
  68   2.0000      -0.536246       -14.5920
  69   2.0000      -0.524417       -14.2701
  70   2.0000      -0.519871       -14.1464
  71   2.0000      -0.513346       -13.9689
  72   2.0000      -0.509056       -13.8521
  73   2.0000      -0.503761       -13.7080
  74   2.0000      -0.488763       -13.2999
  75   2.0000      -0.476743       -12.9728
  76   2.0000      -0.471389       -12.8271
  77   2.0000      -0.457474       -12.4485
  78   2.0000      -0.445935       -12.1345
  79   2.0000      -0.424252       -11.5445
  80   2.0000      -0.414061       -11.2672
  81   2.0000      -0.398709       -10.8494
  82   0.0000      -0.190540        -5.1848
  83   0.0000      -0.174517        -4.7488
  84   0.0000      -0.143388        -3.9018
  85   0.0000      -0.081604        -2.2206
  86   0.0000      -0.076029        -2.0689

MULLIKEN ATOMIC CHARGES
-----------------------
   0 Ir:    0.606684
   1 C :   -0.268245
   2 C :   -0.213012
   3 C :   -0.296275
   4 C :   -0.177898
   5 C :   -0.172683
   6 N :   -0.475803
   7 C :   -0.157651
   8 C :   -0.625189
   9 H :    0.254434
  10 H :    0.218462
  11 H :    0.252345
  12 C :   -0.647621
  13 H :    0.273929
  14 H :    0.263902
  15 H :    0.224602
  16 H :    0.237724
  17 C :    0.085495
  18 C :   -0.213687
  19 H :    0.268885
  20 C :   -0.251317
  21 C :   -0.137919
  22 S :    0.300537
  23 C :   -0.420642
  24 H :    0.312853
  25 H :    0.267068
  26 H :    0.296019
  27 H :    0.291871
  28 H :    0.294001
  29 H :    0.298591
  30 O :   -0.488884
  31 O :   -0.488154
  32 C :    0.658250
  33 C :   -0.772459
  34 H :    0.277433
  35 H :    0.282302
  36 H :    0.266971
  37 H :    0.289047
  38 H :    0.286035
Sum of atomic charges:    1.0000000

LOEWDIN ATOMIC CHARGES
----------------------
   0 Ir:   -0.167730
   1 C :   -0.044824
   2 C :   -0.052088
   3 C :   -0.082160
   4 C :   -0.032806
   5 C :   -0.021757
   6 N :   -0.033434
   7 C :   -0.067553
   8 C :   -0.348714
   9 H :    0.150852
  10 H :    0.131406
  11 H :    0.141020
  12 C :   -0.354321
  13 H :    0.152663
  14 H :    0.154119
  15 H :    0.132294
  16 H :    0.135177
  17 C :    0.041081
  18 C :   -0.240665
  19 H :    0.153407
  20 C :   -0.132236
  21 C :   -0.172159
  22 S :    0.459567
  23 C :   -0.254070
  24 H :    0.204159
  25 H :    0.159694
  26 H :    0.167828
  27 H :    0.185729
  28 H :    0.188940
  29 H :    0.189720
  30 O :   -0.229316
  31 O :   -0.179991
  32 C :    0.166550
  33 C :   -0.375437
  34 H :    0.169535
  35 H :    0.176181
  36 H :    0.160740
  37 H :    0.184389
  38 H :    0.184208

  Mayer bond orders larger than 0.100000
B(  0-Ir,  1-C ) :   0.5135 B(  0-Ir,  2-C ) :   0.4144 B(  0-Ir,  3-C ) :   0.5123
B(  0-Ir,  4-C ) :   0.4300 B(  0-Ir,  5-C ) :   0.4377 B(  0-Ir,  6-N ) :   0.4935
B(  0-Ir, 30-O ) :   0.4372 B(  0-Ir, 31-O ) :   0.5213 B(  1-C ,  2-C ) :   1.1331
B(  1-C ,  4-C ) :   1.1653 B(  1-C , 27-H ) :   0.9115 B(  2-C ,  5-C ) :   1.2323
B(  2-C , 28-H ) :   0.9102 B(  3-C ,  4-C ) :   1.1672 B(  3-C ,  5-C ) :   1.1202
B(  3-C , 37-H ) :   0.9120 B(  4-C , 38-H ) :   0.9127 B(  5-C , 29-H ) :   0.9025
B(  6-N ,  7-C ) :   0.8805 B(  6-N , 17-C ) :   1.6385 B(  7-C ,  8-C ) :   0.9812
B(  7-C , 12-C ) :   0.9802 B(  7-C , 13-H ) :   0.8865 B(  8-C ,  9-H ) :   0.9079
B(  8-C , 10-H ) :   0.9174 B(  8-C , 11-H ) :   0.9106 B( 12-C , 14-H ) :   0.9062
B( 12-C , 15-H ) :   0.9147 B( 12-C , 16-H ) :   0.9183 B( 17-C , 18-C ) :   1.1083
B( 17-C , 19-H ) :   0.8803 B( 18-C , 20-C ) :   1.4100 B( 18-C , 22-S ) :   1.1557
B( 20-C , 21-C ) :   1.3199 B( 20-C , 24-H ) :   0.8437 B( 21-C , 23-C ) :   1.4737
B( 21-C , 25-H ) :   0.9026 B( 22-S , 23-C ) :   1.2734 B( 23-C , 26-H ) :   0.8914
B( 30-O , 32-C ) :   1.4707 B( 31-O , 32-C ) :   1.4043 B( 32-C , 33-C ) :   0.9591
B( 33-C , 34-H ) :   0.8982 B( 33-C , 35-H ) :   0.8906 B( 33-C , 36-H ) :   0.9035

Dispersion correction           -0.029570835
FINAL SINGLE POINT ENERGY     -1288.399233983189
Dispersion correction            ... done

DIPOLE MOMENT
-------------
                                X             Y             Z
Electronic contribution:     22.05327     -64.12333     123.13315
Nuclear contribution   :    -22.10547      63.37338    -123.44042
                        -----------------------------------------
Total Dipole Moment    :     -0.05220      -0.74995      -0.30727
                        -----------------------------------------
Magnitude (a.u.)       :      0.81214
Magnitude (Debye)      :      2.06429

Rotational constants in cm-1:     0.011412     0.007684     0.006905
Rotational constants in MHz :   342.125083   230.356282   207.008682

                             ****ORCA TERMINATED NORMALLY****
TOTAL RUN TIME: 0 days 0 hours 15 minutes 10 seconds 134 msec
