                         Program Version 5.0.3 -  RELEASE  -
|  1> ! EnGrad PBEh-3c
|  2> %output
|  3> xyzfile=True
|  4> end
|  5> %scf
|  6> maxiter 250
|  7> end
|  8> %output
|  9> Print[P_Hirshfeld] = 1
| 10> end
| 11> % maxcore
| 12> 4000
| 13> *xyz 1 1
| 14> Ir   0.46073127  -0.65041920   1.04009223
| 15> C   -0.04418810  -2.62676296   1.85095592
| 16> C    1.05789328  -2.08147423   2.58144709
| 17> C    1.69280443  -2.35899040   0.38669370
| 18> C    0.38704553  -2.84005665   0.51368214
| 19> C    2.11198233  -1.88420137   1.68249260
| 20> N   -0.92946005   0.03648557  -0.40987315
| 21> C   -2.37075901   0.14554511   0.01406583
| 22> C   -2.82275108   1.59045019   0.13318054
| 23> H   -3.84951516   1.60190886   0.50298971
| 24> H   -2.81730799   2.10234096  -0.82892904
| 25> H   -2.21662057   2.14443175   0.84407616
| 26> C   -3.29911517  -0.64486238  -0.90003319
| 27> H   -2.41645164  -0.30406166   1.00482571
| 28> H   -4.28982609  -0.67393777  -0.44565324
| 29> H   -3.42898548  -0.18483802  -1.88069672
| 30> H   -2.97135687  -1.67340664  -1.03750644
| 31> C   -0.62580339   0.29633678  -1.63359483
| 32> C    0.69600700   0.21901412  -2.23258640
| 33> H   -1.45654380   0.54657490  -2.29651418
| 34> C    1.96989961   0.37157203  -1.73425563
| 35> C    2.94860611   0.09731834  -2.68472327
| 36> S    0.74736048  -0.03569113  -3.96265726
| 37> C    2.44487550  -0.07696068  -3.94517654
| 38> H    2.20485134   0.81849225  -0.79785463
| 39> H    3.99881168   0.13897964  -2.46539569
| 40> H    3.01782319  -0.22151634  -4.84362599
| 41> H   -0.93660760  -3.04089659   2.29292469
| 42> H    1.06017658  -1.88706840   3.63747604
| 43> H    3.07624262  -1.46846184   1.90497678
| 44> O    1.49347240   1.43138455   0.90625063
| 45> O   -0.18756638   0.97726153   2.16145697
| 46> C    0.65662790   1.83969788   1.74994072
| 47> C    0.61856478   3.24645630   2.29573606
| 48> H    0.77324330   3.97596858   1.50026434
| 49> H    1.43299712   3.39965408   3.01052541
| 50> H   -0.31877103   3.46685077   2.80848802
| 51> H    2.32223363  -2.45391183  -0.47792210
| 52> H   -0.19334467  -3.33934799  -0.24351292
| 53> *
| 54>
| 55>                          ****END OF INPUT****

CARTESIAN COORDINATES (ANGSTROEM)
---------------------------------
  Ir     0.460731   -0.650419    1.040092
  C     -0.044188   -2.626763    1.850956
  C      1.057893   -2.081474    2.581447
  C      1.692804   -2.358990    0.386694
  C      0.387046   -2.840057    0.513682
  C      2.111982   -1.884201    1.682493
  N     -0.929460    0.036486   -0.409873
  C     -2.370759    0.145545    0.014066
  C     -2.822751    1.590450    0.133181
  H     -3.849515    1.601909    0.502990
  H     -2.817308    2.102341   -0.828929
  H     -2.216621    2.144432    0.844076
  C     -3.299115   -0.644862   -0.900033
  H     -2.416452   -0.304062    1.004826
  H     -4.289826   -0.673938   -0.445653
  H     -3.428985   -0.184838   -1.880697
  H     -2.971357   -1.673407   -1.037506
  C     -0.625803    0.296337   -1.633595
  C      0.696007    0.219014   -2.232586
  H     -1.456544    0.546575   -2.296514
  C      1.969900    0.371572   -1.734256
  C      2.948606    0.097318   -2.684723
  S      0.747360   -0.035691   -3.962657
  C      2.444876   -0.076961   -3.945177
  H      2.204851    0.818492   -0.797855
  H      3.998812    0.138980   -2.465396
  H      3.017823   -0.221516   -4.843626
  H     -0.936608   -3.040897    2.292925
  H      1.060177   -1.887068    3.637476
  H      3.076243   -1.468462    1.904977
  O      1.493472    1.431385    0.906251
  O     -0.187566    0.977262    2.161457
  C      0.656628    1.839698    1.749941
  C      0.618565    3.246456    2.295736
  H      0.773243    3.975969    1.500264
  H      1.432997    3.399654    3.010525
  H     -0.318771    3.466851    2.808488
  H      2.322234   -2.453912   -0.477922
  H     -0.193345   -3.339348   -0.243513

 Total Charge           Charge          ....    1
 Multiplicity           Mult            ....    1
 Number of Electrons    NEL             ....  164
 Basis Dimension        Dim             ....  358

ORBITAL ENERGIES
----------------

  NO   OCC          E(Eh)            E(eV)
   0   2.0000     -89.743071     -2442.0331
   1   2.0000     -19.637491      -534.3633
   2   2.0000     -19.629671      -534.1505
   3   2.0000     -14.825178      -403.4136
   4   2.0000     -10.702095      -291.2188
   5   2.0000     -10.653735      -289.9029
   6   2.0000     -10.635564      -289.4084
   7   2.0000     -10.629593      -289.2459
   8   2.0000     -10.627516      -289.1894
   9   2.0000     -10.626756      -289.1687
  10   2.0000     -10.623417      -289.0779
  11   2.0000     -10.609146      -288.6896
  12   2.0000     -10.609007      -288.6858
  13   2.0000     -10.598225      -288.3924
  14   2.0000     -10.572870      -287.7024
  15   2.0000     -10.564823      -287.4834
  16   2.0000     -10.555370      -287.2262
  17   2.0000     -10.548168      -287.0302
  18   2.0000     -10.541007      -286.8354
  19   2.0000      -8.382321      -228.0946
  20   2.0000      -6.272413      -170.6810
  21   2.0000      -6.268961      -170.5871
  22   2.0000      -6.266877      -170.5304
  23   2.0000      -4.028960      -109.6336
  24   2.0000      -2.347705       -63.8843
  25   2.0000      -2.312722       -62.9324
  26   2.0000      -2.310416       -62.8696
  27   2.0000      -1.336664       -36.3725
  28   2.0000      -1.216738       -33.1091
  29   2.0000      -1.186437       -32.2846
  30   2.0000      -1.172940       -31.9173
  31   2.0000      -1.111160       -30.2362
  32   2.0000      -1.008479       -27.4421
  33   2.0000      -0.984756       -26.7966
  34   2.0000      -0.974136       -26.5076
  35   2.0000      -0.954702       -25.9788
  36   2.0000      -0.949100       -25.8263
  37   2.0000      -0.945358       -25.7245
  38   2.0000      -0.890761       -24.2388
  39   2.0000      -0.859780       -23.3958
  40   2.0000      -0.787856       -21.4387
  41   2.0000      -0.785449       -21.3731
  42   2.0000      -0.784301       -21.3419
  43   2.0000      -0.773052       -21.0358
  44   2.0000      -0.765130       -20.8202
  45   2.0000      -0.751047       -20.4370
  46   2.0000      -0.731126       -19.8949
  47   2.0000      -0.714540       -19.4436
  48   2.0000      -0.681415       -18.5422
  49   2.0000      -0.678118       -18.4525
  50   2.0000      -0.675118       -18.3709
  51   2.0000      -0.656707       -17.8699
  52   2.0000      -0.646191       -17.5837
  53   2.0000      -0.641325       -17.4513
  54   2.0000      -0.636214       -17.3123
  55   2.0000      -0.630087       -17.1455
  56   2.0000      -0.616264       -16.7694
  57   2.0000      -0.608006       -16.5447
  58   2.0000      -0.605827       -16.4854
  59   2.0000      -0.602421       -16.3927
  60   2.0000      -0.587714       -15.9925
  61   2.0000      -0.583724       -15.8840
  62   2.0000      -0.571900       -15.5622
  63   2.0000      -0.565930       -15.3997
  64   2.0000      -0.562141       -15.2966
  65   2.0000      -0.560658       -15.2563
  66   2.0000      -0.556568       -15.1450
  67   2.0000      -0.540183       -14.6991
  68   2.0000      -0.533589       -14.5197
  69   2.0000      -0.526828       -14.3357
  70   2.0000      -0.520762       -14.1707
  71   2.0000      -0.517955       -14.0943
  72   2.0000      -0.509181       -13.8555
  73   2.0000      -0.505783       -13.7630
  74   2.0000      -0.497455       -13.5364
  75   2.0000      -0.480373       -13.0716
  76   2.0000      -0.475401       -12.9363
  77   2.0000      -0.458219       -12.4688
  78   2.0000      -0.442471       -12.0402
  79   2.0000      -0.425470       -11.5776
  80   2.0000      -0.413937       -11.2638
  81   2.0000      -0.393789       -10.7155
  82   0.0000      -0.188130        -5.1193
  83   0.0000      -0.170217        -4.6318
  84   0.0000      -0.152912        -4.1609
  85   0.0000      -0.083453        -2.2709
  86   0.0000      -0.079822        -2.1721

MULLIKEN ATOMIC CHARGES
-----------------------
   0 Ir:    0.603571
   1 C :   -0.302536
   2 C :   -0.199533
   3 C :   -0.269128
   4 C :   -0.147089
   5 C :   -0.218575
   6 N :   -0.458892
   7 C :   -0.143336
   8 C :   -0.626973
   9 H :    0.250604
  10 H :    0.221281
  11 H :    0.254873
  12 C :   -0.654754
  13 H :    0.269040
  14 H :    0.261931
  15 H :    0.226224
  16 H :    0.240378
  17 C :    0.060492
  18 C :   -0.248734
  19 H :    0.269357
  20 C :   -0.213348
  21 C :   -0.156871
  22 S :    0.293120
  23 C :   -0.418808
  24 H :    0.342332
  25 H :    0.263306
  26 H :    0.293149
  27 H :    0.287564
  28 H :    0.297914
  29 H :    0.298942
  30 O :   -0.482124
  31 O :   -0.493278
  32 C :    0.663077
  33 C :   -0.772855
  34 H :    0.275069
  35 H :    0.281301
  36 H :    0.273607
  37 H :    0.291946
  38 H :    0.287755
Sum of atomic charges:    1.0000000

LOEWDIN ATOMIC CHARGES
----------------------
   0 Ir:   -0.159313
   1 C :   -0.064083
   2 C :   -0.043904
   3 C :   -0.070113
   4 C :   -0.021634
   5 C :   -0.043332
   6 N :   -0.045849
   7 C :   -0.061944
   8 C :   -0.349762
   9 H :    0.149048
  10 H :    0.133219
  11 H :    0.142953
  12 C :   -0.357456
  13 H :    0.150421
  14 H :    0.153265
  15 H :    0.132904
  16 H :    0.136604
  17 C :    0.034937
  18 C :   -0.225779
  19 H :    0.152977
  20 C :   -0.123614
  21 C :   -0.171531
  22 S :    0.445426
  23 C :   -0.252434
  24 H :    0.186835
  25 H :    0.156144
  26 H :    0.166781
  27 H :    0.183764
  28 H :    0.188943
  29 H :    0.188317
  30 O :   -0.212248
  31 O :   -0.180852
  32 C :    0.184528
  33 C :   -0.377239
  34 H :    0.167355
  35 H :    0.174742
  36 H :    0.163319
  37 H :    0.184802
  38 H :    0.183804

  Mayer bond orders larger than 0.100000
B(  0-Ir,  1-C ) :   0.5293 B(  0-Ir,  2-C ) :   0.4143 B(  0-Ir,  3-C ) :   0.4655
B(  0-Ir,  4-C ) :   0.3809 B(  0-Ir,  5-C ) :   0.4603 B(  0-Ir,  6-N ) :   0.4863
B(  0-Ir, 30-O ) :   0.4172 B(  0-Ir, 31-O ) :   0.5587 B(  1-C ,  2-C ) :   1.1377
B(  1-C ,  4-C ) :   1.1456 B(  1-C , 27-H ) :   0.9164 B(  2-C ,  5-C ) :   1.2356
B(  2-C , 28-H ) :   0.9059 B(  3-C ,  4-C ) :   1.2271 B(  3-C ,  5-C ) :   1.1144
B(  3-C , 37-H ) :   0.9094 B(  4-C , 38-H ) :   0.9110 B(  5-C , 29-H ) :   0.9027
B(  6-N ,  7-C ) :   0.8714 B(  6-N , 17-C ) :   1.6601 B(  7-C ,  8-C ) :   0.9808
B(  7-C , 12-C ) :   0.9828 B(  7-C , 13-H ) :   0.8892 B(  8-C ,  9-H ) :   0.9075
B(  8-C , 10-H ) :   0.9172 B(  8-C , 11-H ) :   0.9084 B( 12-C , 14-H ) :   0.9060
B( 12-C , 15-H ) :   0.9142 B( 12-C , 16-H ) :   0.9185 B( 17-C , 18-C ) :   1.0982
B( 17-C , 19-H ) :   0.8796 B( 18-C , 20-C ) :   1.4266 B( 18-C , 22-S ) :   1.1592
B( 20-C , 21-C ) :   1.3288 B( 20-C , 24-H ) :   0.8252 B( 21-C , 23-C ) :   1.4781
B( 21-C , 25-H ) :   0.9044 B( 22-S , 23-C ) :   1.2639 B( 23-C , 26-H ) :   0.8950
B( 30-O , 32-C ) :   1.4965 B( 31-O , 32-C ) :   1.3619 B( 32-C , 33-C ) :   0.9537
B( 33-C , 34-H ) :   0.8972 B( 33-C , 35-H ) :   0.8909 B( 33-C , 36-H ) :   0.9021

Dispersion correction           -0.029448059
FINAL SINGLE POINT ENERGY     -1288.412160667912
Dispersion correction            ... done

DIPOLE MOMENT
-------------
                                X             Y             Z
Electronic contribution:     25.28267     -61.26673     126.19818
Nuclear contribution   :    -25.41393      60.53485    -126.40765
                        -----------------------------------------
Total Dipole Moment    :     -0.13126      -0.73188      -0.20947
                        -----------------------------------------
Magnitude (a.u.)       :      0.77250
Magnitude (Debye)      :      1.96354

Rotational constants in cm-1:     0.011268     0.007670     0.006908
Rotational constants in MHz :   337.803261   229.926451   207.107315

                             ****ORCA TERMINATED NORMALLY****
TOTAL RUN TIME: 0 days 0 hours 15 minutes 9 seconds 113 msec
