                         Program Version 5.0.3 -  RELEASE  -
|  1> ! EnGrad PBEh-3c
|  2> %output
|  3> xyzfile=True
|  4> end
|  5> %scf
|  6> maxiter 250
|  7> end
|  8> %output
|  9> Print[P_Hirshfeld] = 1
| 10> end
| 11> % maxcore
| 12> 4000
| 13> *xyz 1 1
| 14> Ir   0.48355300  -0.65219307   1.02294210
| 15> C   -0.09945121  -2.65558546   1.70665146
| 16> C    0.88827472  -2.09790178   2.61051846
| 17> C    1.87483419  -2.35481342   0.51414978
| 18> C    0.55483814  -2.86798527   0.43070850
| 19> C    2.07975793  -1.85269102   1.87199913
| 20> N   -0.95855883   0.01835171  -0.42568963
| 21> C   -2.39692479   0.08497026   0.02406865
| 22> C   -2.84525342   1.52997875   0.27755019
| 23> H   -3.87507577   1.50025934   0.62951731
| 24> H   -2.84137852   2.13279620  -0.64500795
| 25> H   -2.24542765   2.00640397   1.06038713
| 26> C   -3.35289689  -0.61476769  -0.94791637
| 27> H   -2.43386562  -0.46362177   0.98364441
| 28> H   -4.33070427  -0.67001051  -0.47395135
| 29> H   -3.50895973  -0.05486332  -1.88122709
| 30> H   -3.04015940  -1.63901668  -1.18668812
| 31> C   -0.65215634   0.30881019  -1.64062156
| 32> C    0.64773382   0.25610783  -2.24657464
| 33> H   -1.49594411   0.54639457  -2.32095391
| 34> C    1.93129431   0.39877873  -1.76399126
| 35> C    2.92413706   0.05462388  -2.68332639
| 36> S    0.73029681  -0.00260802  -3.95368935
| 37> C    2.42321422  -0.08330776  -3.92168459
| 38> H    2.12164436   0.75395465  -0.75949392
| 39> H    3.96681712   0.08250321  -2.40466937
| 40> H    3.01273168  -0.18097870  -4.82836221
| 41> H   -1.02909787  -3.13826393   2.02114950
| 42> H    0.71698388  -1.87398479   3.66998339
| 43> H    3.00480207  -1.41628486   2.25959631
| 44> O    1.54972315   1.43559907   0.79676300
| 45> O   -0.09666448   1.04758401   2.08015373
| 46> C    0.75771407   1.88275860   1.62422865
| 47> C    0.70230041   3.29187788   2.18981838
| 48> H    0.79850600   4.04459203   1.40784869
| 49> H    1.53943800   3.46402145   2.87529007
| 50> H   -0.21659023   3.50061853   2.75442627
| 51> H    2.62140619  -2.37208847  -0.28853701
| 52> H    0.08265133  -3.34952171  -0.43454655
| 53> *
| 54>
| 55>                          ****END OF INPUT****

CARTESIAN COORDINATES (ANGSTROEM)
---------------------------------
  Ir     0.483553   -0.652193    1.022942
  C     -0.099451   -2.655585    1.706651
  C      0.888275   -2.097902    2.610518
  C      1.874834   -2.354813    0.514150
  C      0.554838   -2.867985    0.430708
  C      2.079758   -1.852691    1.871999
  N     -0.958559    0.018352   -0.425690
  C     -2.396925    0.084970    0.024069
  C     -2.845253    1.529979    0.277550
  H     -3.875076    1.500259    0.629517
  H     -2.841379    2.132796   -0.645008
  H     -2.245428    2.006404    1.060387
  C     -3.352897   -0.614768   -0.947916
  H     -2.433866   -0.463622    0.983644
  H     -4.330704   -0.670011   -0.473951
  H     -3.508960   -0.054863   -1.881227
  H     -3.040159   -1.639017   -1.186688
  C     -0.652156    0.308810   -1.640622
  C      0.647734    0.256108   -2.246575
  H     -1.495944    0.546395   -2.320954
  C      1.931294    0.398779   -1.763991
  C      2.924137    0.054624   -2.683326
  S      0.730297   -0.002608   -3.953689
  C      2.423214   -0.083308   -3.921685
  H      2.121644    0.753955   -0.759494
  H      3.966817    0.082503   -2.404669
  H      3.012732   -0.180979   -4.828362
  H     -1.029098   -3.138264    2.021149
  H      0.716984   -1.873985    3.669983
  H      3.004802   -1.416285    2.259596
  O      1.549723    1.435599    0.796763
  O     -0.096664    1.047584    2.080154
  C      0.757714    1.882759    1.624229
  C      0.702300    3.291878    2.189818
  H      0.798506    4.044592    1.407849
  H      1.539438    3.464021    2.875290
  H     -0.216590    3.500619    2.754426
  H      2.621406   -2.372088   -0.288537
  H      0.082651   -3.349522   -0.434547

 Total Charge           Charge          ....    1
 Multiplicity           Mult            ....    1
 Number of Electrons    NEL             ....  164
 Basis Dimension        Dim             ....  358

ORBITAL ENERGIES
----------------

  NO   OCC          E(Eh)            E(eV)
   0   2.0000     -89.738994     -2441.9222
   1   2.0000     -19.634126      -534.2717
   2   2.0000     -19.630349      -534.1690
   3   2.0000     -14.823887      -403.3785
   4   2.0000     -10.700400      -291.1727
   5   2.0000     -10.653022      -289.8835
   6   2.0000     -10.642368      -289.5935
   7   2.0000     -10.639058      -289.5035
   8   2.0000     -10.638786      -289.4961
   9   2.0000     -10.637328      -289.4564
  10   2.0000     -10.632281      -289.3191
  11   2.0000     -10.612430      -288.7789
  12   2.0000     -10.603566      -288.5377
  13   2.0000     -10.595326      -288.3135
  14   2.0000     -10.569909      -287.6218
  15   2.0000     -10.562414      -287.4179
  16   2.0000     -10.555715      -287.2356
  17   2.0000     -10.549432      -287.0646
  18   2.0000     -10.541715      -286.8546
  19   2.0000      -8.378804      -227.9988
  20   2.0000      -6.268897      -170.5854
  21   2.0000      -6.265443      -170.4914
  22   2.0000      -6.263318      -170.4335
  23   2.0000      -4.029622      -109.6516
  24   2.0000      -2.347380       -63.8755
  25   2.0000      -2.312816       -62.9349
  26   2.0000      -2.311409       -62.8966
  27   2.0000      -1.344087       -36.5745
  28   2.0000      -1.220314       -33.2064
  29   2.0000      -1.183105       -32.1939
  30   2.0000      -1.160753       -31.5857
  31   2.0000      -1.114556       -30.3286
  32   2.0000      -1.006109       -27.3776
  33   2.0000      -0.978436       -26.6246
  34   2.0000      -0.969201       -26.3733
  35   2.0000      -0.957321       -26.0500
  36   2.0000      -0.944767       -25.7084
  37   2.0000      -0.941146       -25.6099
  38   2.0000      -0.886462       -24.1218
  39   2.0000      -0.858994       -23.3744
  40   2.0000      -0.787247       -21.4221
  41   2.0000      -0.782236       -21.2857
  42   2.0000      -0.780961       -21.2510
  43   2.0000      -0.765353       -20.8263
  44   2.0000      -0.763122       -20.7656
  45   2.0000      -0.753007       -20.4904
  46   2.0000      -0.726276       -19.7630
  47   2.0000      -0.712322       -19.3833
  48   2.0000      -0.679895       -18.5009
  49   2.0000      -0.677533       -18.4366
  50   2.0000      -0.674485       -18.3537
  51   2.0000      -0.657073       -17.8799
  52   2.0000      -0.643943       -17.5226
  53   2.0000      -0.636338       -17.3156
  54   2.0000      -0.635512       -17.2932
  55   2.0000      -0.624613       -16.9966
  56   2.0000      -0.614454       -16.7201
  57   2.0000      -0.606136       -16.4938
  58   2.0000      -0.603119       -16.4117
  59   2.0000      -0.601490       -16.3674
  60   2.0000      -0.584370       -15.9015
  61   2.0000      -0.579778       -15.7766
  62   2.0000      -0.571836       -15.5604
  63   2.0000      -0.562707       -15.3120
  64   2.0000      -0.560266       -15.2456
  65   2.0000      -0.555675       -15.1207
  66   2.0000      -0.554625       -15.0921
  67   2.0000      -0.538662       -14.6577
  68   2.0000      -0.531966       -14.4755
  69   2.0000      -0.524639       -14.2762
  70   2.0000      -0.518916       -14.1204
  71   2.0000      -0.514741       -14.0068
  72   2.0000      -0.506395       -13.7797
  73   2.0000      -0.503232       -13.6937
  74   2.0000      -0.495057       -13.4712
  75   2.0000      -0.479995       -13.0613
  76   2.0000      -0.475515       -12.9394
  77   2.0000      -0.457704       -12.4548
  78   2.0000      -0.442615       -12.0442
  79   2.0000      -0.426098       -11.5947
  80   2.0000      -0.412493       -11.2245
  81   2.0000      -0.394440       -10.7333
  82   0.0000      -0.195148        -5.3103
  83   0.0000      -0.168239        -4.5780
  84   0.0000      -0.157631        -4.2894
  85   0.0000      -0.080837        -2.1997
  86   0.0000      -0.079451        -2.1620

MULLIKEN ATOMIC CHARGES
-----------------------
   0 Ir:    0.603192
   1 C :   -0.319824
   2 C :   -0.181637
   3 C :   -0.235534
   4 C :   -0.159030
   5 C :   -0.255541
   6 N :   -0.453893
   7 C :   -0.132905
   8 C :   -0.629628
   9 H :    0.248727
  10 H :    0.221040
  11 H :    0.259841
  12 C :   -0.659912
  13 H :    0.259921
  14 H :    0.262908
  15 H :    0.226772
  16 H :    0.240439
  17 C :    0.050891
  18 C :   -0.221541
  19 H :    0.264571
  20 C :   -0.236709
  21 C :   -0.135774
  22 S :    0.295710
  23 C :   -0.435398
  24 H :    0.340941
  25 H :    0.262472
  26 H :    0.292664
  27 H :    0.287882
  28 H :    0.304345
  29 H :    0.300299
  30 O :   -0.466257
  31 O :   -0.498081
  32 C :    0.656410
  33 C :   -0.776628
  34 H :    0.273843
  35 H :    0.278977
  36 H :    0.275582
  37 H :    0.298093
  38 H :    0.292775
Sum of atomic charges:    1.0000000

LOEWDIN ATOMIC CHARGES
----------------------
   0 Ir:   -0.159413
   1 C :   -0.070254
   2 C :   -0.027407
   3 C :   -0.045374
   4 C :   -0.031539
   5 C :   -0.065420
   6 N :   -0.049913
   7 C :   -0.057202
   8 C :   -0.352012
   9 H :    0.146754
  10 H :    0.134129
  11 H :    0.146234
  12 C :   -0.360457
  13 H :    0.147944
  14 H :    0.153162
  15 H :    0.133552
  16 H :    0.137496
  17 C :    0.033106
  18 C :   -0.238235
  19 H :    0.152644
  20 C :   -0.124076
  21 C :   -0.175722
  22 S :    0.448744
  23 C :   -0.251603
  24 H :    0.188325
  25 H :    0.157151
  26 H :    0.167912
  27 H :    0.185704
  28 H :    0.193774
  29 H :    0.191066
  30 O :   -0.195886
  31 O :   -0.185720
  32 C :    0.173354
  33 C :   -0.379495
  34 H :    0.165251
  35 H :    0.172642
  36 H :    0.164378
  37 H :    0.189214
  38 H :    0.187194

  Mayer bond orders larger than 0.100000
B(  0-Ir,  1-C ) :   0.5518 B(  0-Ir,  2-C ) :   0.4198 B(  0-Ir,  3-C ) :   0.4343
B(  0-Ir,  4-C ) :   0.3671 B(  0-Ir,  5-C ) :   0.4718 B(  0-Ir,  6-N ) :   0.4816
B(  0-Ir, 30-O ) :   0.3769 B(  0-Ir, 31-O ) :   0.5814 B(  1-C ,  2-C ) :   1.1311
B(  1-C ,  4-C ) :   1.1128 B(  1-C , 27-H ) :   0.9167 B(  2-C ,  5-C ) :   1.2236
B(  2-C , 28-H ) :   0.8991 B(  3-C ,  4-C ) :   1.2645 B(  3-C ,  5-C ) :   1.1018
B(  3-C , 37-H ) :   0.9017 B(  4-C , 38-H ) :   0.9057 B(  5-C , 29-H ) :   0.9022
B(  6-N ,  7-C ) :   0.8731 B(  6-N , 17-C ) :   1.6637 B(  7-C ,  8-C ) :   0.9743
B(  7-C , 12-C ) :   0.9812 B(  7-C , 13-H ) :   0.8922 B(  8-C ,  9-H ) :   0.9064
B(  8-C , 10-H ) :   0.9183 B(  8-C , 11-H ) :   0.9045 B( 12-C , 14-H ) :   0.9046
B( 12-C , 15-H ) :   0.9141 B( 12-C , 16-H ) :   0.9190 B( 17-C , 18-C ) :   1.0967
B( 17-C , 19-H ) :   0.8805 B( 18-C , 20-C ) :   1.4173 B( 18-C , 22-S ) :   1.1516
B( 20-C , 21-C ) :   1.3222 B( 20-C , 24-H ) :   0.8164 B( 21-C , 23-C ) :   1.4679
B( 21-C , 25-H ) :   0.9050 B( 22-S , 23-C ) :   1.2694 B( 23-C , 26-H ) :   0.8949
B( 30-O , 32-C ) :   1.5447 B( 31-O , 32-C ) :   1.3327 B( 32-C , 33-C ) :   0.9474
B( 33-C , 34-H ) :   0.8971 B( 33-C , 35-H ) :   0.8919 B( 33-C , 36-H ) :   0.9028

Dispersion correction           -0.029250331
FINAL SINGLE POINT ENERGY     -1288.397097952838
Dispersion correction            ... done

DIPOLE MOMENT
-------------
                                X             Y             Z
Electronic contribution:     27.20321     -61.93629     125.33672
Nuclear contribution   :    -27.32102      61.13164    -125.41318
                        -----------------------------------------
Total Dipole Moment    :     -0.11781      -0.80465      -0.07646
                        -----------------------------------------
Magnitude (a.u.)       :      0.81681
Magnitude (Debye)      :      2.07617

Rotational constants in cm-1:     0.011084     0.007686     0.006947
Rotational constants in MHz :   332.288186   230.426341   208.256082

                             ****ORCA TERMINATED NORMALLY****
TOTAL RUN TIME: 0 days 0 hours 15 minutes 2 seconds 877 msec
