                         Program Version 5.0.3 -  RELEASE  -
|  1> ! EnGrad PBEh-3c
|  2> %output
|  3> xyzfile=True
|  4> end
|  5> %scf
|  6> maxiter 250
|  7> end
|  8> %output
|  9> Print[P_Hirshfeld] = 1
| 10> end
| 11> % maxcore
| 12> 4000
| 13> *xyz 1 1
| 14> Ir   0.46781832  -0.65097005   1.03476644
| 15> C   -0.06134948  -2.63571349   1.80614368
| 16> C    1.00522001  -2.08657563   2.59047490
| 17> C    1.74933187  -2.35769328   0.42627385
| 18> C    0.43915177  -2.84872959   0.48791555
| 19> C    2.10197538  -1.87441616   1.74134187
| 20> N   -0.93849637   0.03085429  -0.41478479
| 21> C   -2.37888452   0.12673423   0.01717211
| 22> C   -2.82973895   1.57167142   0.17801302
| 23> H   -3.85745274   1.57034267   0.54228154
| 24> H   -2.82478284   2.11179852  -0.77181427
| 25> H   -2.22556631   2.10156867   0.91124927
| 26> C   -3.31581652  -0.63551679  -0.91490281
| 27> H   -2.42185937  -0.35361139   0.99824808
| 28> H   -4.30252038  -0.67271820  -0.45444092
| 29> H   -3.45382065  -0.14447573  -1.88086142
| 30> H   -2.99272278  -1.66272720  -1.08383325
| 31> C   -0.63398702   0.30021027  -1.63577691
| 32> C    0.68101627   0.23053319  -2.23693030
| 33> H   -1.46877916   0.54651890  -2.30410368
| 34> C    1.95791114   0.38002079  -1.74348972
| 35> C    2.94100750   0.08406002  -2.68428948
| 36> S    0.74206154  -0.02541752  -3.95987237
| 37> C    2.43814881  -0.07893170  -3.93788136
| 38> H    2.17901228   0.79845077  -0.78594211
| 39> H    3.98887611   0.12144148  -2.44653777
| 40> H    3.01624208  -0.20892780  -4.83888598
| 41> H   -0.96532949  -3.07113300   2.20852775
| 42> H    0.95360167  -1.88300542   3.64757085
| 43> H    3.05405750  -1.45225882   2.01510017
| 44> O    1.51094048   1.43269333   0.87225039
| 45> O   -0.15933774   0.99909944   2.13620910
| 46> C    0.68801915   1.85306994   1.71090215
| 47> C    0.64456800   3.26056149   2.26284443
| 48> H    0.78108836   3.99727887   1.47156563
| 49> H    1.46605122   3.41964270   2.96852949
| 50> H   -0.28703985   3.47733700   2.79169971
| 51> H    2.41513854  -2.42850244  -0.41911054
| 52> H   -0.10763700  -3.34250733  -0.30283642
| 53> *
| 54>
| 55>                          ****END OF INPUT****

CARTESIAN COORDINATES (ANGSTROEM)
---------------------------------
  Ir     0.467818   -0.650970    1.034766
  C     -0.061349   -2.635713    1.806144
  C      1.005220   -2.086576    2.590475
  C      1.749332   -2.357693    0.426274
  C      0.439152   -2.848730    0.487916
  C      2.101975   -1.874416    1.741342
  N     -0.938496    0.030854   -0.414785
  C     -2.378885    0.126734    0.017172
  C     -2.829739    1.571671    0.178013
  H     -3.857453    1.570343    0.542282
  H     -2.824783    2.111799   -0.771814
  H     -2.225566    2.101569    0.911249
  C     -3.315817   -0.635517   -0.914903
  H     -2.421859   -0.353611    0.998248
  H     -4.302520   -0.672718   -0.454441
  H     -3.453821   -0.144476   -1.880861
  H     -2.992723   -1.662727   -1.083833
  C     -0.633987    0.300210   -1.635777
  C      0.681016    0.230533   -2.236930
  H     -1.468779    0.546519   -2.304104
  C      1.957911    0.380021   -1.743490
  C      2.941007    0.084060   -2.684289
  S      0.742062   -0.025418   -3.959872
  C      2.438149   -0.078932   -3.937881
  H      2.179012    0.798451   -0.785942
  H      3.988876    0.121441   -2.446538
  H      3.016242   -0.208928   -4.838886
  H     -0.965329   -3.071133    2.208528
  H      0.953602   -1.883005    3.647571
  H      3.054057   -1.452259    2.015100
  O      1.510940    1.432693    0.872250
  O     -0.159338    0.999099    2.136209
  C      0.688019    1.853070    1.710902
  C      0.644568    3.260561    2.262844
  H      0.781088    3.997279    1.471566
  H      1.466051    3.419643    2.968529
  H     -0.287040    3.477337    2.791700
  H      2.415139   -2.428502   -0.419111
  H     -0.107637   -3.342507   -0.302836

 Total Charge           Charge          ....    1
 Multiplicity           Mult            ....    1
 Number of Electrons    NEL             ....  164
 Basis Dimension        Dim             ....  358

ORBITAL ENERGIES
----------------

  NO   OCC          E(Eh)            E(eV)
   0   2.0000     -89.741881     -2442.0007
   1   2.0000     -19.636523      -534.3370
   2   2.0000     -19.629921      -534.1573
   3   2.0000     -14.824742      -403.4017
   4   2.0000     -10.701551      -291.2040
   5   2.0000     -10.653554      -289.8980
   6   2.0000     -10.636952      -289.4462
   7   2.0000     -10.630896      -289.2814
   8   2.0000     -10.629669      -289.2480
   9   2.0000     -10.627831      -289.1980
  10   2.0000     -10.627143      -289.1793
  11   2.0000     -10.609758      -288.7062
  12   2.0000     -10.607410      -288.6423
  13   2.0000     -10.597356      -288.3687
  14   2.0000     -10.571952      -287.6774
  15   2.0000     -10.564006      -287.4612
  16   2.0000     -10.555383      -287.2266
  17   2.0000     -10.548227      -287.0319
  18   2.0000     -10.540868      -286.8316
  19   2.0000      -8.381301      -228.0668
  20   2.0000      -6.271392      -170.6533
  21   2.0000      -6.267942      -170.5594
  22   2.0000      -6.265845      -170.5023
  23   2.0000      -4.029210      -109.6404
  24   2.0000      -2.347771       -63.8861
  25   2.0000      -2.312786       -62.9341
  26   2.0000      -2.310752       -62.8788
  27   2.0000      -1.338968       -36.4352
  28   2.0000      -1.218134       -33.1471
  29   2.0000      -1.185549       -32.2604
  30   2.0000      -1.171357       -31.8742
  31   2.0000      -1.112298       -30.2672
  32   2.0000      -1.008003       -27.4292
  33   2.0000      -0.983917       -26.7738
  34   2.0000      -0.973689       -26.4954
  35   2.0000      -0.955454       -25.9992
  36   2.0000      -0.948074       -25.7984
  37   2.0000      -0.944182       -25.6925
  38   2.0000      -0.889680       -24.2094
  39   2.0000      -0.859613       -23.3913
  40   2.0000      -0.787782       -21.4366
  41   2.0000      -0.785154       -21.3651
  42   2.0000      -0.783973       -21.3330
  43   2.0000      -0.771918       -21.0050
  44   2.0000      -0.764489       -20.8028
  45   2.0000      -0.751785       -20.4571
  46   2.0000      -0.729783       -19.8584
  47   2.0000      -0.713994       -19.4288
  48   2.0000      -0.681058       -18.5325
  49   2.0000      -0.677811       -18.4442
  50   2.0000      -0.675462       -18.3803
  51   2.0000      -0.656922       -17.8758
  52   2.0000      -0.645957       -17.5774
  53   2.0000      -0.640408       -17.4264
  54   2.0000      -0.636537       -17.3211
  55   2.0000      -0.629116       -17.1191
  56   2.0000      -0.615854       -16.7582
  57   2.0000      -0.607952       -16.5432
  58   2.0000      -0.605629       -16.4800
  59   2.0000      -0.602334       -16.3903
  60   2.0000      -0.586863       -15.9693
  61   2.0000      -0.582842       -15.8599
  62   2.0000      -0.571916       -15.5626
  63   2.0000      -0.564877       -15.3711
  64   2.0000      -0.561952       -15.2915
  65   2.0000      -0.559226       -15.2173
  66   2.0000      -0.556226       -15.1357
  67   2.0000      -0.540072       -14.6961
  68   2.0000      -0.533192       -14.5089
  69   2.0000      -0.526321       -14.3219
  70   2.0000      -0.520508       -14.1637
  71   2.0000      -0.517248       -14.0750
  72   2.0000      -0.508369       -13.8334
  73   2.0000      -0.505284       -13.7495
  74   2.0000      -0.497029       -13.5249
  75   2.0000      -0.480392       -13.0721
  76   2.0000      -0.475861       -12.9488
  77   2.0000      -0.458139       -12.4666
  78   2.0000      -0.442618       -12.0443
  79   2.0000      -0.425708       -11.5841
  80   2.0000      -0.413534       -11.2528
  81   2.0000      -0.394191       -10.7265
  82   0.0000      -0.190037        -5.1712
  83   0.0000      -0.169559        -4.6139
  84   0.0000      -0.154402        -4.2015
  85   0.0000      -0.082010        -2.2316
  86   0.0000      -0.078577        -2.1382

MULLIKEN ATOMIC CHARGES
-----------------------
   0 Ir:    0.602765
   1 C :   -0.309377
   2 C :   -0.192934
   3 C :   -0.259220
   4 C :   -0.148646
   5 C :   -0.229990
   6 N :   -0.457658
   7 C :   -0.140238
   8 C :   -0.627669
   9 H :    0.250000
  10 H :    0.221236
  11 H :    0.256397
  12 C :   -0.656549
  13 H :    0.266324
  14 H :    0.262223
  15 H :    0.226541
  16 H :    0.240534
  17 C :    0.056911
  18 C :   -0.241964
  19 H :    0.267913
  20 C :   -0.220871
  21 C :   -0.149728
  22 S :    0.294412
  23 C :   -0.424742
  24 H :    0.344050
  25 H :    0.263149
  26 H :    0.293065
  27 H :    0.287218
  28 H :    0.299913
  29 H :    0.299425
  30 O :   -0.477559
  31 O :   -0.494767
  32 C :    0.661348
  33 C :   -0.774181
  34 H :    0.274740
  35 H :    0.280632
  36 H :    0.274274
  37 H :    0.293828
  38 H :    0.289193
Sum of atomic charges:    1.0000000

LOEWDIN ATOMIC CHARGES
----------------------
   0 Ir:   -0.157716
   1 C :   -0.066965
   2 C :   -0.038279
   3 C :   -0.062795
   4 C :   -0.023492
   5 C :   -0.050388
   6 N :   -0.047279
   7 C :   -0.060597
   8 C :   -0.350350
   9 H :    0.148376
  10 H :    0.133462
  11 H :    0.143842
  12 C :   -0.358366
  13 H :    0.149641
  14 H :    0.153284
  15 H :    0.133065
  16 H :    0.136868
  17 C :    0.034426
  18 C :   -0.229739
  19 H :    0.152891
  20 C :   -0.123394
  21 C :   -0.172874
  22 S :    0.446644
  23 C :   -0.252064
  24 H :    0.186869
  25 H :    0.156459
  26 H :    0.167152
  27 H :    0.183965
  28 H :    0.190030
  29 H :    0.188844
  30 O :   -0.207027
  31 O :   -0.182116
  32 C :    0.180796
  33 C :   -0.377963
  34 H :    0.166678
  35 H :    0.174105
  36 H :    0.163622
  37 H :    0.185828
  38 H :    0.184556

  Mayer bond orders larger than 0.100000
B(  0-Ir,  1-C ) :   0.5370 B(  0-Ir,  2-C ) :   0.4151 B(  0-Ir,  3-C ) :   0.4559
B(  0-Ir,  4-C ) :   0.3754 B(  0-Ir,  5-C ) :   0.4643 B(  0-Ir,  6-N ) :   0.4849
B(  0-Ir, 30-O ) :   0.4047 B(  0-Ir, 31-O ) :   0.5661 B(  1-C ,  2-C ) :   1.1367
B(  1-C ,  4-C ) :   1.1353 B(  1-C , 27-H ) :   0.9171 B(  2-C ,  5-C ) :   1.2340
B(  2-C , 28-H ) :   0.9039 B(  3-C ,  4-C ) :   1.2414 B(  3-C ,  5-C ) :   1.1105
B(  3-C , 37-H ) :   0.9072 B(  4-C , 38-H ) :   0.9095 B(  5-C , 29-H ) :   0.9026
B(  6-N ,  7-C ) :   0.8719 B(  6-N , 17-C ) :   1.6613 B(  7-C ,  8-C ) :   0.9792
B(  7-C , 12-C ) :   0.9828 B(  7-C , 13-H ) :   0.8902 B(  8-C ,  9-H ) :   0.9073
B(  8-C , 10-H ) :   0.9175 B(  8-C , 11-H ) :   0.9073 B( 12-C , 14-H ) :   0.9056
B( 12-C , 15-H ) :   0.9141 B( 12-C , 16-H ) :   0.9187 B( 17-C , 18-C ) :   1.0982
B( 17-C , 19-H ) :   0.8799 B( 18-C , 20-C ) :   1.4241 B( 18-C , 22-S ) :   1.1572
B( 20-C , 21-C ) :   1.3281 B( 20-C , 24-H ) :   0.8208 B( 21-C , 23-C ) :   1.4743
B( 21-C , 25-H ) :   0.9045 B( 22-S , 23-C ) :   1.2659 B( 23-C , 26-H ) :   0.8951
B( 30-O , 32-C ) :   1.5116 B( 31-O , 32-C ) :   1.3526 B( 32-C , 33-C ) :   0.9518
B( 33-C , 34-H ) :   0.8972 B( 33-C , 35-H ) :   0.8912 B( 33-C , 36-H ) :   0.9023

Dispersion correction           -0.029398773
FINAL SINGLE POINT ENERGY     -1288.410071169078
Dispersion correction            ... done

DIPOLE MOMENT
-------------
                                X             Y             Z
Electronic contribution:     25.87966     -61.47673     125.92721
Nuclear contribution   :    -26.00615      60.72017    -126.09882
                        -----------------------------------------
Total Dipole Moment    :     -0.12650      -0.75655      -0.17161
                        -----------------------------------------
Magnitude (a.u.)       :      0.78602
Magnitude (Debye)      :      1.99790

Rotational constants in cm-1:     0.011213     0.007677     0.006923
Rotational constants in MHz :   336.164837   230.164151   207.534456

                             ****ORCA TERMINATED NORMALLY****
TOTAL RUN TIME: 0 days 0 hours 15 minutes 5 seconds 883 msec
