                         Program Version 5.0.3 -  RELEASE  -
|  1> ! EnGrad PBEh-3c
|  2> %output
|  3> xyzfile=True
|  4> end
|  5> %scf
|  6> maxiter 250
|  7> end
|  8> %output
|  9> Print[P_Hirshfeld] = 1
| 10> end
| 11> % maxcore
| 12> 4000
| 13> *xyz 1 1
| 14> Ir   0.47951470  -0.67120987   1.00256741
| 15> C   -0.10576287  -2.66613653   1.65488272
| 16> C    0.82990482  -2.09829710   2.61598900
| 17> C    1.92720489  -2.34759047   0.56655091
| 18> C    0.61774487  -2.86809173   0.40818183
| 19> C    2.06538098  -1.84160439   1.93844586
| 20> N   -0.96099115   0.00968371  -0.42125065
| 21> C   -2.40015058   0.06530525   0.02387088
| 22> C   -2.85012473   1.50406879   0.32725462
| 23> H   -3.88389889   1.46632524   0.67413768
| 24> H   -2.84230446   2.13905254  -0.57224641
| 25> H   -2.25473198   1.95614161   1.12674500
| 26> C   -3.36854263  -0.60237620  -0.96436871
| 27> H   -2.43708972  -0.51268195   0.96407789
| 28> H   -4.34539543  -0.66888976  -0.48252785
| 29> H   -3.53255494  -0.01280928  -1.87641715
| 30> H   -3.06418497  -1.62037613  -1.23821747
| 31> C   -0.67960393   0.30991066  -1.64234819
| 32> C    0.63184558   0.27482925  -2.26535887
| 33> H   -1.49762080   0.54478703  -2.32181619
| 34> C    1.90883276   0.40488723  -1.71998480
| 35> C    2.93268101   0.06487673  -2.66699754
| 36> S    0.72005018   0.00468247  -3.96031370
| 37> C    2.41810396  -0.09478119  -3.94625402
| 38> H    2.09382443   0.71409392  -0.77253808
| 39> H    3.95679956   0.05826532  -2.38993897
| 40> H    3.00315857  -0.17126563  -4.82031162
| 41> H   -1.05656371  -3.15399214   1.91763641
| 42> H    0.59696448  -1.87123146   3.66549268
| 43> H    2.96739222  -1.40077809   2.38011230
| 44> O    1.59504156   1.44598106   0.75149625
| 45> O   -0.06248075   1.05872091   2.05183698
| 46> C    0.75445405   1.90670515   1.62113761
| 47> C    0.73385456   3.30494246   2.14890011
| 48> H    0.80735763   4.06636039   1.37424803
| 49> H    1.57312457   3.48142115   2.82686825
| 50> H   -0.17935705   3.50225479   2.72898818
| 51> H    2.71016432  -2.33314477  -0.21071333
| 52> H    0.19019509  -3.34503549  -0.49239977
| 53> *
| 54>
| 55>                          ****END OF INPUT****

CARTESIAN COORDINATES (ANGSTROEM)
---------------------------------
  Ir     0.479515   -0.671210    1.002567
  C     -0.105763   -2.666137    1.654883
  C      0.829905   -2.098297    2.615989
  C      1.927205   -2.347590    0.566551
  C      0.617745   -2.868092    0.408182
  C      2.065381   -1.841604    1.938446
  N     -0.960991    0.009684   -0.421251
  C     -2.400151    0.065305    0.023871
  C     -2.850125    1.504069    0.327255
  H     -3.883899    1.466325    0.674138
  H     -2.842304    2.139053   -0.572246
  H     -2.254732    1.956142    1.126745
  C     -3.368543   -0.602376   -0.964369
  H     -2.437090   -0.512682    0.964078
  H     -4.345395   -0.668890   -0.482528
  H     -3.532555   -0.012809   -1.876417
  H     -3.064185   -1.620376   -1.238217
  C     -0.679604    0.309911   -1.642348
  C      0.631846    0.274829   -2.265359
  H     -1.497621    0.544787   -2.321816
  C      1.908833    0.404887   -1.719985
  C      2.932681    0.064877   -2.666998
  S      0.720050    0.004682   -3.960314
  C      2.418104   -0.094781   -3.946254
  H      2.093824    0.714094   -0.772538
  H      3.956800    0.058265   -2.389939
  H      3.003159   -0.171266   -4.820312
  H     -1.056564   -3.153992    1.917636
  H      0.596964   -1.871231    3.665493
  H      2.967392   -1.400778    2.380112
  O      1.595042    1.445981    0.751496
  O     -0.062481    1.058721    2.051837
  C      0.754454    1.906705    1.621138
  C      0.733855    3.304942    2.148900
  H      0.807358    4.066360    1.374248
  H      1.573125    3.481421    2.826868
  H     -0.179357    3.502255    2.728988
  H      2.710164   -2.333145   -0.210713
  H      0.190195   -3.345035   -0.492400

 Total Charge           Charge          ....    1
 Multiplicity           Mult            ....    1
 Number of Electrons    NEL             ....  164
 Basis Dimension        Dim             ....  358

ORBITAL ENERGIES
----------------

  NO   OCC          E(Eh)            E(eV)
   0   2.0000     -89.740766     -2441.9704
   1   2.0000     -19.640905      -534.4562
   2   2.0000     -19.616473      -533.7914
   3   2.0000     -14.825220      -403.4147
   4   2.0000     -10.700811      -291.1839
   5   2.0000     -10.652488      -289.8689
   6   2.0000     -10.644919      -289.6630
   7   2.0000     -10.643191      -289.6159
   8   2.0000     -10.643177      -289.6156
   9   2.0000     -10.639885      -289.5260
  10   2.0000     -10.634764      -289.3866
  11   2.0000     -10.613273      -288.8018
  12   2.0000     -10.604615      -288.5662
  13   2.0000     -10.596016      -288.3322
  14   2.0000     -10.567221      -287.5487
  15   2.0000     -10.566122      -287.5188
  16   2.0000     -10.555883      -287.2402
  17   2.0000     -10.550381      -287.0905
  18   2.0000     -10.542575      -286.8780
  19   2.0000      -8.380252      -228.0383
  20   2.0000      -6.270345      -170.6248
  21   2.0000      -6.266864      -170.5300
  22   2.0000      -6.264892      -170.4764
  23   2.0000      -4.031082      -109.6913
  24   2.0000      -2.348736       -63.9124
  25   2.0000      -2.314268       -62.9744
  26   2.0000      -2.312753       -62.9332
  27   2.0000      -1.331491       -36.2317
  28   2.0000      -1.202386       -32.7186
  29   2.0000      -1.183270       -32.1984
  30   2.0000      -1.159411       -31.5492
  31   2.0000      -1.104028       -30.0421
  32   2.0000      -1.003275       -27.3005
  33   2.0000      -0.979163       -26.6444
  34   2.0000      -0.968686       -26.3593
  35   2.0000      -0.950971       -25.8772
  36   2.0000      -0.948699       -25.8154
  37   2.0000      -0.942420       -25.6446
  38   2.0000      -0.886550       -24.1242
  39   2.0000      -0.857874       -23.3439
  40   2.0000      -0.787644       -21.4329
  41   2.0000      -0.782638       -21.2967
  42   2.0000      -0.780806       -21.2468
  43   2.0000      -0.764587       -20.8055
  44   2.0000      -0.762813       -20.7572
  45   2.0000      -0.753571       -20.5057
  46   2.0000      -0.733625       -19.9630
  47   2.0000      -0.712383       -19.3849
  48   2.0000      -0.678464       -18.4619
  49   2.0000      -0.670025       -18.2323
  50   2.0000      -0.669541       -18.2191
  51   2.0000      -0.652338       -17.7510
  52   2.0000      -0.644454       -17.5365
  53   2.0000      -0.636837       -17.3292
  54   2.0000      -0.636476       -17.3194
  55   2.0000      -0.624088       -16.9823
  56   2.0000      -0.613599       -16.6969
  57   2.0000      -0.605967       -16.4892
  58   2.0000      -0.603540       -16.4231
  59   2.0000      -0.598893       -16.2967
  60   2.0000      -0.586375       -15.9561
  61   2.0000      -0.578841       -15.7511
  62   2.0000      -0.569378       -15.4936
  63   2.0000      -0.562782       -15.3141
  64   2.0000      -0.559621       -15.2281
  65   2.0000      -0.558394       -15.1947
  66   2.0000      -0.552762       -15.0414
  67   2.0000      -0.538059       -14.6413
  68   2.0000      -0.531700       -14.4683
  69   2.0000      -0.524362       -14.2686
  70   2.0000      -0.517557       -14.0834
  71   2.0000      -0.515439       -14.0258
  72   2.0000      -0.507756       -13.8167
  73   2.0000      -0.500944       -13.6314
  74   2.0000      -0.490230       -13.3398
  75   2.0000      -0.476155       -12.9568
  76   2.0000      -0.472439       -12.8557
  77   2.0000      -0.457508       -12.4494
  78   2.0000      -0.445417       -12.1204
  79   2.0000      -0.426298       -11.6001
  80   2.0000      -0.407858       -11.0984
  81   2.0000      -0.391383       -10.6501
  82   0.0000      -0.198433        -5.3996
  83   0.0000      -0.168327        -4.5804
  84   0.0000      -0.156951        -4.2709
  85   0.0000      -0.083727        -2.2783
  86   0.0000      -0.082889        -2.2555

MULLIKEN ATOMIC CHARGES
-----------------------
   0 Ir:    0.609003
   1 C :   -0.326735
   2 C :   -0.177533
   3 C :   -0.224131
   4 C :   -0.168513
   5 C :   -0.253147
   6 N :   -0.461422
   7 C :   -0.132571
   8 C :   -0.630099
   9 H :    0.248173
  10 H :    0.222916
  11 H :    0.258809
  12 C :   -0.662904
  13 H :    0.257111
  14 H :    0.262656
  15 H :    0.228240
  16 H :    0.241666
  17 C :    0.059041
  18 C :   -0.247875
  19 H :    0.267440
  20 C :   -0.216727
  21 C :   -0.166657
  22 S :    0.301891
  23 C :   -0.419372
  24 H :    0.353155
  25 H :    0.260698
  26 H :    0.292276
  27 H :    0.288764
  28 H :    0.305493
  29 H :    0.301123
  30 O :   -0.514897
  31 O :   -0.477641
  32 C :    0.669116
  33 C :   -0.779652
  34 H :    0.281595
  35 H :    0.283768
  36 H :    0.270624
  37 H :    0.301347
  38 H :    0.294972
Sum of atomic charges:    1.0000000

LOEWDIN ATOMIC CHARGES
----------------------
   0 Ir:   -0.155493
   1 C :   -0.070990
   2 C :   -0.021162
   3 C :   -0.031624
   4 C :   -0.039828
   5 C :   -0.067773
   6 N :   -0.050137
   7 C :   -0.057120
   8 C :   -0.352527
   9 H :    0.146568
  10 H :    0.134758
  11 H :    0.145555
  12 C :   -0.361263
  13 H :    0.146412
  14 H :    0.153386
  15 H :    0.133970
  16 H :    0.137924
  17 C :    0.037099
  18 C :   -0.240042
  19 H :    0.152324
  20 C :   -0.121662
  21 C :   -0.168460
  22 S :    0.454495
  23 C :   -0.257359
  24 H :    0.179900
  25 H :    0.154062
  26 H :    0.165185
  27 H :    0.186504
  28 H :    0.194706
  29 H :    0.192411
  30 O :   -0.261279
  31 O :   -0.161993
  32 C :    0.191153
  33 C :   -0.378083
  34 H :    0.169983
  35 H :    0.176097
  36 H :    0.163296
  37 H :    0.191512
  38 H :    0.189495

  Mayer bond orders larger than 0.100000
B(  0-Ir,  1-C ) :   0.5530 B(  0-Ir,  2-C ) :   0.4280 B(  0-Ir,  3-C ) :   0.4371
B(  0-Ir,  4-C ) :   0.3804 B(  0-Ir,  5-C ) :   0.4668 B(  0-Ir,  6-N ) :   0.4786
B(  0-Ir, 30-O ) :   0.3946 B(  0-Ir, 31-O ) :   0.5487 B(  1-C ,  2-C ) :   1.1265
B(  1-C ,  4-C ) :   1.1076 B(  1-C , 27-H ) :   0.9150 B(  2-C ,  5-C ) :   1.2169
B(  2-C , 28-H ) :   0.8979 B(  3-C ,  4-C ) :   1.2581 B(  3-C ,  5-C ) :   1.1029
B(  3-C , 37-H ) :   0.8983 B(  4-C , 38-H ) :   0.9041 B(  5-C , 29-H ) :   0.9027
B(  6-N ,  7-C ) :   0.8765 B(  6-N , 17-C ) :   1.6618 B(  7-C ,  8-C ) :   0.9734
B(  7-C , 12-C ) :   0.9819 B(  7-C , 13-H ) :   0.8932 B(  8-C ,  9-H ) :   0.9067
B(  8-C , 10-H ) :   0.9179 B(  8-C , 11-H ) :   0.9048 B( 12-C , 14-H ) :   0.9048
B( 12-C , 15-H ) :   0.9138 B( 12-C , 16-H ) :   0.9184 B( 17-C , 18-C ) :   1.1006
B( 17-C , 19-H ) :   0.8793 B( 18-C , 20-C ) :   1.4117 B( 18-C , 22-S ) :   1.1611
B( 20-C , 21-C ) :   1.3270 B( 20-C , 24-H ) :   0.8087 B( 21-C , 23-C ) :   1.4757
B( 21-C , 25-H ) :   0.9063 B( 22-S , 23-C ) :   1.2623 B( 23-C , 26-H ) :   0.8970
B( 30-O , 32-C ) :   1.4653 B( 31-O , 32-C ) :   1.3945 B( 32-C , 33-C ) :   0.9539
B( 33-C , 34-H ) :   0.8945 B( 33-C , 35-H ) :   0.8889 B( 33-C , 36-H ) :   0.9027

Dispersion correction           -0.029331908
FINAL SINGLE POINT ENERGY     -1288.388550091231
Dispersion correction            ... done

DIPOLE MOMENT
-------------
                                X             Y             Z
Electronic contribution:     26.56020     -63.99021     123.65198
Nuclear contribution   :    -26.80373      63.15413    -123.60499
                        -----------------------------------------
Total Dipole Moment    :     -0.24353      -0.83607       0.04699
                        -----------------------------------------
Magnitude (a.u.)       :      0.87209
Magnitude (Debye)      :      2.21666

Rotational constants in cm-1:     0.011018     0.007685     0.006960
Rotational constants in MHz :   330.318457   230.381621   208.645526

                             ****ORCA TERMINATED NORMALLY****
TOTAL RUN TIME: 0 days 0 hours 14 minutes 9 seconds 106 msec
