                         Program Version 5.0.3 -  RELEASE  -
|  1> ! EnGrad PBEh-3c
|  2> %output
|  3> xyzfile=True
|  4> end
|  5> %scf
|  6> maxiter 250
|  7> end
|  8> %output
|  9> Print[P_Hirshfeld] = 1
| 10> end
| 11> % maxcore
| 12> 4000
| 13> *xyz 1 1
| 14> Ir   0.47095956  -0.65640577   1.02611890
| 15> C   -0.07327737  -2.64388406   1.76552024
| 16> C    0.95813644  -2.08972361   2.59732710
| 17> C    1.79710238  -2.35498002   0.46394740
| 18> C    0.48711567  -2.85392959   0.46650184
| 19> C    2.09214740  -1.86560406   1.79427716
| 20> N   -0.94453769   0.02516861  -0.41652129
| 21> C   -2.38459584   0.11023654   0.01897116
| 22> C   -2.83521386   1.55351570   0.21809413
| 23> H   -3.86455526   1.54240720   0.57769352
| 24> H   -2.82948854   2.11911800  -0.71821727
| 25> H   -2.23339920   2.06251201   0.96912394
| 26> C   -3.32997692  -0.62661638  -0.92818763
| 27> H   -2.42594971  -0.39633221   0.98907115
| 28> H   -4.31403513  -0.67169001  -0.46198410
| 29> H   -3.47496595  -0.10911470  -1.87966785
| 30> H   -3.01191504  -1.65135317  -1.12529549
| 31> C   -0.64623814   0.30281546  -1.63754173
| 32> C    0.66781073   0.24242957  -2.24456523
| 33> H   -1.47652502   0.54605378  -2.30886064
| 34> C    1.94473039   0.38669905  -1.73717711
| 35> C    2.93877129   0.07890806  -2.67964547
| 36> S    0.73615005  -0.01733371  -3.95999090
| 37> C    2.43276546  -0.08318832  -3.94012997
| 38> H    2.15613378   0.77579545  -0.78234226
| 39> H    3.98026146   0.10447456  -2.43133730
| 40> H    3.01272830  -0.19881305  -4.83389755
| 41> H   -0.98983183  -3.09338608   2.13040444
| 42> H    0.85782131  -1.87984335   3.65238403
| 43> H    3.03078222  -1.43843288   2.11312975
| 44> O    1.53352711   1.43626195   0.83982002
| 45> O   -0.13332532   1.01511170   2.11354968
| 46> C    0.70586126   1.86747449   1.68679451
| 47> C    0.66854727   3.27248068   2.23224294
| 48> H    0.78814338   4.01583177   1.44542950
| 49> H    1.49480741   3.43623424   2.93048420
| 50> H   -0.25812000   3.48402905   2.77485757
| 51> H    2.49437221  -2.40289268  -0.36314229
| 52> H   -0.02764965  -3.34318630  -0.35374655
| 53> *
| 54>
| 55>                          ****END OF INPUT****

CARTESIAN COORDINATES (ANGSTROEM)
---------------------------------
  Ir     0.470960   -0.656406    1.026119
  C     -0.073277   -2.643884    1.765520
  C      0.958136   -2.089724    2.597327
  C      1.797102   -2.354980    0.463947
  C      0.487116   -2.853930    0.466502
  C      2.092147   -1.865604    1.794277
  N     -0.944538    0.025169   -0.416521
  C     -2.384596    0.110237    0.018971
  C     -2.835214    1.553516    0.218094
  H     -3.864555    1.542407    0.577694
  H     -2.829489    2.119118   -0.718217
  H     -2.233399    2.062512    0.969124
  C     -3.329977   -0.626616   -0.928188
  H     -2.425950   -0.396332    0.989071
  H     -4.314035   -0.671690   -0.461984
  H     -3.474966   -0.109115   -1.879668
  H     -3.011915   -1.651353   -1.125295
  C     -0.646238    0.302815   -1.637542
  C      0.667811    0.242430   -2.244565
  H     -1.476525    0.546054   -2.308861
  C      1.944730    0.386699   -1.737177
  C      2.938771    0.078908   -2.679645
  S      0.736150   -0.017334   -3.959991
  C      2.432765   -0.083188   -3.940130
  H      2.156134    0.775795   -0.782342
  H      3.980261    0.104475   -2.431337
  H      3.012728   -0.198813   -4.833898
  H     -0.989832   -3.093386    2.130404
  H      0.857821   -1.879843    3.652384
  H      3.030782   -1.438433    2.113130
  O      1.533527    1.436262    0.839820
  O     -0.133325    1.015112    2.113550
  C      0.705861    1.867474    1.686795
  C      0.668547    3.272481    2.232243
  H      0.788143    4.015832    1.445429
  H      1.494807    3.436234    2.930484
  H     -0.258120    3.484029    2.774858
  H      2.494372   -2.402893   -0.363142
  H     -0.027650   -3.343186   -0.353747

 Total Charge           Charge          ....    1
 Multiplicity           Mult            ....    1
 Number of Electrons    NEL             ....  164
 Basis Dimension        Dim             ....  358

ORBITAL ENERGIES
----------------

  NO   OCC          E(Eh)            E(eV)
   0   2.0000     -89.741608     -2441.9933
   1   2.0000     -19.637869      -534.3736
   2   2.0000     -19.626408      -534.0617
   3   2.0000     -14.824795      -403.4032
   4   2.0000     -10.701489      -291.2023
   5   2.0000     -10.653228      -289.8891
   6   2.0000     -10.637806      -289.4694
   7   2.0000     -10.632609      -289.3280
   8   2.0000     -10.632100      -289.3142
   9   2.0000     -10.630969      -289.2834
  10   2.0000     -10.628545      -289.2174
  11   2.0000     -10.610382      -288.7232
  12   2.0000     -10.606637      -288.6213
  13   2.0000     -10.596986      -288.3586
  14   2.0000     -10.570348      -287.6338
  15   2.0000     -10.564817      -287.4833
  16   2.0000     -10.555528      -287.2305
  17   2.0000     -10.548456      -287.0381
  18   2.0000     -10.540941      -286.8336
  19   2.0000      -8.381044      -228.0598
  20   2.0000      -6.271136      -170.6463
  21   2.0000      -6.267678      -170.5522
  22   2.0000      -6.265614      -170.4960
  23   2.0000      -4.029741      -109.6548
  24   2.0000      -2.348174       -63.8971
  25   2.0000      -2.313172       -62.9446
  26   2.0000      -2.311335       -62.8946
  27   2.0000      -1.336129       -36.3579
  28   2.0000      -1.214743       -33.0548
  29   2.0000      -1.185066       -32.2473
  30   2.0000      -1.170269       -31.8447
  31   2.0000      -1.110014       -30.2050
  32   2.0000      -1.007019       -27.4024
  33   2.0000      -0.983706       -26.7680
  34   2.0000      -0.973441       -26.4887
  35   2.0000      -0.954262       -25.9668
  36   2.0000      -0.947507       -25.7830
  37   2.0000      -0.944717       -25.7071
  38   2.0000      -0.889062       -24.1926
  39   2.0000      -0.859191       -23.3798
  40   2.0000      -0.787861       -21.4388
  41   2.0000      -0.785008       -21.3612
  42   2.0000      -0.783893       -21.3308
  43   2.0000      -0.771131       -20.9835
  44   2.0000      -0.764041       -20.7906
  45   2.0000      -0.752398       -20.4738
  46   2.0000      -0.730882       -19.8883
  47   2.0000      -0.713751       -19.4221
  48   2.0000      -0.680318       -18.5124
  49   2.0000      -0.675845       -18.3907
  50   2.0000      -0.673976       -18.3398
  51   2.0000      -0.655626       -17.8405
  52   2.0000      -0.645931       -17.5767
  53   2.0000      -0.640022       -17.4159
  54   2.0000      -0.637012       -17.3340
  55   2.0000      -0.628378       -17.0990
  56   2.0000      -0.615412       -16.7462
  57   2.0000      -0.607887       -16.5414
  58   2.0000      -0.605758       -16.4835
  59   2.0000      -0.601582       -16.3699
  60   2.0000      -0.586903       -15.9704
  61   2.0000      -0.581670       -15.8280
  62   2.0000      -0.571358       -15.5474
  63   2.0000      -0.563661       -15.3380
  64   2.0000      -0.561934       -15.2910
  65   2.0000      -0.559699       -15.2302
  66   2.0000      -0.555415       -15.1136
  67   2.0000      -0.540063       -14.6959
  68   2.0000      -0.532858       -14.4998
  69   2.0000      -0.525991       -14.3129
  70   2.0000      -0.519950       -14.1486
  71   2.0000      -0.516908       -14.0658
  72   2.0000      -0.508355       -13.8331
  73   2.0000      -0.504134       -13.7182
  74   2.0000      -0.495622       -13.4865
  75   2.0000      -0.479427       -13.0459
  76   2.0000      -0.475508       -12.9392
  77   2.0000      -0.458198       -12.4682
  78   2.0000      -0.443483       -12.0678
  79   2.0000      -0.426053       -11.5935
  80   2.0000      -0.412121       -11.2144
  81   2.0000      -0.393503       -10.7078
  82   0.0000      -0.192017        -5.2250
  83   0.0000      -0.169168        -4.6033
  84   0.0000      -0.155055        -4.2193
  85   0.0000      -0.082042        -2.2325
  86   0.0000      -0.079554        -2.1648

MULLIKEN ATOMIC CHARGES
-----------------------
   0 Ir:    0.603906
   1 C :   -0.314819
   2 C :   -0.187555
   3 C :   -0.250294
   4 C :   -0.152699
   5 C :   -0.236481
   6 N :   -0.458839
   7 C :   -0.138352
   8 C :   -0.628273
   9 H :    0.249451
  10 H :    0.221773
  11 H :    0.257135
  12 C :   -0.658515
  13 H :    0.263881
  14 H :    0.262327
  15 H :    0.227142
  16 H :    0.241037
  17 C :    0.057107
  18 C :   -0.244128
  19 H :    0.267730
  20 C :   -0.221248
  21 C :   -0.153792
  22 S :    0.296825
  23 C :   -0.423911
  24 H :    0.348191
  25 H :    0.262615
  26 H :    0.292941
  27 H :    0.287257
  28 H :    0.301423
  29 H :    0.299914
  30 O :   -0.488074
  31 O :   -0.490420
  32 C :    0.664093
  33 C :   -0.775647
  34 H :    0.276775
  35 H :    0.281498
  36 H :    0.273446
  37 H :    0.295938
  38 H :    0.290643
Sum of atomic charges:    1.0000000

LOEWDIN ATOMIC CHARGES
----------------------
   0 Ir:   -0.155555
   1 C :   -0.068627
   2 C :   -0.033019
   3 C :   -0.054603
   4 C :   -0.027236
   5 C :   -0.055339
   6 N :   -0.048118
   7 C :   -0.059787
   8 C :   -0.350868
   9 H :    0.147915
  10 H :    0.133784
  11 H :    0.144245
  12 C :   -0.359144
  13 H :    0.148716
  14 H :    0.153356
  15 H :    0.133277
  16 H :    0.137157
  17 C :    0.035134
  18 C :   -0.232522
  19 H :    0.152675
  20 C :   -0.123168
  21 C :   -0.171602
  22 S :    0.448844
  23 C :   -0.253448
  24 H :    0.185170
  25 H :    0.155809
  26 H :    0.166635
  27 H :    0.184271
  28 H :    0.190884
  29 H :    0.189462
  30 O :   -0.222026
  31 O :   -0.176631
  32 C :    0.183940
  33 C :   -0.377990
  34 H :    0.167604
  35 H :    0.174664
  36 H :    0.163565
  37 H :    0.187026
  38 H :    0.185550

  Mayer bond orders larger than 0.100000
B(  0-Ir,  1-C ) :   0.5423 B(  0-Ir,  2-C ) :   0.4172 B(  0-Ir,  3-C ) :   0.4515
B(  0-Ir,  4-C ) :   0.3751 B(  0-Ir,  5-C ) :   0.4654 B(  0-Ir,  6-N ) :   0.4832
B(  0-Ir, 30-O ) :   0.4019 B(  0-Ir, 31-O ) :   0.5620 B(  1-C ,  2-C ) :   1.1350
B(  1-C ,  4-C ) :   1.1276 B(  1-C , 27-H ) :   0.9170 B(  2-C ,  5-C ) :   1.2317
B(  2-C , 28-H ) :   0.9025 B(  3-C ,  4-C ) :   1.2491 B(  3-C ,  5-C ) :   1.1078
B(  3-C , 37-H ) :   0.9048 B(  4-C , 38-H ) :   0.9082 B(  5-C , 29-H ) :   0.9028
B(  6-N ,  7-C ) :   0.8732 B(  6-N , 17-C ) :   1.6616 B(  7-C ,  8-C ) :   0.9781
B(  7-C , 12-C ) :   0.9831 B(  7-C , 13-H ) :   0.8911 B(  8-C ,  9-H ) :   0.9072
B(  8-C , 10-H ) :   0.9175 B(  8-C , 11-H ) :   0.9066 B( 12-C , 14-H ) :   0.9055
B( 12-C , 15-H ) :   0.9140 B( 12-C , 16-H ) :   0.9186 B( 17-C , 18-C ) :   1.0990
B( 17-C , 19-H ) :   0.8798 B( 18-C , 20-C ) :   1.4209 B( 18-C , 22-S ) :   1.1585
B( 20-C , 21-C ) :   1.3281 B( 20-C , 24-H ) :   0.8161 B( 21-C , 23-C ) :   1.4745
B( 21-C , 25-H ) :   0.9050 B( 22-S , 23-C ) :   1.2651 B( 23-C , 26-H ) :   0.8957
B( 30-O , 32-C ) :   1.4991 B( 31-O , 32-C ) :   1.3631 B( 32-C , 33-C ) :   0.9525
B( 33-C , 34-H ) :   0.8964 B( 33-C , 35-H ) :   0.8906 B( 33-C , 36-H ) :   0.9024

Dispersion correction           -0.029393718
FINAL SINGLE POINT ENERGY     -1288.407909700643
Dispersion correction            ... done

DIPOLE MOMENT
-------------
                                X             Y             Z
Electronic contribution:     26.06327     -62.15269     125.31536
Nuclear contribution   :    -26.22036      61.37385    -125.42907
                        -----------------------------------------
Total Dipole Moment    :     -0.15708      -0.77884      -0.11371
                        -----------------------------------------
Magnitude (a.u.)       :      0.80262
Magnitude (Debye)      :      2.04009

Rotational constants in cm-1:     0.011163     0.007682     0.006935
Rotational constants in MHz :   334.663889   230.303074   207.903142

                             ****ORCA TERMINATED NORMALLY****
TOTAL RUN TIME: 0 days 0 hours 15 minutes 0 seconds 612 msec
