                         Program Version 5.0.3 -  RELEASE  -
|  1> ! EnGrad PBEh-3c
|  2> %output
|  3> xyzfile=True
|  4> end
|  5> %scf
|  6> maxiter 250
|  7> end
|  8> %output
|  9> Print[P_Hirshfeld] = 1
| 10> end
| 11> % maxcore
| 12> 4000
| 13> *xyz 1 1
| 14> Ir   0.44773910  -0.65562519   1.03933761
| 15> C   -0.01944446  -2.61509284   1.93299851
| 16> C    1.15155796  -2.06937261   2.55414193
| 17> C    1.58601009  -2.36437785   0.31259316
| 18> C    0.30988237  -2.81868983   0.55453138
| 19> C    2.13075555  -1.89721280   1.60080742
| 20> N   -0.91229818   0.04548428  -0.39654053
| 21> C   -2.35573709   0.17520479   0.01537556
| 22> C   -2.80522353   1.62011044   0.05440356
| 23> H   -3.84040374   1.65512155   0.43967349
| 24> H   -2.80264147   2.08544514  -0.91877225
| 25> H   -2.20207983   2.21535390   0.72931389
| 26> C   -3.26633029  -0.66166365  -0.87901386
| 27> H   -2.40590966  -0.21789135   1.00616490
| 28> H   -4.27219335  -0.67602339  -0.42899696
| 29> H   -3.38668949  -0.25322394  -1.87842543
| 30> H   -2.93651401  -1.68786459  -0.96057808
| 31> C   -0.61226155   0.28954243  -1.63034089
| 32> C    0.67525007   0.19717634  -2.25285692
| 33> H   -1.42871309   0.54556687  -2.28099561
| 34> C    2.02922463   0.38563184  -1.61852732
| 35> C    2.95347759   0.12234325  -2.72085815
| 36> S    0.75264513  -0.05568759  -3.97707002
| 37> C    2.46429594  -0.07550373  -3.95081027
| 38> H    2.23753890   0.82754544  -0.85728544
| 39> H    4.02748138   0.16699865  -2.49392857
| 40> H    3.01962307  -0.24468805  -4.85609409
| 41> H   -0.88804535  -2.98435227   2.42935148
| 42> H    1.23681958  -1.89359703   3.62227028
| 43> H    3.11109589  -1.49570432   1.72171688
| 44> O    1.44360289   1.44213099   0.98902144
| 45> O   -0.24828141   0.92714735   2.21277641
| 46> C    0.63363755   1.81381607   1.79139742
| 47> C    0.56819684   3.22866840   2.35743116
| 48> H    0.76098257   3.93961673   1.54564152
| 49> H    1.37661201   3.36373639   3.07846465
| 50> H   -0.36448434   3.44487700   2.83113048
| 51> H    2.16383403  -2.49186736  -0.57111535
| 52> H   -0.33386868  -3.33316388  -0.14551504
| 53> *
| 54>
| 55>                          ****END OF INPUT****

CARTESIAN COORDINATES (ANGSTROEM)
---------------------------------
  Ir     0.447739   -0.655625    1.039338
  C     -0.019444   -2.615093    1.932999
  C      1.151558   -2.069373    2.554142
  C      1.586010   -2.364378    0.312593
  C      0.309882   -2.818690    0.554531
  C      2.130756   -1.897213    1.600807
  N     -0.912298    0.045484   -0.396541
  C     -2.355737    0.175205    0.015376
  C     -2.805224    1.620110    0.054404
  H     -3.840404    1.655122    0.439673
  H     -2.802641    2.085445   -0.918772
  H     -2.202080    2.215354    0.729314
  C     -3.266330   -0.661664   -0.879014
  H     -2.405910   -0.217891    1.006165
  H     -4.272193   -0.676023   -0.428997
  H     -3.386689   -0.253224   -1.878425
  H     -2.936514   -1.687865   -0.960578
  C     -0.612262    0.289542   -1.630341
  C      0.675250    0.197176   -2.252857
  H     -1.428713    0.545567   -2.280996
  C      2.029225    0.385632   -1.618527
  C      2.953478    0.122343   -2.720858
  S      0.752645   -0.055688   -3.977070
  C      2.464296   -0.075504   -3.950810
  H      2.237539    0.827545   -0.857285
  H      4.027481    0.166999   -2.493929
  H      3.019623   -0.244688   -4.856094
  H     -0.888045   -2.984352    2.429351
  H      1.236820   -1.893597    3.622270
  H      3.111096   -1.495704    1.721717
  O      1.443603    1.442131    0.989021
  O     -0.248281    0.927147    2.212776
  C      0.633638    1.813816    1.791397
  C      0.568197    3.228668    2.357431
  H      0.760983    3.939617    1.545642
  H      1.376612    3.363736    3.078465
  H     -0.364484    3.444877    2.831130
  H      2.163834   -2.491867   -0.571115
  H     -0.333869   -3.333164   -0.145515

 Total Charge           Charge          ....    1
 Multiplicity           Mult            ....    1
 Number of Electrons    NEL             ....  164
 Basis Dimension        Dim             ....  358

ORBITAL ENERGIES
----------------

  NO   OCC          E(Eh)            E(eV)
   0   2.0000     -89.753110     -2442.3063
   1   2.0000     -19.635168      -534.3001
   2   2.0000     -19.624518      -534.0103
   3   2.0000     -14.825404      -403.4198
   4   2.0000     -10.697015      -291.0806
   5   2.0000     -10.650112      -289.8043
   6   2.0000     -10.633006      -289.3388
   7   2.0000     -10.631189      -289.2893
   8   2.0000     -10.628196      -289.2079
   9   2.0000     -10.625417      -289.1323
  10   2.0000     -10.623609      -289.0831
  11   2.0000     -10.617408      -288.9144
  12   2.0000     -10.605509      -288.5906
  13   2.0000     -10.601629      -288.4850
  14   2.0000     -10.589127      -288.1448
  15   2.0000     -10.576859      -287.8110
  16   2.0000     -10.550264      -287.0873
  17   2.0000     -10.547473      -287.0113
  18   2.0000     -10.539491      -286.7941
  19   2.0000      -8.391732      -228.3506
  20   2.0000      -6.281851      -170.9379
  21   2.0000      -6.278357      -170.8428
  22   2.0000      -6.276311      -170.7871
  23   2.0000      -4.027372      -109.5904
  24   2.0000      -2.346210       -63.8436
  25   2.0000      -2.311824       -62.9079
  26   2.0000      -2.308727       -62.8237
  27   2.0000      -1.345353       -36.6089
  28   2.0000      -1.211943       -32.9786
  29   2.0000      -1.185677       -32.2639
  30   2.0000      -1.171608       -31.8811
  31   2.0000      -1.102605       -30.0034
  32   2.0000      -1.009302       -27.4645
  33   2.0000      -0.988015       -26.8852
  34   2.0000      -0.970353       -26.4046
  35   2.0000      -0.959062       -26.0974
  36   2.0000      -0.949568       -25.8391
  37   2.0000      -0.939800       -25.5733
  38   2.0000      -0.890290       -24.2260
  39   2.0000      -0.864890       -23.5348
  40   2.0000      -0.796720       -21.6798
  41   2.0000      -0.785670       -21.3792
  42   2.0000      -0.783636       -21.3238
  43   2.0000      -0.772695       -21.0261
  44   2.0000      -0.762783       -20.7564
  45   2.0000      -0.758677       -20.6446
  46   2.0000      -0.735533       -20.0149
  47   2.0000      -0.709586       -19.3088
  48   2.0000      -0.682091       -18.5606
  49   2.0000      -0.680831       -18.5264
  50   2.0000      -0.674165       -18.3450
  51   2.0000      -0.656747       -17.8710
  52   2.0000      -0.646514       -17.5925
  53   2.0000      -0.641865       -17.4660
  54   2.0000      -0.636145       -17.3104
  55   2.0000      -0.630430       -17.1549
  56   2.0000      -0.616368       -16.7722
  57   2.0000      -0.612917       -16.6783
  58   2.0000      -0.605006       -16.4630
  59   2.0000      -0.603180       -16.4134
  60   2.0000      -0.598965       -16.2987
  61   2.0000      -0.587804       -15.9950
  62   2.0000      -0.574336       -15.6285
  63   2.0000      -0.572197       -15.5703
  64   2.0000      -0.559213       -15.2170
  65   2.0000      -0.556705       -15.1487
  66   2.0000      -0.545885       -14.8543
  67   2.0000      -0.539287       -14.6747
  68   2.0000      -0.531503       -14.4629
  69   2.0000      -0.527870       -14.3641
  70   2.0000      -0.522904       -14.2289
  71   2.0000      -0.516939       -14.0666
  72   2.0000      -0.509770       -13.8715
  73   2.0000      -0.504992       -13.7415
  74   2.0000      -0.494498       -13.4560
  75   2.0000      -0.481989       -13.1156
  76   2.0000      -0.474636       -12.9155
  77   2.0000      -0.454894       -12.3783
  78   2.0000      -0.442521       -12.0416
  79   2.0000      -0.423489       -11.5237
  80   2.0000      -0.416282       -11.3276
  81   2.0000      -0.391387       -10.6502
  82   0.0000      -0.188710        -5.1351
  83   0.0000      -0.181438        -4.9372
  84   0.0000      -0.146946        -3.9986
  85   0.0000      -0.081258        -2.2111
  86   0.0000      -0.073675        -2.0048

MULLIKEN ATOMIC CHARGES
-----------------------
   0 Ir:    0.594818
   1 C :   -0.273214
   2 C :   -0.215860
   3 C :   -0.289366
   4 C :   -0.155622
   5 C :   -0.195025
   6 N :   -0.469530
   7 C :   -0.143664
   8 C :   -0.630519
   9 H :    0.247881
  10 H :    0.222861
  11 H :    0.256442
  12 C :   -0.653898
  13 H :    0.277609
  14 H :    0.258560
  15 H :    0.227014
  16 H :    0.240823
  17 C :    0.087173
  18 C :   -0.299429
  19 H :    0.268628
  20 C :   -0.173601
  21 C :   -0.178418
  22 S :    0.308348
  23 C :   -0.395170
  24 H :    0.332013
  25 H :    0.258677
  26 H :    0.295850
  27 H :    0.288964
  28 H :    0.295588
  29 H :    0.296468
  30 O :   -0.428967
  31 O :   -0.525114
  32 C :    0.640974
  33 C :   -0.764388
  34 H :    0.265783
  35 H :    0.276829
  36 H :    0.277764
  37 H :    0.287435
  38 H :    0.285284
Sum of atomic charges:    1.0000000

LOEWDIN ATOMIC CHARGES
----------------------
   0 Ir:   -0.167929
   1 C :   -0.047323
   2 C :   -0.055344
   3 C :   -0.083409
   4 C :   -0.024409
   5 C :   -0.030341
   6 N :   -0.043430
   7 C :   -0.062256
   8 C :   -0.349973
   9 H :    0.149637
  10 H :    0.132580
  11 H :    0.143073
  12 C :   -0.356472
  13 H :    0.152873
  14 H :    0.152890
  15 H :    0.132912
  16 H :    0.135735
  17 C :    0.026580
  18 C :   -0.216916
  19 H :    0.151596
  20 C :   -0.097903
  21 C :   -0.160051
  22 S :    0.456850
  23 C :   -0.258809
  24 H :    0.154799
  25 H :    0.155230
  26 H :    0.170325
  27 H :    0.184179
  28 H :    0.189173
  29 H :    0.187048
  30 O :   -0.152398
  31 O :   -0.226733
  32 C :    0.171740
  33 C :   -0.376744
  34 H :    0.163987
  35 H :    0.171958
  36 H :    0.161699
  37 H :    0.182379
  38 H :    0.183195

  Mayer bond orders larger than 0.100000
B(  0-Ir,  1-C ) :   0.5348 B(  0-Ir,  2-C ) :   0.4020 B(  0-Ir,  3-C ) :   0.4754
B(  0-Ir,  4-C ) :   0.3918 B(  0-Ir,  5-C ) :   0.4567 B(  0-Ir,  6-N ) :   0.4979
B(  0-Ir, 30-O ) :   0.3917 B(  0-Ir, 31-O ) :   0.5854 B(  1-C ,  2-C ) :   1.1384
B(  1-C ,  4-C ) :   1.1509 B(  1-C , 27-H ) :   0.9149 B(  2-C ,  5-C ) :   1.2424
B(  2-C , 28-H ) :   0.9081 B(  3-C ,  4-C ) :   1.2120 B(  3-C ,  5-C ) :   1.1120
B(  3-C , 37-H ) :   0.9136 B(  4-C , 38-H ) :   0.9127 B(  5-C , 29-H ) :   0.9030
B(  6-N ,  7-C ) :   0.8698 B(  6-N , 17-C ) :   1.6344 B(  7-C ,  8-C ) :   0.9840
B(  7-C , 12-C ) :   0.9822 B(  7-C , 13-H ) :   0.8869 B(  8-C ,  9-H ) :   0.9096
B(  8-C , 10-H ) :   0.9160 B(  8-C , 11-H ) :   0.9084 B( 12-C , 14-H ) :   0.9082
B( 12-C , 15-H ) :   0.9144 B( 12-C , 16-H ) :   0.9175 B( 17-C , 18-C ) :   1.1183
B( 17-C , 19-H ) :   0.8809 B( 18-C , 20-C ) :   1.4059 B( 18-C , 22-S ) :   1.1866
B( 20-C , 21-C ) :   1.3236 B( 20-C , 24-H ) :   0.8386 B( 21-C , 23-C ) :   1.5103
B( 21-C , 25-H ) :   0.9046 B( 22-S , 23-C ) :   1.2265 B( 23-C , 26-H ) :   0.8939
B( 30-O , 32-C ) :   1.5899 B( 31-O , 32-C ) :   1.2882 B( 32-C , 33-C ) :   0.9512
B( 33-C , 34-H ) :   0.9018 B( 33-C , 35-H ) :   0.8941 B( 33-C , 36-H ) :   0.9009

Dispersion correction           -0.029589449
FINAL SINGLE POINT ENERGY     -1288.355418794484
Dispersion correction            ... done

DIPOLE MOMENT
-------------
                                X             Y             Z
Electronic contribution:     24.39875     -61.61311     125.36379
Nuclear contribution   :    -24.38349      60.85974    -125.87925
                        -----------------------------------------
Total Dipole Moment    :      0.01526      -0.75337      -0.51546
                        -----------------------------------------
Magnitude (a.u.)       :      0.91296
Magnitude (Debye)      :      2.32056

Rotational constants in cm-1:     0.011346     0.007649     0.006885
Rotational constants in MHz :   340.143554   229.324099   206.408886

                             ****ORCA TERMINATED NORMALLY****
TOTAL RUN TIME: 0 days 0 hours 15 minutes 11 seconds 673 msec
