                         Program Version 5.0.3 -  RELEASE  -
|  1> ! EnGrad PBEh-3c
|  2> %output
|  3> xyzfile=True
|  4> end
|  5> %scf
|  6> maxiter 250
|  7> end
|  8> %output
|  9> Print[P_Hirshfeld] = 1
| 10> end
| 11> % maxcore
| 12> 4000
| 13> *xyz 1 1
| 14> Ir   0.43314081  -0.67217729   1.02540112
| 15> C   -0.00690294  -2.60839181   1.94937391
| 16> C    1.17075780  -2.06558567   2.55762182
| 17> C    1.57474016  -2.35321427   0.30822673
| 18> C    0.27325059  -2.81533045   0.57436601
| 19> C    2.13501776  -1.90380871   1.55866417
| 20> N   -0.90268649   0.05051618  -0.38967737
| 21> C   -2.34013353   0.18265608   0.00109133
| 22> C   -2.80850432   1.62675941   0.04064453
| 23> H   -3.83446370   1.67074643   0.42110780
| 24> H   -2.79637633   2.08156995  -0.94519206
| 25> H   -2.19650809   2.23462728   0.69715255
| 26> C   -3.26479295  -0.66385318  -0.86830050
| 27> H   -2.40336873  -0.19575452   1.01066506
| 28> H   -4.26520523  -0.67702759  -0.42611708
| 29> H   -3.37388232  -0.27128873  -1.87814230
| 30> H   -2.92561683  -1.69315985  -0.93998579
| 31> C   -0.60435027   0.28159412  -1.61755135
| 32> C    0.67816918   0.20245281  -2.25029330
| 33> H   -1.41978038   0.54582474  -2.27990392
| 34> C    1.98318951   0.32859121  -1.70760646
| 35> C    2.96946998   0.14494462  -2.71506780
| 36> S    0.76339987  -0.05856592  -3.95758692
| 37> C    2.46324349  -0.07959753  -3.95229393
| 38> H    2.27180348   0.86882415  -0.79919327
| 39> H    4.03599262   0.17214856  -2.50545613
| 40> H    3.02099259  -0.25143948  -4.85836228
| 41> H   -0.87832267  -2.96739289   2.46582149
| 42> H    1.28460995  -1.89503078   3.61926012
| 43> H    3.12518702  -1.50122724   1.67408711
| 44> O    1.43745580   1.44237959   1.00632391
| 45> O   -0.24399770   0.92328703   2.21517933
| 46> C    0.59417167   1.81283641   1.83331102
| 47> C    0.56418450   3.21521534   2.36236281
| 48> H    0.75682677   3.92971718   1.55985165
| 49> H    1.35973697   3.35289581   3.09647226
| 50> H   -0.37975001   3.43600757   2.83721348
| 51> H    2.12101981  -2.50003425  -0.60114684
| 52> H   -0.37204690  -3.33074261  -0.12199464
| 53> *
| 54>
| 55>                          ****END OF INPUT****

CARTESIAN COORDINATES (ANGSTROEM)
---------------------------------
  Ir     0.433141   -0.672177    1.025401
  C     -0.006903   -2.608392    1.949374
  C      1.170758   -2.065586    2.557622
  C      1.574740   -2.353214    0.308227
  C      0.273251   -2.815330    0.574366
  C      2.135018   -1.903809    1.558664
  N     -0.902686    0.050516   -0.389677
  C     -2.340134    0.182656    0.001091
  C     -2.808504    1.626759    0.040645
  H     -3.834464    1.670746    0.421108
  H     -2.796376    2.081570   -0.945192
  H     -2.196508    2.234627    0.697153
  C     -3.264793   -0.663853   -0.868301
  H     -2.403369   -0.195755    1.010665
  H     -4.265205   -0.677028   -0.426117
  H     -3.373882   -0.271289   -1.878142
  H     -2.925617   -1.693160   -0.939986
  C     -0.604350    0.281594   -1.617551
  C      0.678169    0.202453   -2.250293
  H     -1.419780    0.545825   -2.279904
  C      1.983190    0.328591   -1.707606
  C      2.969470    0.144945   -2.715068
  S      0.763400   -0.058566   -3.957587
  C      2.463243   -0.079598   -3.952294
  H      2.271803    0.868824   -0.799193
  H      4.035993    0.172149   -2.505456
  H      3.020993   -0.251439   -4.858362
  H     -0.878323   -2.967393    2.465821
  H      1.284610   -1.895031    3.619260
  H      3.125187   -1.501227    1.674087
  O      1.437456    1.442380    1.006324
  O     -0.243998    0.923287    2.215179
  C      0.594172    1.812836    1.833311
  C      0.564184    3.215215    2.362363
  H      0.756827    3.929717    1.559852
  H      1.359737    3.352896    3.096472
  H     -0.379750    3.436008    2.837213
  H      2.121020   -2.500034   -0.601147
  H     -0.372047   -3.330743   -0.121995

 Total Charge           Charge          ....    1
 Multiplicity           Mult            ....    1
 Number of Electrons    NEL             ....  164
 Basis Dimension        Dim             ....  358

ORBITAL ENERGIES
----------------

  NO   OCC          E(Eh)            E(eV)
   0   2.0000     -89.747788     -2442.1615
   1   2.0000     -19.627998      -534.1050
   2   2.0000     -19.623963      -533.9952
   3   2.0000     -14.827629      -403.4803
   4   2.0000     -10.694001      -290.9986
   5   2.0000     -10.652539      -289.8703
   6   2.0000     -10.633608      -289.3552
   7   2.0000     -10.632085      -289.3138
   8   2.0000     -10.630313      -289.2655
   9   2.0000     -10.626011      -289.1485
  10   2.0000     -10.618858      -288.9538
  11   2.0000     -10.614968      -288.8480
  12   2.0000     -10.607213      -288.6370
  13   2.0000     -10.600664      -288.4587
  14   2.0000     -10.586384      -288.0702
  15   2.0000     -10.570998      -287.6515
  16   2.0000     -10.549888      -287.0771
  17   2.0000     -10.548481      -287.0388
  18   2.0000     -10.540810      -286.8300
  19   2.0000      -8.387182      -228.2268
  20   2.0000      -6.277271      -170.8132
  21   2.0000      -6.273763      -170.7178
  22   2.0000      -6.271792      -170.6641
  23   2.0000      -4.029345      -109.6441
  24   2.0000      -2.348550       -63.9073
  25   2.0000      -2.313591       -62.9560
  26   2.0000      -2.310689       -62.8770
  27   2.0000      -1.334158       -36.3043
  28   2.0000      -1.211885       -32.9771
  29   2.0000      -1.192985       -32.4628
  30   2.0000      -1.172808       -31.9137
  31   2.0000      -1.111859       -30.2552
  32   2.0000      -1.010579       -27.4993
  33   2.0000      -0.984267       -26.7833
  34   2.0000      -0.975071       -26.5330
  35   2.0000      -0.959985       -26.1225
  36   2.0000      -0.946633       -25.7592
  37   2.0000      -0.944558       -25.7027
  38   2.0000      -0.891085       -24.2477
  39   2.0000      -0.864808       -23.5326
  40   2.0000      -0.792490       -21.5647
  41   2.0000      -0.785369       -21.3710
  42   2.0000      -0.784084       -21.3360
  43   2.0000      -0.773215       -21.0402
  44   2.0000      -0.765953       -20.8426
  45   2.0000      -0.743806       -20.2400
  46   2.0000      -0.732397       -19.9295
  47   2.0000      -0.710883       -19.3441
  48   2.0000      -0.683421       -18.5968
  49   2.0000      -0.676385       -18.4054
  50   2.0000      -0.671181       -18.2638
  51   2.0000      -0.655434       -17.8353
  52   2.0000      -0.647488       -17.6191
  53   2.0000      -0.641951       -17.4684
  54   2.0000      -0.636198       -17.3118
  55   2.0000      -0.630699       -17.1622
  56   2.0000      -0.619621       -16.8607
  57   2.0000      -0.608121       -16.5478
  58   2.0000      -0.605060       -16.4645
  59   2.0000      -0.604371       -16.4458
  60   2.0000      -0.590529       -16.0691
  61   2.0000      -0.584723       -15.9111
  62   2.0000      -0.571349       -15.5472
  63   2.0000      -0.566282       -15.4093
  64   2.0000      -0.561124       -15.2690
  65   2.0000      -0.559685       -15.2298
  66   2.0000      -0.555827       -15.1248
  67   2.0000      -0.541474       -14.7342
  68   2.0000      -0.534311       -14.5393
  69   2.0000      -0.525732       -14.3059
  70   2.0000      -0.520938       -14.1755
  71   2.0000      -0.518047       -14.0968
  72   2.0000      -0.508848       -13.8465
  73   2.0000      -0.506336       -13.7781
  74   2.0000      -0.492397       -13.3988
  75   2.0000      -0.479960       -13.0604
  76   2.0000      -0.473327       -12.8799
  77   2.0000      -0.456734       -12.4284
  78   2.0000      -0.444887       -12.1060
  79   2.0000      -0.424403       -11.5486
  80   2.0000      -0.414984       -11.2923
  81   2.0000      -0.395677       -10.7669
  82   0.0000      -0.189310        -5.1514
  83   0.0000      -0.176991        -4.8162
  84   0.0000      -0.144891        -3.9427
  85   0.0000      -0.080850        -2.2001
  86   0.0000      -0.075235        -2.0472

MULLIKEN ATOMIC CHARGES
-----------------------
   0 Ir:    0.604133
   1 C :   -0.270606
   2 C :   -0.214074
   3 C :   -0.293501
   4 C :   -0.168657
   5 C :   -0.181781
   6 N :   -0.473949
   7 C :   -0.152056
   8 C :   -0.627244
   9 H :    0.251823
  10 H :    0.220128
  11 H :    0.253837
  12 C :   -0.650087
  13 H :    0.275321
  14 H :    0.261779
  15 H :    0.225535
  16 H :    0.238852
  17 C :    0.086826
  18 C :   -0.253696
  19 H :    0.268771
  20 C :   -0.227756
  21 C :   -0.153005
  22 S :    0.305218
  23 C :   -0.410538
  24 H :    0.329605
  25 H :    0.264303
  26 H :    0.295658
  27 H :    0.290859
  28 H :    0.294649
  29 H :    0.297773
  30 O :   -0.467364
  31 O :   -0.503950
  32 C :    0.653702
  33 C :   -0.769456
  34 H :    0.272780
  35 H :    0.280099
  36 H :    0.271496
  37 H :    0.288641
  38 H :    0.285931
Sum of atomic charges:    1.0000000

LOEWDIN ATOMIC CHARGES
----------------------
   0 Ir:   -0.166767
   1 C :   -0.045781
   2 C :   -0.053361
   3 C :   -0.082598
   4 C :   -0.029051
   5 C :   -0.025271
   6 N :   -0.037923
   7 C :   -0.065558
   8 C :   -0.349239
   9 H :    0.150361
  10 H :    0.131846
  11 H :    0.141744
  12 C :   -0.355199
  13 H :    0.152736
  14 H :    0.153633
  15 H :    0.132522
  16 H :    0.135360
  17 C :    0.035375
  18 C :   -0.232329
  19 H :    0.152658
  20 C :   -0.123670
  21 C :   -0.168549
  22 S :    0.458795
  23 C :   -0.255663
  24 H :    0.192414
  25 H :    0.157806
  26 H :    0.168734
  27 H :    0.185169
  28 H :    0.189013
  29 H :    0.188592
  30 O :   -0.200514
  31 O :   -0.198988
  32 C :    0.169209
  33 C :   -0.376049
  34 H :    0.167350
  35 H :    0.174502
  36 H :    0.161238
  37 H :    0.183590
  38 H :    0.183863

  Mayer bond orders larger than 0.100000
B(  0-Ir,  1-C ) :   0.5214 B(  0-Ir,  2-C ) :   0.4095 B(  0-Ir,  3-C ) :   0.4989
B(  0-Ir,  4-C ) :   0.4154 B(  0-Ir,  5-C ) :   0.4452 B(  0-Ir,  6-N ) :   0.4956
B(  0-Ir, 30-O ) :   0.4189 B(  0-Ir, 31-O ) :   0.5461 B(  1-C ,  2-C ) :   1.1349
B(  1-C ,  4-C ) :   1.1603 B(  1-C , 27-H ) :   0.9129 B(  2-C ,  5-C ) :   1.2365
B(  2-C , 28-H ) :   0.9095 B(  3-C ,  4-C ) :   1.1837 B(  3-C ,  5-C ) :   1.1169
B(  3-C , 37-H ) :   0.9126 B(  4-C , 38-H ) :   0.9128 B(  5-C , 29-H ) :   0.9027
B(  6-N ,  7-C ) :   0.8764 B(  6-N , 17-C ) :   1.6358 B(  7-C ,  8-C ) :   0.9823
B(  7-C , 12-C ) :   0.9811 B(  7-C , 13-H ) :   0.8867 B(  8-C ,  9-H ) :   0.9086
B(  8-C , 10-H ) :   0.9169 B(  8-C , 11-H ) :   0.9098 B( 12-C , 14-H ) :   0.9070
B( 12-C , 15-H ) :   0.9146 B( 12-C , 16-H ) :   0.9181 B( 17-C , 18-C ) :   1.1146
B( 17-C , 19-H ) :   0.8807 B( 18-C , 20-C ) :   1.4064 B( 18-C , 22-S ) :   1.1702
B( 20-C , 21-C ) :   1.3222 B( 20-C , 24-H ) :   0.8403 B( 21-C , 23-C ) :   1.4885
B( 21-C , 25-H ) :   0.9032 B( 22-S , 23-C ) :   1.2554 B( 23-C , 26-H ) :   0.8928
B( 30-O , 32-C ) :   1.5166 B( 31-O , 32-C ) :   1.3581 B( 32-C , 33-C ) :   0.9562
B( 33-C , 34-H ) :   0.8997 B( 33-C , 35-H ) :   0.8921 B( 33-C , 36-H ) :   0.9025

Dispersion correction           -0.029586408
FINAL SINGLE POINT ENERGY     -1288.412326586640
Dispersion correction            ... done

DIPOLE MOMENT
-------------
                                X             Y             Z
Electronic contribution:     22.97890     -63.14006     124.01380
Nuclear contribution   :    -23.00019      62.38612    -124.39830
                        -----------------------------------------
Total Dipole Moment    :     -0.02129      -0.75394      -0.38450
                        -----------------------------------------
Magnitude (a.u.)       :      0.84659
Magnitude (Debye)      :      2.15187

Rotational constants in cm-1:     0.011387     0.007671     0.006898
Rotational constants in MHz :   341.373056   229.974525   206.786521

                             ****ORCA TERMINATED NORMALLY****
TOTAL RUN TIME: 0 days 0 hours 15 minutes 16 seconds 337 msec
