                         Program Version 5.0.3 -  RELEASE  -
|  1> ! EnGrad PBEh-3c
|  2> %output
|  3> xyzfile=True
|  4> end
|  5> %scf
|  6> maxiter 250
|  7> end
|  8> %output
|  9> Print[P_Hirshfeld] = 1
| 10> end
| 11> % maxcore
| 12> 4000
| 13> *xyz 1 1
| 14> Ir   0.45467950  -0.64693235   1.04885593
| 15> C   -0.02300019  -2.61679233   1.90704757
| 16> C    1.12608876  -2.07382651   2.56621018
| 17> C    1.61408081  -2.36517663   0.33343513
| 18> C    0.33118898  -2.82693059   0.54119272
| 19> C    2.12360616  -1.89516838   1.62029866
| 20> N   -0.91904804   0.04230810  -0.40382197
| 21> C   -2.36425349   0.16883782   0.01672120
| 22> C   -2.80961231   1.61256740   0.07538329
| 23> H   -3.84165304   1.64019458   0.45596276
| 24> H   -2.80775251   2.09023054  -0.89608609
| 25> H   -2.20619652   2.19648788   0.76104345
| 26> C   -3.27451799  -0.65717101  -0.88410271
| 27> H   -2.40900016  -0.24189861   1.00812872
| 28> H   -4.27563210  -0.67528696  -0.43382809
| 29> H   -3.39857679  -0.23467815  -1.87977522
| 30> H   -2.94592439  -1.68491663  -0.98114966
| 31> C   -0.61920294   0.29287459  -1.63400628
| 32> C    0.70940767   0.20198285  -2.23346726
| 33> H   -1.44074450   0.54647000  -2.28539548
| 34> C    2.01570549   0.39930202  -1.63874395
| 35> C    2.95072458   0.11213688  -2.69272051
| 36> S    0.74901747  -0.05141339  -3.98033667
| 37> C    2.45404982  -0.07471449  -3.95425357
| 38> H    2.21975442   0.81099140  -0.86796239
| 39> H    4.01494356   0.16075153  -2.48745688
| 40> H    3.01965271  -0.23832883  -4.85400748
| 41> H   -0.90198935  -3.00095048   2.39490847
| 42> H    1.18949609  -1.89162745   3.62273040
| 43> H    3.10118267  -1.48857395   1.77056135
| 44> O    1.46823406   1.43346094   0.95401881
| 45> O   -0.23220289   0.94408170   2.19914715
| 46> C    0.63037786   1.81775358   1.78611867
| 47> C    0.58275178   3.23405420   2.34079034
| 48> H    0.76404679   3.94916952   1.53403700
| 49> H    1.39254483   3.37420980   3.06108305
| 50> H   -0.35497674   3.45288242   2.82712157
| 51> H    2.20698483  -2.48293025  -0.54681172
| 52> H   -0.29565248  -3.33358057  -0.16960049
| 53> *
| 54>
| 55>                          ****END OF INPUT****

CARTESIAN COORDINATES (ANGSTROEM)
---------------------------------
  Ir     0.454680   -0.646932    1.048856
  C     -0.023000   -2.616792    1.907048
  C      1.126089   -2.073827    2.566210
  C      1.614081   -2.365177    0.333435
  C      0.331189   -2.826931    0.541193
  C      2.123606   -1.895168    1.620299
  N     -0.919048    0.042308   -0.403822
  C     -2.364253    0.168838    0.016721
  C     -2.809612    1.612567    0.075383
  H     -3.841653    1.640195    0.455963
  H     -2.807753    2.090231   -0.896086
  H     -2.206197    2.196488    0.761043
  C     -3.274518   -0.657171   -0.884103
  H     -2.409000   -0.241899    1.008129
  H     -4.275632   -0.675287   -0.433828
  H     -3.398577   -0.234678   -1.879775
  H     -2.945924   -1.684917   -0.981150
  C     -0.619203    0.292875   -1.634006
  C      0.709408    0.201983   -2.233467
  H     -1.440745    0.546470   -2.285395
  C      2.015705    0.399302   -1.638744
  C      2.950725    0.112137   -2.692721
  S      0.749017   -0.051413   -3.980337
  C      2.454050   -0.074714   -3.954254
  H      2.219754    0.810991   -0.867962
  H      4.014944    0.160752   -2.487457
  H      3.019653   -0.238329   -4.854007
  H     -0.901989   -3.000950    2.394908
  H      1.189496   -1.891627    3.622730
  H      3.101183   -1.488574    1.770561
  O      1.468234    1.433461    0.954019
  O     -0.232203    0.944082    2.199147
  C      0.630378    1.817754    1.786119
  C      0.582752    3.234054    2.340790
  H      0.764047    3.949170    1.534037
  H      1.392545    3.374210    3.061083
  H     -0.354977    3.452882    2.827122
  H      2.206985   -2.482930   -0.546812
  H     -0.295652   -3.333581   -0.169600

 Total Charge           Charge          ....    1
 Multiplicity           Mult            ....    1
 Number of Electrons    NEL             ....  164
 Basis Dimension        Dim             ....  358

ORBITAL ENERGIES
----------------

  NO   OCC          E(Eh)            E(eV)
   0   2.0000     -89.749870     -2442.2181
   1   2.0000     -19.634735      -534.2883
   2   2.0000     -19.633276      -534.2486
   3   2.0000     -14.825088      -403.4111
   4   2.0000     -10.702237      -291.2227
   5   2.0000     -10.651979      -289.8551
   6   2.0000     -10.633633      -289.3559
   7   2.0000     -10.629821      -289.2521
   8   2.0000     -10.627681      -289.1939
   9   2.0000     -10.623633      -289.0838
  10   2.0000     -10.621225      -289.0182
  11   2.0000     -10.618938      -288.9560
  12   2.0000     -10.607096      -288.6338
  13   2.0000     -10.601024      -288.4685
  14   2.0000     -10.578429      -287.8537
  15   2.0000     -10.573074      -287.7080
  16   2.0000     -10.553713      -287.1811
  17   2.0000     -10.548079      -287.0278
  18   2.0000     -10.540688      -286.8267
  19   2.0000      -8.388386      -228.2596
  20   2.0000      -6.278523      -170.8473
  21   2.0000      -6.275035      -170.7524
  22   2.0000      -6.272931      -170.6951
  23   2.0000      -4.027867      -109.6038
  24   2.0000      -2.346636       -63.8552
  25   2.0000      -2.312047       -62.9140
  26   2.0000      -2.309268       -62.8384
  27   2.0000      -1.334915       -36.3249
  28   2.0000      -1.216973       -33.1155
  29   2.0000      -1.184947       -32.2440
  30   2.0000      -1.172476       -31.9047
  31   2.0000      -1.101325       -29.9686
  32   2.0000      -1.008192       -27.4343
  33   2.0000      -0.987630       -26.8748
  34   2.0000      -0.970804       -26.4169
  35   2.0000      -0.957951       -26.0672
  36   2.0000      -0.947999       -25.7964
  37   2.0000      -0.942453       -25.6454
  38   2.0000      -0.891364       -24.2553
  39   2.0000      -0.860169       -23.4064
  40   2.0000      -0.792836       -21.5742
  41   2.0000      -0.785724       -21.3806
  42   2.0000      -0.784165       -21.3382
  43   2.0000      -0.773114       -21.0375
  44   2.0000      -0.762404       -20.7461
  45   2.0000      -0.758977       -20.6528
  46   2.0000      -0.738887       -20.1061
  47   2.0000      -0.713669       -19.4199
  48   2.0000      -0.681402       -18.5419
  49   2.0000      -0.679745       -18.4968
  50   2.0000      -0.674552       -18.3555
  51   2.0000      -0.655254       -17.8304
  52   2.0000      -0.645694       -17.5702
  53   2.0000      -0.641451       -17.4548
  54   2.0000      -0.634429       -17.2637
  55   2.0000      -0.630067       -17.1450
  56   2.0000      -0.614942       -16.7334
  57   2.0000      -0.607918       -16.5423
  58   2.0000      -0.606045       -16.4913
  59   2.0000      -0.605108       -16.4658
  60   2.0000      -0.595909       -16.2155
  61   2.0000      -0.585099       -15.9213
  62   2.0000      -0.573234       -15.5985
  63   2.0000      -0.571676       -15.5561
  64   2.0000      -0.560780       -15.2596
  65   2.0000      -0.557786       -15.1781
  66   2.0000      -0.551522       -15.0077
  67   2.0000      -0.539578       -14.6827
  68   2.0000      -0.532424       -14.4880
  69   2.0000      -0.528685       -14.3863
  70   2.0000      -0.521455       -14.1895
  71   2.0000      -0.519155       -14.1269
  72   2.0000      -0.510276       -13.8853
  73   2.0000      -0.506547       -13.7839
  74   2.0000      -0.497759       -13.5447
  75   2.0000      -0.481445       -13.1008
  76   2.0000      -0.475022       -12.9260
  77   2.0000      -0.456960       -12.4345
  78   2.0000      -0.442358       -12.0372
  79   2.0000      -0.424563       -11.5529
  80   2.0000      -0.414237       -11.2720
  81   2.0000      -0.391305       -10.6479
  82   0.0000      -0.186076        -5.0634
  83   0.0000      -0.175717        -4.7815
  84   0.0000      -0.150850        -4.1048
  85   0.0000      -0.084863        -2.3092
  86   0.0000      -0.079435        -2.1615

MULLIKEN ATOMIC CHARGES
-----------------------
   0 Ir:    0.597746
   1 C :   -0.290445
   2 C :   -0.209253
   3 C :   -0.282789
   4 C :   -0.144613
   5 C :   -0.206710
   6 N :   -0.460047
   7 C :   -0.143376
   8 C :   -0.628951
   9 H :    0.249092
  10 H :    0.222926
  11 H :    0.255094
  12 C :   -0.654414
  13 H :    0.274820
  14 H :    0.259585
  15 H :    0.226637
  16 H :    0.241193
  17 C :    0.072210
  18 C :   -0.298254
  19 H :    0.270248
  20 C :   -0.155653
  21 C :   -0.192259
  22 S :    0.299029
  23 C :   -0.394619
  24 H :    0.337454
  25 H :    0.258421
  26 H :    0.294373
  27 H :    0.288283
  28 H :    0.296050
  29 H :    0.297720
  30 O :   -0.464563
  31 O :   -0.505361
  32 C :    0.655467
  33 C :   -0.765984
  34 H :    0.271072
  35 H :    0.279468
  36 H :    0.275092
  37 H :    0.289415
  38 H :    0.285898
Sum of atomic charges:    1.0000000

LOEWDIN ATOMIC CHARGES
----------------------
   0 Ir:   -0.163839
   1 C :   -0.056627
   2 C :   -0.052679
   3 C :   -0.079998
   4 C :   -0.020982
   5 C :   -0.034538
   6 N :   -0.045124
   7 C :   -0.062095
   8 C :   -0.349695
   9 H :    0.149683
  10 H :    0.133216
  11 H :    0.142793
  12 C :   -0.356803
  13 H :    0.151843
  14 H :    0.152884
  15 H :    0.132980
  16 H :    0.136302
  17 C :    0.029678
  18 C :   -0.209850
  19 H :    0.151940
  20 C :   -0.101424
  21 C :   -0.161537
  22 S :    0.446379
  23 C :   -0.259223
  24 H :    0.154663
  25 H :    0.153746
  26 H :    0.168420
  27 H :    0.183984
  28 H :    0.188312
  29 H :    0.187502
  30 O :   -0.190628
  31 O :   -0.198389
  32 C :    0.187484
  33 C :   -0.376502
  34 H :    0.166032
  35 H :    0.173508
  36 H :    0.162233
  37 H :    0.183335
  38 H :    0.183016

  Mayer bond orders larger than 0.100000
B(  0-Ir,  1-C ) :   0.5281 B(  0-Ir,  2-C ) :   0.4083 B(  0-Ir,  3-C ) :   0.4701
B(  0-Ir,  4-C ) :   0.3824 B(  0-Ir,  5-C ) :   0.4587 B(  0-Ir,  6-N ) :   0.4909
B(  0-Ir, 30-O ) :   0.4174 B(  0-Ir, 31-O ) :   0.5682 B(  1-C ,  2-C ) :   1.1388
B(  1-C ,  4-C ) :   1.1529 B(  1-C , 27-H ) :   0.9151 B(  2-C ,  5-C ) :   1.2391
B(  2-C , 28-H ) :   0.9078 B(  3-C ,  4-C ) :   1.2170 B(  3-C ,  5-C ) :   1.1158
B(  3-C , 37-H ) :   0.9120 B(  4-C , 38-H ) :   0.9126 B(  5-C , 29-H ) :   0.9026
B(  6-N ,  7-C ) :   0.8678 B(  6-N , 17-C ) :   1.6547 B(  7-C ,  8-C ) :   0.9836
B(  7-C , 12-C ) :   0.9827 B(  7-C , 13-H ) :   0.8877 B(  8-C ,  9-H ) :   0.9086
B(  8-C , 10-H ) :   0.9163 B(  8-C , 11-H ) :   0.9088 B( 12-C , 14-H ) :   0.9074
B( 12-C , 15-H ) :   0.9144 B( 12-C , 16-H ) :   0.9177 B( 17-C , 18-C ) :   1.1005
B( 17-C , 19-H ) :   0.8796 B( 18-C , 20-C ) :   1.4313 B( 18-C , 22-S ) :   1.1762
B( 20-C , 21-C ) :   1.3250 B( 20-C , 24-H ) :   0.8348 B( 21-C , 23-C ) :   1.5049
B( 21-C , 25-H ) :   0.9058 B( 22-S , 23-C ) :   1.2351 B( 23-C , 26-H ) :   0.8941
B( 30-O , 32-C ) :   1.5233 B( 31-O , 32-C ) :   1.3341 B( 32-C , 33-C ) :   0.9531
B( 33-C , 34-H ) :   0.8993 B( 33-C , 35-H ) :   0.8923 B( 33-C , 36-H ) :   0.9013

Dispersion correction           -0.029549073
FINAL SINGLE POINT ENERGY     -1288.368617703728
Dispersion correction            ... done

DIPOLE MOMENT
-------------
                                X             Y             Z
Electronic contribution:     24.85137     -60.80122     126.56512
Nuclear contribution   :    -24.95970      60.06852    -126.94220
                        -----------------------------------------
Total Dipole Moment    :     -0.10833      -0.73270      -0.37709
                        -----------------------------------------
Magnitude (a.u.)       :      0.83113
Magnitude (Debye)      :      2.11257

Rotational constants in cm-1:     0.011324     0.007647     0.006884
Rotational constants in MHz :   339.472759   229.239388   206.384484

                             ****ORCA TERMINATED NORMALLY****
TOTAL RUN TIME: 0 days 0 hours 15 minutes 11 seconds 767 msec
