                         Program Version 5.0.3 -  RELEASE  -
|  1> ! EnGrad PBEh-3c
|  2> %output
|  3> xyzfile=True
|  4> end
|  5> %scf
|  6> maxiter 250
|  7> end
|  8> %output
|  9> Print[P_Hirshfeld] = 1
| 10> end
| 11> % maxcore
| 12> 4000
| 13> *xyz 1 1
| 14> Ir   0.44022354  -0.66387580   1.03311395
| 15> C   -0.01219632  -2.61115422   1.93545541
| 16> C    1.15606893  -2.06829557   2.56044599
| 17> C    1.58767685  -2.35714795   0.31651620
| 18> C    0.29230292  -2.81914502   0.56345738
| 19> C    2.13126520  -1.90096744   1.57893193
| 20> N   -0.90806679   0.04781705  -0.39432865
| 21> C   -2.34806509   0.17811212   0.00623102
| 22> C   -2.80886867   1.62209254   0.05206795
| 23> H   -3.83682782   1.66069983   0.43256943
| 24> H   -2.80011725   2.08441788  -0.92904416
| 25> H   -2.19969401   2.22208560   0.71816230
| 26> C   -3.26799092  -0.66165583  -0.87349687
| 27> H   -2.40522055  -0.21092844   1.00983101
| 28> H   -4.26863398  -0.67645520  -0.42865276
| 29> H   -3.38200279  -0.25924979  -1.87867927
| 30> H   -2.93229472  -1.69044917  -0.95352202
| 31> C   -0.60923439   0.28530356  -1.62296236
| 32> C    0.68844158   0.20229827  -2.24476026
| 33> H   -1.42667418   0.54603692  -2.28170975
| 34> C    1.99388199   0.35184360  -1.68496186
| 35> C    2.96330578   0.13415619  -2.70771916
| 36> S    0.75867039  -0.05621390  -3.96506789
| 37> C    2.46022026  -0.07799181  -3.95293833
| 38> H    2.25468778   0.84980656  -0.82180716
| 39> H    4.02907090   0.16840079  -2.49953729
| 40> H    3.02055199  -0.24712820  -4.85693026
| 41> H   -0.88610517  -2.97842790   2.44250260
| 42> H    1.25333292  -1.89391163   3.62040128
| 43> H    3.11729348  -1.49706636   1.70581149
| 44> O    1.44757685   1.43944680   0.98912402
| 45> O   -0.24011912   0.93012511   2.20990734
| 46> C    0.60607764   1.81445336   1.81779239
| 47> C    0.57029013   3.22141027   2.35526897
| 48> H    0.75920099   3.93611384   1.55136282
| 49> H    1.37052544   3.35990466   3.08483495
| 50> H   -0.37160362   3.44155666   2.83389488
| 51> H    2.14928836  -2.49440981  -0.58327940
| 52> H   -0.34692553  -3.33167584  -0.13764924
| 53> *
| 54>
| 55>                          ****END OF INPUT****

CARTESIAN COORDINATES (ANGSTROEM)
---------------------------------
  Ir     0.440224   -0.663876    1.033114
  C     -0.012196   -2.611154    1.935455
  C      1.156069   -2.068296    2.560446
  C      1.587677   -2.357148    0.316516
  C      0.292303   -2.819145    0.563457
  C      2.131265   -1.900967    1.578932
  N     -0.908067    0.047817   -0.394329
  C     -2.348065    0.178112    0.006231
  C     -2.808869    1.622093    0.052068
  H     -3.836828    1.660700    0.432569
  H     -2.800117    2.084418   -0.929044
  H     -2.199694    2.222086    0.718162
  C     -3.267991   -0.661656   -0.873497
  H     -2.405221   -0.210928    1.009831
  H     -4.268634   -0.676455   -0.428653
  H     -3.382003   -0.259250   -1.878679
  H     -2.932295   -1.690449   -0.953522
  C     -0.609234    0.285304   -1.622962
  C      0.688442    0.202298   -2.244760
  H     -1.426674    0.546037   -2.281710
  C      1.993882    0.351844   -1.684962
  C      2.963306    0.134156   -2.707719
  S      0.758670   -0.056214   -3.965068
  C      2.460220   -0.077992   -3.952938
  H      2.254688    0.849807   -0.821807
  H      4.029071    0.168401   -2.499537
  H      3.020552   -0.247128   -4.856930
  H     -0.886105   -2.978428    2.442503
  H      1.253333   -1.893912    3.620401
  H      3.117293   -1.497066    1.705811
  O      1.447577    1.439447    0.989124
  O     -0.240119    0.930125    2.209907
  C      0.606078    1.814453    1.817792
  C      0.570290    3.221410    2.355269
  H      0.759201    3.936114    1.551363
  H      1.370525    3.359905    3.084835
  H     -0.371604    3.441557    2.833895
  H      2.149288   -2.494410   -0.583279
  H     -0.346926   -3.331676   -0.137649

 Total Charge           Charge          ....    1
 Multiplicity           Mult            ....    1
 Number of Electrons    NEL             ....  164
 Basis Dimension        Dim             ....  358

ORBITAL ENERGIES
----------------

  NO   OCC          E(Eh)            E(eV)
   0   2.0000     -89.748395     -2442.1780
   1   2.0000     -19.630273      -534.1669
   2   2.0000     -19.627115      -534.0809
   3   2.0000     -14.826742      -403.4562
   4   2.0000     -10.696755      -291.0735
   5   2.0000     -10.652300      -289.8638
   6   2.0000     -10.633657      -289.3565
   7   2.0000     -10.631282      -289.2919
   8   2.0000     -10.629387      -289.2403
   9   2.0000     -10.625149      -289.1250
  10   2.0000     -10.618889      -288.9547
  11   2.0000     -10.616719      -288.8956
  12   2.0000     -10.607112      -288.6342
  13   2.0000     -10.600650      -288.4584
  14   2.0000     -10.583115      -287.9812
  15   2.0000     -10.571296      -287.6596
  16   2.0000     -10.551161      -287.1117
  17   2.0000     -10.548295      -287.0337
  18   2.0000     -10.540711      -286.8273
  19   2.0000      -8.387489      -228.2352
  20   2.0000      -6.277595      -170.8220
  21   2.0000      -6.274086      -170.7266
  22   2.0000      -6.272086      -170.6721
  23   2.0000      -4.028890      -109.6317
  24   2.0000      -2.347938       -63.8906
  25   2.0000      -2.313114       -62.9430
  26   2.0000      -2.310239       -62.8648
  27   2.0000      -1.334467       -36.3127
  28   2.0000      -1.213659       -33.0253
  29   2.0000      -1.190277       -32.3891
  30   2.0000      -1.172941       -31.9173
  31   2.0000      -1.108144       -30.1541
  32   2.0000      -1.009686       -27.4750
  33   2.0000      -0.985313       -26.8117
  34   2.0000      -0.973917       -26.5016
  35   2.0000      -0.957098       -26.0440
  36   2.0000      -0.948604       -25.8128
  37   2.0000      -0.944017       -25.6880
  38   2.0000      -0.891177       -24.2501
  39   2.0000      -0.862914       -23.4811
  40   2.0000      -0.791548       -21.5391
  41   2.0000      -0.785501       -21.3746
  42   2.0000      -0.784138       -21.3375
  43   2.0000      -0.773336       -21.0436
  44   2.0000      -0.764642       -20.8070
  45   2.0000      -0.747729       -20.3467
  46   2.0000      -0.734128       -19.9766
  47   2.0000      -0.713068       -19.4036
  48   2.0000      -0.682818       -18.5804
  49   2.0000      -0.677551       -18.4371
  50   2.0000      -0.672371       -18.2962
  51   2.0000      -0.655219       -17.8294
  52   2.0000      -0.646486       -17.5918
  53   2.0000      -0.641916       -17.4674
  54   2.0000      -0.635564       -17.2946
  55   2.0000      -0.630742       -17.1634
  56   2.0000      -0.617958       -16.8155
  57   2.0000      -0.607432       -16.5291
  58   2.0000      -0.604850       -16.4588
  59   2.0000      -0.603237       -16.4149
  60   2.0000      -0.590398       -16.0655
  61   2.0000      -0.588186       -16.0054
  62   2.0000      -0.572156       -15.5691
  63   2.0000      -0.569309       -15.4917
  64   2.0000      -0.560346       -15.2478
  65   2.0000      -0.559823       -15.2336
  66   2.0000      -0.554896       -15.0995
  67   2.0000      -0.540773       -14.7152
  68   2.0000      -0.533577       -14.5194
  69   2.0000      -0.526716       -14.3327
  70   2.0000      -0.521951       -14.2030
  71   2.0000      -0.518422       -14.1070
  72   2.0000      -0.509177       -13.8554
  73   2.0000      -0.506709       -13.7882
  74   2.0000      -0.494415       -13.4537
  75   2.0000      -0.480699       -13.0805
  76   2.0000      -0.473962       -12.8972
  77   2.0000      -0.456922       -12.4335
  78   2.0000      -0.444066       -12.0836
  79   2.0000      -0.424634       -11.5549
  80   2.0000      -0.414629       -11.2826
  81   2.0000      -0.394261       -10.7284
  82   0.0000      -0.188177        -5.1205
  83   0.0000      -0.176420        -4.8006
  84   0.0000      -0.146865        -3.9964
  85   0.0000      -0.081991        -2.2311
  86   0.0000      -0.076260        -2.0751

MULLIKEN ATOMIC CHARGES
-----------------------
   0 Ir:    0.602415
   1 C :   -0.277445
   2 C :   -0.212503
   3 C :   -0.289772
   4 C :   -0.160293
   5 C :   -0.190018
   6 N :   -0.469554
   7 C :   -0.149125
   8 C :   -0.627755
   9 H :    0.250906
  10 H :    0.221024
  11 H :    0.254214
  12 C :   -0.651513
  13 H :    0.275103
  14 H :    0.261047
  15 H :    0.225917
  16 H :    0.239598
  17 C :    0.081998
  18 C :   -0.268917
  19 H :    0.269422
  20 C :   -0.207508
  21 C :   -0.165051
  22 S :    0.303313
  23 C :   -0.405881
  24 H :    0.335086
  25 H :    0.262636
  26 H :    0.295057
  27 H :    0.290002
  28 H :    0.295061
  29 H :    0.297737
  30 O :   -0.466487
  31 O :   -0.504438
  32 C :    0.654384
  33 C :   -0.768390
  34 H :    0.272208
  35 H :    0.279900
  36 H :    0.272739
  37 H :    0.288934
  38 H :    0.285949
Sum of atomic charges:    1.0000000

LOEWDIN ATOMIC CHARGES
----------------------
   0 Ir:   -0.165622
   1 C :   -0.049449
   2 C :   -0.053149
   3 C :   -0.081667
   4 C :   -0.026171
   5 C :   -0.028383
   6 N :   -0.040400
   7 C :   -0.064429
   8 C :   -0.349377
   9 H :    0.150124
  10 H :    0.132288
  11 H :    0.142055
  12 C :   -0.355726
  13 H :    0.152407
  14 H :    0.153384
  15 H :    0.132672
  16 H :    0.135656
  17 C :    0.033589
  18 C :   -0.225390
  19 H :    0.152398
  20 C :   -0.117938
  21 C :   -0.166533
  22 S :    0.454750
  23 C :   -0.256799
  24 H :    0.182440
  25 H :    0.156440
  26 H :    0.168630
  27 H :    0.184764
  28 H :    0.188738
  29 H :    0.188188
  30 O :   -0.197479
  31 O :   -0.198769
  32 C :    0.175211
  33 C :   -0.376241
  34 H :    0.166919
  35 H :    0.174177
  36 H :    0.161584
  37 H :    0.183509
  38 H :    0.183600

  Mayer bond orders larger than 0.100000
B(  0-Ir,  1-C ) :   0.5234 B(  0-Ir,  2-C ) :   0.4092 B(  0-Ir,  3-C ) :   0.4897
B(  0-Ir,  4-C ) :   0.4045 B(  0-Ir,  5-C ) :   0.4495 B(  0-Ir,  6-N ) :   0.4942
B(  0-Ir, 30-O ) :   0.4184 B(  0-Ir, 31-O ) :   0.5531 B(  1-C ,  2-C ) :   1.1361
B(  1-C ,  4-C ) :   1.1585 B(  1-C , 27-H ) :   0.9137 B(  2-C ,  5-C ) :   1.2376
B(  2-C , 28-H ) :   0.9090 B(  3-C ,  4-C ) :   1.1942 B(  3-C ,  5-C ) :   1.1168
B(  3-C , 37-H ) :   0.9125 B(  4-C , 38-H ) :   0.9127 B(  5-C , 29-H ) :   0.9027
B(  6-N ,  7-C ) :   0.8736 B(  6-N , 17-C ) :   1.6419 B(  7-C ,  8-C ) :   0.9828
B(  7-C , 12-C ) :   0.9817 B(  7-C , 13-H ) :   0.8871 B(  8-C ,  9-H ) :   0.9086
B(  8-C , 10-H ) :   0.9167 B(  8-C , 11-H ) :   0.9095 B( 12-C , 14-H ) :   0.9071
B( 12-C , 15-H ) :   0.9145 B( 12-C , 16-H ) :   0.9180 B( 17-C , 18-C ) :   1.1105
B( 17-C , 19-H ) :   0.8803 B( 18-C , 20-C ) :   1.4140 B( 18-C , 22-S ) :   1.1727
B( 20-C , 21-C ) :   1.3241 B( 20-C , 24-H ) :   0.8378 B( 21-C , 23-C ) :   1.4937
B( 21-C , 25-H ) :   0.9039 B( 22-S , 23-C ) :   1.2490 B( 23-C , 26-H ) :   0.8935
B( 30-O , 32-C ) :   1.5186 B( 31-O , 32-C ) :   1.3504 B( 32-C , 33-C ) :   0.9552
B( 33-C , 34-H ) :   0.8995 B( 33-C , 35-H ) :   0.8921 B( 33-C , 36-H ) :   0.9021

Dispersion correction           -0.029581119
FINAL SINGLE POINT ENERGY     -1288.409781732270
Dispersion correction            ... done

DIPOLE MOMENT
-------------
                                X             Y             Z
Electronic contribution:     23.59504     -62.37162     124.85537
Nuclear contribution   :    -23.64455      61.62400    -125.23483
                        -----------------------------------------
Total Dipole Moment    :     -0.04951      -0.74762      -0.37947
                        -----------------------------------------
Magnitude (a.u.)       :      0.83987
Magnitude (Debye)      :      2.13477

Rotational constants in cm-1:     0.011367     0.007664     0.006894
Rotational constants in MHz :   340.764967   229.748027   206.664796

                             ****ORCA TERMINATED NORMALLY****
TOTAL RUN TIME: 0 days 0 hours 14 minutes 33 seconds 109 msec
