                         Program Version 5.0.3 -  RELEASE  -
|  1> ! EnGrad PBEh-3c
|  2> %output
|  3> xyzfile=True
|  4> end
|  5> %scf
|  6> maxiter 250
|  7> end
|  8> %output
|  9> Print[P_Hirshfeld] = 1
| 10> end
| 11> % maxcore
| 12> 4000
| 13> *xyz 1 1
| 14> Ir   0.45703518  -0.64765341   1.04664503
| 15> C   -0.02899453  -2.61974090   1.88745425
| 16> C    1.10239047  -2.07720795   2.57235126
| 17> C    1.64390672  -2.36098910   0.35309067
| 18> C    0.34536314  -2.83261341   0.53464564
| 19> C    2.11879697  -1.89255301   1.63554907
| 20> N   -0.92360251   0.04091061  -0.40743326
| 21> C   -2.36579767   0.16177364   0.01293421
| 22> C   -2.81589970   1.60552886   0.09566909
| 23> H   -3.84267563   1.62790747   0.47037545
| 24> H   -2.81087162   2.09419879  -0.87570260
| 25> H   -2.20940815   2.17969915   0.78785186
| 26> C   -3.28426840  -0.65240598  -0.88767785
| 27> H   -2.41184133  -0.26259614   1.00956713
| 28> H   -4.27901515  -0.67488076  -0.43828412
| 29> H   -3.40826830  -0.21851092  -1.88031069
| 30> H   -2.95378207  -1.68191683  -0.99909490
| 31> C   -0.61449479   0.29231737  -1.63274423
| 32> C    0.71002193   0.21010376  -2.22328377
| 33> H   -1.44953611   0.54740947  -2.29100144
| 34> C    1.98459636   0.36409591  -1.72721158
| 35> C    2.94787695   0.10837478  -2.68323559
| 36> S    0.75032821  -0.04539110  -3.97039739
| 37> C    2.45023801  -0.07361652  -3.94349991
| 38> H    2.22557892   0.83453387  -0.81127712
| 39> H    4.00821164   0.15367282  -2.48131568
| 40> H    3.02068632  -0.23307503  -4.85198095
| 41> H   -0.91197220  -3.01454189   2.36236543
| 42> H    1.14825696  -1.89037204   3.62717184
| 43> H    3.09285888  -1.48227793   1.81333539
| 44> O    1.47545698   1.43293817   0.93879301
| 45> O   -0.21550260   0.95652723   2.18528361
| 46> C    0.63853333   1.82458804   1.77435941
| 47> C    0.59572740   3.23651443   2.32464950
| 48> H    0.76681001   3.95781417   1.52371781
| 49> H    1.40570812   3.38281249   3.04542761
| 50> H   -0.34520040   3.45824547   2.82228861
| 51> H    2.24383555  -2.47425174  -0.52490541
| 52> H   -0.26288249  -3.33552205  -0.19268273
| 53> *
| 54>
| 55>                          ****END OF INPUT****

CARTESIAN COORDINATES (ANGSTROEM)
---------------------------------
  Ir     0.457035   -0.647653    1.046645
  C     -0.028995   -2.619741    1.887454
  C      1.102390   -2.077208    2.572351
  C      1.643907   -2.360989    0.353091
  C      0.345363   -2.832613    0.534646
  C      2.118797   -1.892553    1.635549
  N     -0.923603    0.040911   -0.407433
  C     -2.365798    0.161774    0.012934
  C     -2.815900    1.605529    0.095669
  H     -3.842676    1.627907    0.470375
  H     -2.810872    2.094199   -0.875703
  H     -2.209408    2.179699    0.787852
  C     -3.284268   -0.652406   -0.887678
  H     -2.411841   -0.262596    1.009567
  H     -4.279015   -0.674881   -0.438284
  H     -3.408268   -0.218511   -1.880311
  H     -2.953782   -1.681917   -0.999095
  C     -0.614495    0.292317   -1.632744
  C      0.710022    0.210104   -2.223284
  H     -1.449536    0.547409   -2.291001
  C      1.984596    0.364096   -1.727212
  C      2.947877    0.108375   -2.683236
  S      0.750328   -0.045391   -3.970397
  C      2.450238   -0.073617   -3.943500
  H      2.225579    0.834534   -0.811277
  H      4.008212    0.153673   -2.481316
  H      3.020686   -0.233075   -4.851981
  H     -0.911972   -3.014542    2.362365
  H      1.148257   -1.890372    3.627172
  H      3.092859   -1.482278    1.813335
  O      1.475457    1.432938    0.938793
  O     -0.215503    0.956527    2.185284
  C      0.638533    1.824588    1.774359
  C      0.595727    3.236514    2.324650
  H      0.766810    3.957814    1.523718
  H      1.405708    3.382812    3.045428
  H     -0.345200    3.458245    2.822289
  H      2.243836   -2.474252   -0.524905
  H     -0.262882   -3.335522   -0.192683

 Total Charge           Charge          ....    1
 Multiplicity           Mult            ....    1
 Number of Electrons    NEL             ....  164
 Basis Dimension        Dim             ....  358

ORBITAL ENERGIES
----------------

  NO   OCC          E(Eh)            E(eV)
   0   2.0000     -89.744503     -2442.0721
   1   2.0000     -19.635971      -534.3219
   2   2.0000     -19.632432      -534.2256
   3   2.0000     -14.824950      -403.4074
   4   2.0000     -10.702166      -291.2208
   5   2.0000     -10.653851      -289.9060
   6   2.0000     -10.634581      -289.3817
   7   2.0000     -10.629392      -289.2405
   8   2.0000     -10.627375      -289.1856
   9   2.0000     -10.624762      -289.1145
  10   2.0000     -10.620479      -288.9979
  11   2.0000     -10.611491      -288.7533
  12   2.0000     -10.608104      -288.6612
  13   2.0000     -10.600101      -288.4434
  14   2.0000     -10.574025      -287.7338
  15   2.0000     -10.565411      -287.4994
  16   2.0000     -10.554628      -287.2060
  17   2.0000     -10.548024      -287.0263
  18   2.0000     -10.540753      -286.8285
  19   2.0000      -8.383466      -228.1257
  20   2.0000      -6.273563      -170.7123
  21   2.0000      -6.270120      -170.6187
  22   2.0000      -6.268000      -170.5609
  23   2.0000      -4.028478      -109.6204
  24   2.0000      -2.347307       -63.8735
  25   2.0000      -2.312432       -62.9245
  26   2.0000      -2.309909       -62.8558
  27   2.0000      -1.337033       -36.3825
  28   2.0000      -1.218371       -33.1536
  29   2.0000      -1.186213       -32.2785
  30   2.0000      -1.173301       -31.9271
  31   2.0000      -1.111160       -30.2362
  32   2.0000      -1.009143       -27.4602
  33   2.0000      -0.985628       -26.8203
  34   2.0000      -0.973484       -26.4899
  35   2.0000      -0.955752       -26.0073
  36   2.0000      -0.950132       -25.8544
  37   2.0000      -0.943683       -25.6789
  38   2.0000      -0.891337       -24.2545
  39   2.0000      -0.859545       -23.3894
  40   2.0000      -0.787891       -21.4396
  41   2.0000      -0.785613       -21.3776
  42   2.0000      -0.784335       -21.3428
  43   2.0000      -0.773472       -21.0473
  44   2.0000      -0.765519       -20.8308
  45   2.0000      -0.750221       -20.4146
  46   2.0000      -0.730908       -19.8890
  47   2.0000      -0.715261       -19.4632
  48   2.0000      -0.681746       -18.5512
  49   2.0000      -0.679095       -18.4791
  50   2.0000      -0.675530       -18.3821
  51   2.0000      -0.656685       -17.8693
  52   2.0000      -0.645972       -17.5778
  53   2.0000      -0.641723       -17.4622
  54   2.0000      -0.635359       -17.2890
  55   2.0000      -0.630527       -17.1575
  56   2.0000      -0.616182       -16.7672
  57   2.0000      -0.607719       -16.5369
  58   2.0000      -0.605711       -16.4822
  59   2.0000      -0.602452       -16.3936
  60   2.0000      -0.588421       -16.0118
  61   2.0000      -0.585009       -15.9189
  62   2.0000      -0.572174       -15.5697
  63   2.0000      -0.567778       -15.4500
  64   2.0000      -0.561799       -15.2873
  65   2.0000      -0.559686       -15.2298
  66   2.0000      -0.556872       -15.1533
  67   2.0000      -0.540005       -14.6943
  68   2.0000      -0.533541       -14.5184
  69   2.0000      -0.527166       -14.3449
  70   2.0000      -0.520933       -14.1753
  71   2.0000      -0.518728       -14.1153
  72   2.0000      -0.509377       -13.8609
  73   2.0000      -0.506698       -13.7880
  74   2.0000      -0.498025       -13.5519
  75   2.0000      -0.481103       -13.0915
  76   2.0000      -0.475574       -12.9410
  77   2.0000      -0.457759       -12.4562
  78   2.0000      -0.442231       -12.0337
  79   2.0000      -0.425202       -11.5703
  80   2.0000      -0.415800       -11.3145
  81   2.0000      -0.393596       -10.7103
  82   0.0000      -0.186782        -5.0826
  83   0.0000      -0.171625        -4.6702
  84   0.0000      -0.151784        -4.1302
  85   0.0000      -0.084482        -2.2989
  86   0.0000      -0.079233        -2.1560

MULLIKEN ATOMIC CHARGES
-----------------------
   0 Ir:    0.601750
   1 C :   -0.294593
   2 C :   -0.206138
   3 C :   -0.277736
   4 C :   -0.145441
   5 C :   -0.210941
   6 N :   -0.459512
   7 C :   -0.144217
   8 C :   -0.627348
   9 H :    0.250692
  10 H :    0.221252
  11 H :    0.254778
  12 C :   -0.653718
  13 H :    0.271801
  14 H :    0.261412
  15 H :    0.225905
  16 H :    0.240266
  17 C :    0.061179
  18 C :   -0.251417
  19 H :    0.269830
  20 C :   -0.202779
  21 C :   -0.160584
  22 S :    0.288744
  23 C :   -0.414094
  24 H :    0.338924
  25 H :    0.263306
  26 H :    0.293690
  27 H :    0.288131
  28 H :    0.296575
  29 H :    0.298290
  30 O :   -0.470900
  31 O :   -0.499809
  32 C :    0.658891
  33 C :   -0.769569
  34 H :    0.272851
  35 H :    0.280194
  36 H :    0.273829
  37 H :    0.289913
  38 H :    0.286592
Sum of atomic charges:    1.0000000

LOEWDIN ATOMIC CHARGES
----------------------
   0 Ir:   -0.162028
   1 C :   -0.059735
   2 C :   -0.049473
   3 C :   -0.076878
   4 C :   -0.020357
   5 C :   -0.037875
   6 N :   -0.045838
   7 C :   -0.062622
   8 C :   -0.349534
   9 H :    0.149553
  10 H :    0.132987
  11 H :    0.142748
  12 C :   -0.356862
  13 H :    0.151295
  14 H :    0.153128
  15 H :    0.132778
  16 H :    0.136365
  17 C :    0.033365
  18 C :   -0.218162
  19 H :    0.153326
  20 C :   -0.122655
  21 C :   -0.171528
  22 S :    0.440089
  23 C :   -0.250768
  24 H :    0.186209
  25 H :    0.156616
  26 H :    0.167601
  27 H :    0.183867
  28 H :    0.188402
  29 H :    0.187830
  30 O :   -0.199051
  31 O :   -0.189929
  32 C :    0.184129
  33 C :   -0.377015
  34 H :    0.166446
  35 H :    0.174002
  36 H :    0.162796
  37 H :    0.183663
  38 H :    0.183115

  Mayer bond orders larger than 0.100000
B(  0-Ir,  1-C ) :   0.5252 B(  0-Ir,  2-C ) :   0.4127 B(  0-Ir,  3-C ) :   0.4700
B(  0-Ir,  4-C ) :   0.3837 B(  0-Ir,  5-C ) :   0.4588 B(  0-Ir,  6-N ) :   0.4893
B(  0-Ir, 30-O ) :   0.4168 B(  0-Ir, 31-O ) :   0.5631 B(  1-C ,  2-C ) :   1.1390
B(  1-C ,  4-C ) :   1.1526 B(  1-C , 27-H ) :   0.9156 B(  2-C ,  5-C ) :   1.2362
B(  2-C , 28-H ) :   0.9073 B(  3-C ,  4-C ) :   1.2175 B(  3-C ,  5-C ) :   1.1172
B(  3-C , 37-H ) :   0.9115 B(  4-C , 38-H ) :   0.9121 B(  5-C , 29-H ) :   0.9025
B(  6-N ,  7-C ) :   0.8699 B(  6-N , 17-C ) :   1.6568 B(  7-C ,  8-C ) :   0.9823
B(  7-C , 12-C ) :   0.9826 B(  7-C , 13-H ) :   0.8883 B(  8-C ,  9-H ) :   0.9078
B(  8-C , 10-H ) :   0.9170 B(  8-C , 11-H ) :   0.9089 B( 12-C , 14-H ) :   0.9064
B( 12-C , 15-H ) :   0.9143 B( 12-C , 16-H ) :   0.9183 B( 17-C , 18-C ) :   1.0994
B( 17-C , 19-H ) :   0.8795 B( 18-C , 20-C ) :   1.4279 B( 18-C , 22-S ) :   1.1585
B( 20-C , 21-C ) :   1.3299 B( 20-C , 24-H ) :   0.8307 B( 21-C , 23-C ) :   1.4799
B( 21-C , 25-H ) :   0.9039 B( 22-S , 23-C ) :   1.2620 B( 23-C , 26-H ) :   0.8937
B( 30-O , 32-C ) :   1.5124 B( 31-O , 32-C ) :   1.3479 B( 32-C , 33-C ) :   0.9531
B( 33-C , 34-H ) :   0.8983 B( 33-C , 35-H ) :   0.8917 B( 33-C , 36-H ) :   0.9021

Dispersion correction           -0.029475217
FINAL SINGLE POINT ENERGY     -1288.411516406114
Dispersion correction            ... done

DIPOLE MOMENT
-------------
                                X             Y             Z
Electronic contribution:     25.05487     -60.86874     126.59222
Nuclear contribution   :    -25.15345      60.14386    -126.87814
                        -----------------------------------------
Total Dipole Moment    :     -0.09857      -0.72488      -0.28591
                        -----------------------------------------
Magnitude (a.u.)       :      0.78544
Magnitude (Debye)      :      1.99642

Rotational constants in cm-1:     0.011315     0.007659     0.006894
Rotational constants in MHz :   339.203579   229.616235   206.670398

                             ****ORCA TERMINATED NORMALLY****
TOTAL RUN TIME: 0 days 0 hours 15 minutes 7 seconds 854 msec
