                         Program Version 5.0.3 -  RELEASE  -
|  1> ! EnGrad PBEh-3c
|  2> %output
|  3> xyzfile=True
|  4> end
|  5> %scf
|  6> maxiter 250
|  7> end
|  8> %output
|  9> Print[P_Hirshfeld] = 1
| 10> end
| 11> % maxcore
| 12> 4000
| 13> *xyz 1 1
| 14> Ir   0.44590683  -0.65839171   1.03768823
| 15> C   -0.01787507  -2.61405701   1.91922829
| 16> C    1.13792256  -2.07130846   2.56447065
| 17> C    1.60668574  -2.35844647   0.32888045
| 18> C    0.31024029  -2.82369810   0.55371737
| 19> C    2.12705023  -1.89812289   1.59807174
| 20> N   -0.91331875   0.04548228  -0.39875875
| 21> C   -2.35405971   0.17258878   0.00849708
| 22> C   -2.81124556   1.61649308   0.06680761
| 23> H   -3.83880471   1.64961414   0.44535001
| 24> H   -2.80375284   2.08772438  -0.91101168
| 25> H   -2.20297794   2.20775657   0.74172133
| 26> C   -3.27349363  -0.65852885  -0.87829085
| 27> H   -2.40745875  -0.22839506   1.00974181
| 28> H   -4.27214341  -0.67592295  -0.43190870
| 29> H   -3.39088203  -0.24547773  -1.87923078
| 30> H   -2.93955867  -1.68756475  -0.96892825
| 31> C   -0.61101270   0.28767463  -1.62626919
| 32> C    0.69573697   0.20493697  -2.23749999
| 33> H   -1.43440281   0.54650092  -2.28485087
| 34> C    1.99074292   0.35598558  -1.69924467
| 35> C    2.95808996   0.12544061  -2.69944233
| 36> S    0.75585026  -0.05255518  -3.96686957
| 37> C    2.45684570  -0.07651271  -3.94974761
| 38> H    2.24484733   0.84464352  -0.81824741
| 39> H    4.02201928   0.16342190  -2.49337735
| 40> H    3.02059740  -0.24237743  -4.85525711
| 41> H   -0.89484969  -2.99063648   2.41541169
| 42> H    1.21781127  -1.89271505   3.62269012
| 43> H    3.10903320  -1.49206703   1.74216068
| 44> O    1.45700192   1.43724652   0.97210928
| 45> O   -0.23179734   0.93905053   2.20158312
| 46> C    0.61704950   1.81787946   1.80310958
| 47> C    0.57888937   3.22651633   2.34491785
| 48> H    0.76177327   3.94344979   1.54201723
| 49> H    1.38241918   3.36764881   3.07151303
| 50> H   -0.36267783   3.44719842   2.82997130
| 51> H    2.18125068  -2.48759524  -0.56354567
| 52> H   -0.31851420  -3.33297608  -0.15625369
| 53> *
| 54>
| 55>                          ****END OF INPUT****

CARTESIAN COORDINATES (ANGSTROEM)
---------------------------------
  Ir     0.445907   -0.658392    1.037688
  C     -0.017875   -2.614057    1.919228
  C      1.137923   -2.071308    2.564471
  C      1.606686   -2.358446    0.328880
  C      0.310240   -2.823698    0.553717
  C      2.127050   -1.898123    1.598072
  N     -0.913319    0.045482   -0.398759
  C     -2.354060    0.172589    0.008497
  C     -2.811246    1.616493    0.066808
  H     -3.838805    1.649614    0.445350
  H     -2.803753    2.087724   -0.911012
  H     -2.202978    2.207757    0.741721
  C     -3.273494   -0.658529   -0.878291
  H     -2.407459   -0.228395    1.009742
  H     -4.272143   -0.675923   -0.431909
  H     -3.390882   -0.245478   -1.879231
  H     -2.939559   -1.687565   -0.968928
  C     -0.611013    0.287675   -1.626269
  C      0.695737    0.204937   -2.237500
  H     -1.434403    0.546501   -2.284851
  C      1.990743    0.355986   -1.699245
  C      2.958090    0.125441   -2.699442
  S      0.755850   -0.052555   -3.966870
  C      2.456846   -0.076513   -3.949748
  H      2.244847    0.844644   -0.818247
  H      4.022019    0.163422   -2.493377
  H      3.020597   -0.242377   -4.855257
  H     -0.894850   -2.990636    2.415412
  H      1.217811   -1.892715    3.622690
  H      3.109033   -1.492067    1.742161
  O      1.457002    1.437247    0.972109
  O     -0.231797    0.939051    2.201583
  C      0.617050    1.817879    1.803110
  C      0.578889    3.226516    2.344918
  H      0.761773    3.943450    1.542017
  H      1.382419    3.367649    3.071513
  H     -0.362678    3.447198    2.829971
  H      2.181251   -2.487595   -0.563546
  H     -0.318514   -3.332976   -0.156254

 Total Charge           Charge          ....    1
 Multiplicity           Mult            ....    1
 Number of Electrons    NEL             ....  164
 Basis Dimension        Dim             ....  358

ORBITAL ENERGIES
----------------

  NO   OCC          E(Eh)            E(eV)
   0   2.0000     -89.747089     -2442.1425
   1   2.0000     -19.632208      -534.2195
   2   2.0000     -19.628941      -534.1306
   3   2.0000     -14.826129      -403.4395
   4   2.0000     -10.698588      -291.1234
   5   2.0000     -10.652784      -289.8770
   6   2.0000     -10.633916      -289.3636
   7   2.0000     -10.630508      -289.2708
   8   2.0000     -10.628599      -289.2189
   9   2.0000     -10.624895      -289.1181
  10   2.0000     -10.619335      -288.9668
  11   2.0000     -10.614904      -288.8462
  12   2.0000     -10.607408      -288.6422
  13   2.0000     -10.600441      -288.4527
  14   2.0000     -10.580054      -287.8979
  15   2.0000     -10.569294      -287.6051
  16   2.0000     -10.552331      -287.1435
  17   2.0000     -10.548165      -287.0302
  18   2.0000     -10.540684      -286.8266
  19   2.0000      -8.386133      -228.1983
  20   2.0000      -6.276239      -170.7851
  21   2.0000      -6.272750      -170.6902
  22   2.0000      -6.270708      -170.6346
  23   2.0000      -4.028748      -109.6278
  24   2.0000      -2.347720       -63.8847
  25   2.0000      -2.312883       -62.9368
  26   2.0000      -2.310118       -62.8615
  27   2.0000      -1.335364       -36.3371
  28   2.0000      -1.215283       -33.0695
  29   2.0000      -1.188902       -32.3517
  30   2.0000      -1.173299       -31.9271
  31   2.0000      -1.109018       -30.1779
  32   2.0000      -1.009512       -27.4702
  33   2.0000      -0.985509       -26.8171
  34   2.0000      -0.973889       -26.5009
  35   2.0000      -0.956313       -26.0226
  36   2.0000      -0.949485       -25.8368
  37   2.0000      -0.943931       -25.6857
  38   2.0000      -0.891251       -24.2522
  39   2.0000      -0.861738       -23.4491
  40   2.0000      -0.790212       -21.5028
  41   2.0000      -0.785605       -21.3774
  42   2.0000      -0.784330       -21.3427
  43   2.0000      -0.773542       -21.0491
  44   2.0000      -0.764894       -20.8138
  45   2.0000      -0.748289       -20.3620
  46   2.0000      -0.733266       -19.9532
  47   2.0000      -0.713870       -19.4254
  48   2.0000      -0.682292       -18.5661
  49   2.0000      -0.678299       -18.4575
  50   2.0000      -0.673479       -18.3263
  51   2.0000      -0.655690       -17.8422
  52   2.0000      -0.646295       -17.5866
  53   2.0000      -0.641896       -17.4669
  54   2.0000      -0.635482       -17.2924
  55   2.0000      -0.630837       -17.1659
  56   2.0000      -0.617343       -16.7988
  57   2.0000      -0.607547       -16.5322
  58   2.0000      -0.605217       -16.4688
  59   2.0000      -0.602799       -16.4030
  60   2.0000      -0.589821       -16.0499
  61   2.0000      -0.586776       -15.9670
  62   2.0000      -0.572057       -15.5665
  63   2.0000      -0.568771       -15.4770
  64   2.0000      -0.560717       -15.2579
  65   2.0000      -0.560411       -15.2496
  66   2.0000      -0.555879       -15.1262
  67   2.0000      -0.540570       -14.7097
  68   2.0000      -0.533564       -14.5190
  69   2.0000      -0.526939       -14.3387
  70   2.0000      -0.521366       -14.1871
  71   2.0000      -0.518900       -14.1200
  72   2.0000      -0.509272       -13.8580
  73   2.0000      -0.506722       -13.7886
  74   2.0000      -0.495735       -13.4896
  75   2.0000      -0.480897       -13.0859
  76   2.0000      -0.474545       -12.9130
  77   2.0000      -0.457247       -12.4423
  78   2.0000      -0.443422       -12.0661
  79   2.0000      -0.424902       -11.5622
  80   2.0000      -0.414912       -11.2903
  81   2.0000      -0.394179       -10.7262
  82   0.0000      -0.187619        -5.1054
  83   0.0000      -0.174744        -4.7550
  84   0.0000      -0.148513        -4.0413
  85   0.0000      -0.082779        -2.2525
  86   0.0000      -0.077137        -2.0990

MULLIKEN ATOMIC CHARGES
-----------------------
   0 Ir:    0.602129
   1 C :   -0.283539
   2 C :   -0.210407
   3 C :   -0.285791
   4 C :   -0.154806
   5 C :   -0.196869
   6 N :   -0.466249
   7 C :   -0.147473
   8 C :   -0.627576
   9 H :    0.250823
  10 H :    0.221091
  11 H :    0.254401
  12 C :   -0.652270
  13 H :    0.273981
  14 H :    0.261161
  15 H :    0.225938
  16 H :    0.239820
  17 C :    0.074865
  18 C :   -0.263477
  19 H :    0.269617
  20 C :   -0.205801
  21 C :   -0.163162
  22 S :    0.298539
  23 C :   -0.408817
  24 H :    0.336468
  25 H :    0.262950
  26 H :    0.294530
  27 H :    0.289331
  28 H :    0.295526
  29 H :    0.297903
  30 O :   -0.467994
  31 O :   -0.502847
  32 C :    0.655916
  33 C :   -0.768843
  34 H :    0.272431
  35 H :    0.280008
  36 H :    0.273129
  37 H :    0.289229
  38 H :    0.286135
Sum of atomic charges:    1.0000000

LOEWDIN ATOMIC CHARGES
----------------------
   0 Ir:   -0.164228
   1 C :   -0.053083
   2 C :   -0.051921
   3 C :   -0.080084
   4 C :   -0.024056
   5 C :   -0.031575
   6 N :   -0.042234
   7 C :   -0.063832
   8 C :   -0.349408
   9 H :    0.149926
  10 H :    0.132518
  11 H :    0.142272
  12 C :   -0.356107
  13 H :    0.152018
  14 H :    0.153297
  15 H :    0.132709
  16 H :    0.135887
  17 C :    0.033577
  18 C :   -0.223195
  19 H :    0.152669
  20 C :   -0.119255
  21 C :   -0.168264
  22 S :    0.449868
  23 C :   -0.254808
  24 H :    0.183675
  25 H :    0.156492
  26 H :    0.168294
  27 H :    0.184424
  28 H :    0.188576
  29 H :    0.188028
  30 O :   -0.197959
  31 O :   -0.195732
  32 C :    0.178184
  33 C :   -0.376512
  34 H :    0.166761
  35 H :    0.174119
  36 H :    0.161997
  37 H :    0.183533
  38 H :    0.183426

  Mayer bond orders larger than 0.100000
B(  0-Ir,  1-C ) :   0.5241 B(  0-Ir,  2-C ) :   0.4104 B(  0-Ir,  3-C ) :   0.4831
B(  0-Ir,  4-C ) :   0.3972 B(  0-Ir,  5-C ) :   0.4525 B(  0-Ir,  6-N ) :   0.4925
B(  0-Ir, 30-O ) :   0.4180 B(  0-Ir, 31-O ) :   0.5565 B(  1-C ,  2-C ) :   1.1371
B(  1-C ,  4-C ) :   1.1568 B(  1-C , 27-H ) :   0.9144 B(  2-C ,  5-C ) :   1.2374
B(  2-C , 28-H ) :   0.9085 B(  3-C ,  4-C ) :   1.2020 B(  3-C ,  5-C ) :   1.1171
B(  3-C , 37-H ) :   0.9122 B(  4-C , 38-H ) :   0.9126 B(  5-C , 29-H ) :   0.9026
B(  6-N ,  7-C ) :   0.8723 B(  6-N , 17-C ) :   1.6471 B(  7-C ,  8-C ) :   0.9827
B(  7-C , 12-C ) :   0.9820 B(  7-C , 13-H ) :   0.8875 B(  8-C ,  9-H ) :   0.9084
B(  8-C , 10-H ) :   0.9168 B(  8-C , 11-H ) :   0.9093 B( 12-C , 14-H ) :   0.9069
B( 12-C , 15-H ) :   0.9145 B( 12-C , 16-H ) :   0.9181 B( 17-C , 18-C ) :   1.1067
B( 17-C , 19-H ) :   0.8800 B( 18-C , 20-C ) :   1.4191 B( 18-C , 22-S ) :   1.1679
B( 20-C , 21-C ) :   1.3264 B( 20-C , 24-H ) :   0.8355 B( 21-C , 23-C ) :   1.4890
B( 21-C , 25-H ) :   0.9039 B( 22-S , 23-C ) :   1.2534 B( 23-C , 26-H ) :   0.8937
B( 30-O , 32-C ) :   1.5165 B( 31-O , 32-C ) :   1.3496 B( 32-C , 33-C ) :   0.9545
B( 33-C , 34-H ) :   0.8991 B( 33-C , 35-H ) :   0.8920 B( 33-C , 36-H ) :   0.9021

Dispersion correction           -0.029548133
FINAL SINGLE POINT ENERGY     -1288.412055850697
Dispersion correction            ... done

DIPOLE MOMENT
-------------
                                X             Y             Z
Electronic contribution:     24.08875     -61.86381     125.44235
Nuclear contribution   :    -24.15464      61.12363    -125.79036
                        -----------------------------------------
Total Dipole Moment    :     -0.06589      -0.74017      -0.34801
                        -----------------------------------------
Magnitude (a.u.)       :      0.82056
Magnitude (Debye)      :      2.08569

Rotational constants in cm-1:     0.011349     0.007662     0.006894
Rotational constants in MHz :   340.249277   229.715417   206.675841

                             ****ORCA TERMINATED NORMALLY****
TOTAL RUN TIME: 0 days 0 hours 15 minutes 11 seconds 783 msec
