                         Program Version 5.0.3 -  RELEASE  -
|  1> ! EnGrad PBEh-3c
|  2> %output
|  3> xyzfile=True
|  4> end
|  5> %scf
|  6> maxiter 250
|  7> end
|  8> %output
|  9> Print[P_Hirshfeld] = 1
| 10> end
| 11> % maxcore
| 12> 4000
| 13> *xyz 1 1
| 14> Ir   0.46882824  -0.64287525   1.04593768
| 15> C   -0.05426650  -2.63184194   1.83489568
| 16> C    1.03790817  -2.08541440   2.58209090
| 17> C    1.71214956  -2.36173216   0.39925136
| 18> C    0.41067045  -2.84395268   0.50290993
| 19> C    2.10764017  -1.88014980   1.70655269
| 20> N   -0.93681394   0.03388324  -0.41638324
| 21> C   -2.37852322   0.13865369   0.01790894
| 22> C   -2.82528533   1.58475342   0.14909646
| 23> H   -3.85212259   1.58911318   0.51771144
| 24> H   -2.82186784   2.10589963  -0.80823272
| 25> H   -2.22058369   2.12803034   0.87132508
| 26> C   -3.30526703  -0.64143255  -0.90611550
| 27> H   -2.41927184  -0.32396543   1.00480489
| 28> H   -4.29409871  -0.67329690  -0.44931476
| 29> H   -3.43935155  -0.16914613  -1.88120788
| 30> H   -2.97979157  -1.66995376  -1.05491384
| 31> C   -0.62204560   0.29946267  -1.63660404
| 32> C    0.68290565   0.21696479  -2.23640757
| 33> H   -1.46579528   0.54714954  -2.30073168
| 34> C    1.98487599   0.40011978  -1.69419651
| 35> C    2.94895296   0.07945750  -2.69775487
| 36> S    0.74406888  -0.03068070  -3.96454757
| 37> C    2.44502619  -0.07381608  -3.93785127
| 38> H    2.18563178   0.79884155  -0.82254409
| 39> H    3.98766982   0.13386983  -2.45641592
| 40> H    3.01753261  -0.21530283  -4.83964586
| 41> H   -0.94398600  -3.05568902   2.26150679
| 42> H    1.01983835  -1.88613980   3.64155212
| 43> H    3.06563052  -1.46335296   1.94568676
| 44> O    1.49938231   1.43117124   0.89111334
| 45> O   -0.17951048   0.98680347   2.15230975
| 46> C    0.67794351   1.84347872   1.72557053
| 47> C    0.62667268   3.25251855   2.28549940
| 48> H    0.77635358   3.98478995   1.48934306
| 49> H    1.44697211   3.40908141   2.99564592
| 50> H   -0.30822947   3.47414072   2.80427259
| 51> H    2.35905278  -2.44726377  -0.45485756
| 52> H   -0.16198331  -3.34239181  -0.26494364
| 53> *
| 54>
| 55>                          ****END OF INPUT****

CARTESIAN COORDINATES (ANGSTROEM)
---------------------------------
  Ir     0.468828   -0.642875    1.045938
  C     -0.054266   -2.631842    1.834896
  C      1.037908   -2.085414    2.582091
  C      1.712150   -2.361732    0.399251
  C      0.410670   -2.843953    0.502910
  C      2.107640   -1.880150    1.706553
  N     -0.936814    0.033883   -0.416383
  C     -2.378523    0.138654    0.017909
  C     -2.825285    1.584753    0.149096
  H     -3.852123    1.589113    0.517711
  H     -2.821868    2.105900   -0.808233
  H     -2.220584    2.128030    0.871325
  C     -3.305267   -0.641433   -0.906115
  H     -2.419272   -0.323965    1.004805
  H     -4.294099   -0.673297   -0.449315
  H     -3.439352   -0.169146   -1.881208
  H     -2.979792   -1.669954   -1.054914
  C     -0.622046    0.299463   -1.636604
  C      0.682906    0.216965   -2.236408
  H     -1.465795    0.547150   -2.300732
  C      1.984876    0.400120   -1.694197
  C      2.948953    0.079458   -2.697755
  S      0.744069   -0.030681   -3.964548
  C      2.445026   -0.073816   -3.937851
  H      2.185632    0.798842   -0.822544
  H      3.987670    0.133870   -2.456416
  H      3.017533   -0.215303   -4.839646
  H     -0.943986   -3.055689    2.261507
  H      1.019838   -1.886140    3.641552
  H      3.065631   -1.463353    1.945687
  O      1.499382    1.431171    0.891113
  O     -0.179510    0.986803    2.152310
  C      0.677944    1.843479    1.725571
  C      0.626673    3.252519    2.285499
  H      0.776354    3.984790    1.489343
  H      1.446972    3.409081    2.995646
  H     -0.308229    3.474141    2.804273
  H      2.359053   -2.447264   -0.454858
  H     -0.161983   -3.342392   -0.264944

 Total Charge           Charge          ....    1
 Multiplicity           Mult            ....    1
 Number of Electrons    NEL             ....  164
 Basis Dimension        Dim             ....  358

ORBITAL ENERGIES
----------------

  NO   OCC          E(Eh)            E(eV)
   0   2.0000     -89.744772     -2442.0794
   1   2.0000     -19.636267      -534.3300
   2   2.0000     -19.633228      -534.2473
   3   2.0000     -14.823519      -403.3685
   4   2.0000     -10.702669      -291.2344
   5   2.0000     -10.652061      -289.8573
   6   2.0000     -10.635856      -289.4163
   7   2.0000     -10.629341      -289.2391
   8   2.0000     -10.627117      -289.1786
   9   2.0000     -10.626350      -289.1577
  10   2.0000     -10.623804      -289.0884
  11   2.0000     -10.613011      -288.7947
  12   2.0000     -10.608999      -288.6855
  13   2.0000     -10.597818      -288.3813
  14   2.0000     -10.576574      -287.8032
  15   2.0000     -10.566970      -287.5419
  16   2.0000     -10.555911      -287.2409
  17   2.0000     -10.547583      -287.0143
  18   2.0000     -10.540393      -286.8187
  19   2.0000      -8.383905      -228.1376
  20   2.0000      -6.274054      -170.7257
  21   2.0000      -6.270559      -170.6306
  22   2.0000      -6.268393      -170.5716
  23   2.0000      -4.028202      -109.6130
  24   2.0000      -2.346786       -63.8593
  25   2.0000      -2.311834       -62.9082
  26   2.0000      -2.309793       -62.8527
  27   2.0000      -1.339769       -36.4570
  28   2.0000      -1.219692       -33.1895
  29   2.0000      -1.183904       -32.2157
  30   2.0000      -1.171514       -31.8785
  31   2.0000      -1.107074       -30.1250
  32   2.0000      -1.008550       -27.4441
  33   2.0000      -0.984265       -26.7832
  34   2.0000      -0.972825       -26.4719
  35   2.0000      -0.956005       -26.0142
  36   2.0000      -0.948907       -25.8211
  37   2.0000      -0.943255       -25.6673
  38   2.0000      -0.889935       -24.2164
  39   2.0000      -0.859871       -23.3983
  40   2.0000      -0.790011       -21.4973
  41   2.0000      -0.784965       -21.3600
  42   2.0000      -0.784014       -21.3341
  43   2.0000      -0.772250       -21.0140
  44   2.0000      -0.763328       -20.7712
  45   2.0000      -0.753200       -20.4956
  46   2.0000      -0.735246       -20.0071
  47   2.0000      -0.714029       -19.4297
  48   2.0000      -0.681578       -18.5467
  49   2.0000      -0.679166       -18.4810
  50   2.0000      -0.676474       -18.4078
  51   2.0000      -0.657089       -17.8803
  52   2.0000      -0.644370       -17.5342
  53   2.0000      -0.640141       -17.4191
  54   2.0000      -0.635903       -17.3038
  55   2.0000      -0.629322       -17.1247
  56   2.0000      -0.614759       -16.7285
  57   2.0000      -0.607127       -16.5208
  58   2.0000      -0.604881       -16.4596
  59   2.0000      -0.601572       -16.3696
  60   2.0000      -0.592843       -16.1321
  61   2.0000      -0.585903       -15.9432
  62   2.0000      -0.572697       -15.5839
  63   2.0000      -0.569241       -15.4898
  64   2.0000      -0.561457       -15.2780
  65   2.0000      -0.558261       -15.1910
  66   2.0000      -0.552608       -15.0372
  67   2.0000      -0.539706       -14.6861
  68   2.0000      -0.532492       -14.4898
  69   2.0000      -0.527135       -14.3441
  70   2.0000      -0.520973       -14.1764
  71   2.0000      -0.519711       -14.1420
  72   2.0000      -0.508745       -13.8437
  73   2.0000      -0.506425       -13.7805
  74   2.0000      -0.497668       -13.5422
  75   2.0000      -0.480988       -13.0883
  76   2.0000      -0.476237       -12.9591
  77   2.0000      -0.457600       -12.4519
  78   2.0000      -0.441301       -12.0084
  79   2.0000      -0.424739       -11.5577
  80   2.0000      -0.413336       -11.2475
  81   2.0000      -0.393369       -10.7041
  82   0.0000      -0.188193        -5.1210
  83   0.0000      -0.172449        -4.6926
  84   0.0000      -0.153990        -4.1903
  85   0.0000      -0.081431        -2.2158
  86   0.0000      -0.078566        -2.1379

MULLIKEN ATOMIC CHARGES
-----------------------
   0 Ir:    0.598944
   1 C :   -0.302681
   2 C :   -0.200809
   3 C :   -0.265097
   4 C :   -0.145065
   5 C :   -0.226892
   6 N :   -0.455298
   7 C :   -0.139825
   8 C :   -0.627841
   9 H :    0.249837
  10 H :    0.221688
  11 H :    0.255772
  12 C :   -0.655486
  13 H :    0.268216
  14 H :    0.261541
  15 H :    0.226434
  16 H :    0.240346
  17 C :    0.061521
  18 C :   -0.267546
  19 H :    0.265329
  20 C :   -0.198420
  21 C :   -0.157088
  22 S :    0.300001
  23 C :   -0.415835
  24 H :    0.343101
  25 H :    0.261273
  26 H :    0.293195
  27 H :    0.286664
  28 H :    0.298719
  29 H :    0.298671
  30 O :   -0.469979
  31 O :   -0.499663
  32 C :    0.661020
  33 C :   -0.772848
  34 H :    0.272869
  35 H :    0.279987
  36 H :    0.275477
  37 H :    0.291971
  38 H :    0.287797
Sum of atomic charges:    1.0000000

LOEWDIN ATOMIC CHARGES
----------------------
   0 Ir:   -0.158777
   1 C :   -0.065391
   2 C :   -0.043443
   3 C :   -0.069520
   4 C :   -0.020557
   5 C :   -0.047495
   6 N :   -0.048479
   7 C :   -0.060277
   8 C :   -0.350173
   9 H :    0.148566
  10 H :    0.133518
  11 H :    0.143621
  12 C :   -0.358020
  13 H :    0.150280
  14 H :    0.152963
  15 H :    0.133050
  16 H :    0.136739
  17 C :    0.029884
  18 C :   -0.224538
  19 H :    0.151906
  20 C :   -0.107451
  21 C :   -0.168897
  22 S :    0.447267
  23 C :   -0.253435
  24 H :    0.170124
  25 H :    0.154944
  26 H :    0.167964
  27 H :    0.183270
  28 H :    0.189341
  29 H :    0.187957
  30 O :   -0.194743
  31 O :   -0.187483
  32 C :    0.183001
  33 C :   -0.377939
  34 H :    0.166048
  35 H :    0.173812
  36 H :    0.163901
  37 H :    0.184739
  38 H :    0.183721

  Mayer bond orders larger than 0.100000
B(  0-Ir,  1-C ) :   0.5330 B(  0-Ir,  2-C ) :   0.4134 B(  0-Ir,  3-C ) :   0.4543
B(  0-Ir,  4-C ) :   0.3715 B(  0-Ir,  5-C ) :   0.4659 B(  0-Ir,  6-N ) :   0.4870
B(  0-Ir, 30-O ) :   0.4090 B(  0-Ir, 31-O ) :   0.5738 B(  1-C ,  2-C ) :   1.1394
B(  1-C ,  4-C ) :   1.1403 B(  1-C , 27-H ) :   0.9177 B(  2-C ,  5-C ) :   1.2353
B(  2-C , 28-H ) :   0.9048 B(  3-C ,  4-C ) :   1.2400 B(  3-C ,  5-C ) :   1.1123
B(  3-C , 37-H ) :   0.9089 B(  4-C , 38-H ) :   0.9105 B(  5-C , 29-H ) :   0.9027
B(  6-N ,  7-C ) :   0.8698 B(  6-N , 17-C ) :   1.6574 B(  7-C ,  8-C ) :   0.9804
B(  7-C , 12-C ) :   0.9827 B(  7-C , 13-H ) :   0.8896 B(  8-C ,  9-H ) :   0.9074
B(  8-C , 10-H ) :   0.9172 B(  8-C , 11-H ) :   0.9078 B( 12-C , 14-H ) :   0.9059
B( 12-C , 15-H ) :   0.9142 B( 12-C , 16-H ) :   0.9187 B( 17-C , 18-C ) :   1.1010
B( 17-C , 19-H ) :   0.8810 B( 18-C , 20-C ) :   1.4305 B( 18-C , 22-S ) :   1.1637
B( 20-C , 21-C ) :   1.3178 B( 20-C , 24-H ) :   0.8268 B( 21-C , 23-C ) :   1.4947
B( 21-C , 25-H ) :   0.9051 B( 22-S , 23-C ) :   1.2481 B( 23-C , 26-H ) :   0.8955
B( 30-O , 32-C ) :   1.5218 B( 31-O , 32-C ) :   1.3387 B( 32-C , 33-C ) :   0.9513
B( 33-C , 34-H ) :   0.8977 B( 33-C , 35-H ) :   0.8916 B( 33-C , 36-H ) :   0.9020

Dispersion correction           -0.029453432
FINAL SINGLE POINT ENERGY     -1288.397980354493
Dispersion correction            ... done

DIPOLE MOMENT
-------------
                                X             Y             Z
Electronic contribution:     26.03599     -60.60712     126.79566
Nuclear contribution   :    -26.13788      59.87584    -127.04797
                        -----------------------------------------
Total Dipole Moment    :     -0.10189      -0.73128      -0.25231
                        -----------------------------------------
Magnitude (a.u.)       :      0.78027
Magnitude (Debye)      :      1.98328

Rotational constants in cm-1:     0.011236     0.007666     0.006908
Rotational constants in MHz :   336.835869   229.808144   207.085768

                             ****ORCA TERMINATED NORMALLY****
TOTAL RUN TIME: 0 days 0 hours 15 minutes 5 seconds 542 msec
