                         Program Version 5.0.3 -  RELEASE  -
|  1> ! EnGrad PBEh-3c
|  2> %output
|  3> xyzfile=True
|  4> end
|  5> %scf
|  6> maxiter 250
|  7> end
|  8> %output
|  9> Print[P_Hirshfeld] = 1
| 10> end
| 11> % maxcore
| 12> 4000
| 13> *xyz 1 1
| 14> Ir   0.45337060  -0.65333918   1.04037445
| 15> C   -0.02972500  -2.61984821   1.89176755
| 16> C    1.10535545  -2.07590170   2.57020823
| 17> C    1.64102732  -2.35951637   0.35179493
| 18> C    0.34294279  -2.83029348   0.53717324
| 19> C    2.12072984  -1.89227041   1.63339576
| 20> N   -0.92096935   0.04170535  -0.40449771
| 21> C   -2.36202562   0.16153869   0.01156181
| 22> C   -2.81581725   1.60615788   0.09360285
| 23> H   -3.84314134   1.62991356   0.46891264
| 24> H   -2.80965152   2.09364269  -0.87754436
| 25> H   -2.20871080   2.18179578   0.78392345
| 26> C   -3.28383982  -0.65296188  -0.88735123
| 27> H   -2.41130538  -0.25951509   1.00813423
| 28> H   -4.27929258  -0.67506785  -0.43757654
| 29> H   -3.40666488  -0.22062231  -1.87987457
| 30> H   -2.95265948  -1.68183019  -0.99692724
| 31> C   -0.61460528   0.29151310  -1.62963447
| 32> C    0.69155878   0.20885352  -2.23714427
| 33> H   -1.44462496   0.54671213  -2.29002205
| 34> C    1.98883250   0.37035674  -1.69760087
| 35> C    2.95511473   0.11046739  -2.69889285
| 36> S    0.75201396  -0.04543232  -3.96611347
| 37> C    2.45299698  -0.07563462  -3.94587387
| 38> H    2.22556531   0.82972929  -0.81964651
| 39> H    4.01083427   0.15379903  -2.48134181
| 40> H    3.01959943  -0.23356128  -4.85017371
| 41> H   -0.91084967  -3.01181916   2.36529652
| 42> H    1.15334649  -1.89057399   3.62883204
| 43> H    3.09490023  -1.48271704   1.80843370
| 44> O    1.47080200   1.43526826   0.94573504
| 45> O   -0.21477147   0.95460004   2.18553852
| 46> C    0.63687807   1.82621520   1.77786098
| 47> C    0.59444878   3.23498328   2.32556976
| 48> H    0.76652097   3.95691115   1.52486525
| 49> H    1.40343918   3.38114027   3.04680886
| 50> H   -0.34494813   3.45597149   2.82160317
| 51> H    2.23914735  -2.47446233  -0.52815419
| 52> H   -0.26754395  -3.33604207  -0.19164577
| 53> *
| 54>
| 55>                          ****END OF INPUT****

CARTESIAN COORDINATES (ANGSTROEM)
---------------------------------
  Ir     0.453371   -0.653339    1.040374
  C     -0.029725   -2.619848    1.891768
  C      1.105355   -2.075902    2.570208
  C      1.641027   -2.359516    0.351795
  C      0.342943   -2.830293    0.537173
  C      2.120730   -1.892270    1.633396
  N     -0.920969    0.041705   -0.404498
  C     -2.362026    0.161539    0.011562
  C     -2.815817    1.606158    0.093603
  H     -3.843141    1.629914    0.468913
  H     -2.809652    2.093643   -0.877544
  H     -2.208711    2.181796    0.783923
  C     -3.283840   -0.652962   -0.887351
  H     -2.411305   -0.259515    1.008134
  H     -4.279293   -0.675068   -0.437577
  H     -3.406665   -0.220622   -1.879875
  H     -2.952659   -1.681830   -0.996927
  C     -0.614605    0.291513   -1.629634
  C      0.691559    0.208854   -2.237144
  H     -1.444625    0.546712   -2.290022
  C      1.988833    0.370357   -1.697601
  C      2.955115    0.110467   -2.698893
  S      0.752014   -0.045432   -3.966113
  C      2.452997   -0.075635   -3.945874
  H      2.225565    0.829729   -0.819647
  H      4.010834    0.153799   -2.481342
  H      3.019599   -0.233561   -4.850174
  H     -0.910850   -3.011819    2.365297
  H      1.153346   -1.890574    3.628832
  H      3.094900   -1.482717    1.808434
  O      1.470802    1.435268    0.945735
  O     -0.214771    0.954600    2.185539
  C      0.636878    1.826215    1.777861
  C      0.594449    3.234983    2.325570
  H      0.766521    3.956911    1.524865
  H      1.403439    3.381140    3.046809
  H     -0.344948    3.455971    2.821603
  H      2.239147   -2.474462   -0.528154
  H     -0.267544   -3.336042   -0.191646

 Total Charge           Charge          ....    1
 Multiplicity           Mult            ....    1
 Number of Electrons    NEL             ....  164
 Basis Dimension        Dim             ....  358

ORBITAL ENERGIES
----------------

  NO   OCC          E(Eh)            E(eV)
   0   2.0000     -89.746339     -2442.1220
   1   2.0000     -19.633557      -534.2562
   2   2.0000     -19.630400      -534.1704
   3   2.0000     -14.825270      -403.4161
   4   2.0000     -10.699931      -291.1599
   5   2.0000     -10.652554      -289.8707
   6   2.0000     -10.634336      -289.3750
   7   2.0000     -10.629682      -289.2484
   8   2.0000     -10.627586      -289.1913
   9   2.0000     -10.625153      -289.1251
  10   2.0000     -10.620436      -288.9968
  11   2.0000     -10.614266      -288.8289
  12   2.0000     -10.607819      -288.6534
  13   2.0000     -10.599560      -288.4287
  14   2.0000     -10.578822      -287.8644
  15   2.0000     -10.568411      -287.5811
  16   2.0000     -10.553477      -287.1747
  17   2.0000     -10.547865      -287.0220
  18   2.0000     -10.540464      -286.8206
  19   2.0000      -8.385409      -228.1786
  20   2.0000      -6.275528      -170.7658
  21   2.0000      -6.272038      -170.6708
  22   2.0000      -6.269956      -170.6142
  23   2.0000      -4.028574      -109.6231
  24   2.0000      -2.347450       -63.8774
  25   2.0000      -2.312546       -62.9276
  26   2.0000      -2.310001       -62.8583
  27   2.0000      -1.336926       -36.3796
  28   2.0000      -1.216802       -33.1109
  29   2.0000      -1.187354       -32.3095
  30   2.0000      -1.173493       -31.9324
  31   2.0000      -1.108424       -30.1618
  32   2.0000      -1.009306       -27.4646
  33   2.0000      -0.985478       -26.8162
  34   2.0000      -0.973930       -26.5020
  35   2.0000      -0.956246       -26.0208
  36   2.0000      -0.949271       -25.8310
  37   2.0000      -0.943773       -25.6814
  38   2.0000      -0.890920       -24.2432
  39   2.0000      -0.861111       -23.4320
  40   2.0000      -0.790086       -21.4993
  41   2.0000      -0.785644       -21.3785
  42   2.0000      -0.784458       -21.3462
  43   2.0000      -0.773581       -21.0502
  44   2.0000      -0.764092       -20.7920
  45   2.0000      -0.750260       -20.4156
  46   2.0000      -0.733820       -19.9683
  47   2.0000      -0.714221       -19.4349
  48   2.0000      -0.681752       -18.5514
  49   2.0000      -0.679039       -18.4776
  50   2.0000      -0.674563       -18.3558
  51   2.0000      -0.656196       -17.8560
  52   2.0000      -0.645769       -17.5723
  53   2.0000      -0.641589       -17.4585
  54   2.0000      -0.635832       -17.3019
  55   2.0000      -0.630647       -17.1608
  56   2.0000      -0.616569       -16.7777
  57   2.0000      -0.607514       -16.5313
  58   2.0000      -0.605410       -16.4740
  59   2.0000      -0.602381       -16.3916
  60   2.0000      -0.590424       -16.0663
  61   2.0000      -0.587032       -15.9740
  62   2.0000      -0.572391       -15.5755
  63   2.0000      -0.569114       -15.4864
  64   2.0000      -0.561051       -15.2670
  65   2.0000      -0.559696       -15.2301
  66   2.0000      -0.555081       -15.1045
  67   2.0000      -0.540330       -14.7031
  68   2.0000      -0.533264       -14.5109
  69   2.0000      -0.527162       -14.3448
  70   2.0000      -0.521324       -14.1859
  71   2.0000      -0.519278       -14.1303
  72   2.0000      -0.509166       -13.8551
  73   2.0000      -0.506518       -13.7831
  74   2.0000      -0.496656       -13.5147
  75   2.0000      -0.481074       -13.0907
  76   2.0000      -0.475186       -12.9305
  77   2.0000      -0.457426       -12.4472
  78   2.0000      -0.442707       -12.0467
  79   2.0000      -0.424907       -11.5623
  80   2.0000      -0.414418       -11.2769
  81   2.0000      -0.393958       -10.7201
  82   0.0000      -0.187665        -5.1066
  83   0.0000      -0.173916        -4.7325
  84   0.0000      -0.150304        -4.0900
  85   0.0000      -0.082148        -2.2354
  86   0.0000      -0.077580        -2.1111

MULLIKEN ATOMIC CHARGES
-----------------------
   0 Ir:    0.600848
   1 C :   -0.290535
   2 C :   -0.207189
   3 C :   -0.279285
   4 C :   -0.150425
   5 C :   -0.206174
   6 N :   -0.462881
   7 C :   -0.145068
   8 C :   -0.627538
   9 H :    0.250483
  10 H :    0.221272
  11 H :    0.254826
  12 C :   -0.653351
  13 H :    0.272125
  14 H :    0.261271
  15 H :    0.226164
  16 H :    0.240004
  17 C :    0.070293
  18 C :   -0.265488
  19 H :    0.268322
  20 C :   -0.203170
  21 C :   -0.161185
  22 S :    0.298909
  23 C :   -0.411521
  24 H :    0.339684
  25 H :    0.262606
  26 H :    0.293922
  27 H :    0.288335
  28 H :    0.296480
  29 H :    0.298126
  30 O :   -0.468638
  31 O :   -0.501773
  32 C :    0.657625
  33 C :   -0.770261
  34 H :    0.272598
  35 H :    0.280030
  36 H :    0.273931
  37 H :    0.290040
  38 H :    0.286586
Sum of atomic charges:    1.0000000

LOEWDIN ATOMIC CHARGES
----------------------
   0 Ir:   -0.161970
   1 C :   -0.057551
   2 C :   -0.049102
   3 C :   -0.076784
   4 C :   -0.022398
   5 C :   -0.036733
   6 N :   -0.044327
   7 C :   -0.062720
   8 C :   -0.349592
   9 H :    0.149484
  10 H :    0.132829
  11 H :    0.142654
  12 C :   -0.356716
  13 H :    0.151430
  14 H :    0.153201
  15 H :    0.132811
  16 H :    0.136148
  17 C :    0.032420
  18 C :   -0.223714
  19 H :    0.152442
  20 C :   -0.115396
  21 C :   -0.168484
  22 S :    0.449045
  23 C :   -0.254321
  24 H :    0.179401
  25 H :    0.155971
  26 H :    0.168178
  27 H :    0.183916
  28 H :    0.188673
  29 H :    0.187886
  30 O :   -0.196823
  31 O :   -0.192936
  32 C :    0.179611
  33 C :   -0.376985
  34 H :    0.166532
  35 H :    0.174029
  36 H :    0.162614
  37 H :    0.183825
  38 H :    0.183450

  Mayer bond orders larger than 0.100000
B(  0-Ir,  1-C ) :   0.5271 B(  0-Ir,  2-C ) :   0.4113 B(  0-Ir,  3-C ) :   0.4740
B(  0-Ir,  4-C ) :   0.3882 B(  0-Ir,  5-C ) :   0.4567 B(  0-Ir,  6-N ) :   0.4907
B(  0-Ir, 30-O ) :   0.4151 B(  0-Ir, 31-O ) :   0.5621 B(  1-C ,  2-C ) :   1.1380
B(  1-C ,  4-C ) :   1.1520 B(  1-C , 27-H ) :   0.9156 B(  2-C ,  5-C ) :   1.2375
B(  2-C , 28-H ) :   0.9074 B(  3-C ,  4-C ) :   1.2147 B(  3-C ,  5-C ) :   1.1158
B(  3-C , 37-H ) :   0.9113 B(  4-C , 38-H ) :   0.9120 B(  5-C , 29-H ) :   0.9027
B(  6-N ,  7-C ) :   0.8715 B(  6-N , 17-C ) :   1.6505 B(  7-C ,  8-C ) :   0.9821
B(  7-C , 12-C ) :   0.9825 B(  7-C , 13-H ) :   0.8882 B(  8-C ,  9-H ) :   0.9081
B(  8-C , 10-H ) :   0.9169 B(  8-C , 11-H ) :   0.9088 B( 12-C , 14-H ) :   0.9066
B( 12-C , 15-H ) :   0.9144 B( 12-C , 16-H ) :   0.9183 B( 17-C , 18-C ) :   1.1049
B( 17-C , 19-H ) :   0.8803 B( 18-C , 20-C ) :   1.4229 B( 18-C , 22-S ) :   1.1667
B( 20-C , 21-C ) :   1.3248 B( 20-C , 24-H ) :   0.8318 B( 21-C , 23-C ) :   1.4905
B( 21-C , 25-H ) :   0.9042 B( 22-S , 23-C ) :   1.2519 B( 23-C , 26-H ) :   0.8945
B( 30-O , 32-C ) :   1.5182 B( 31-O , 32-C ) :   1.3460 B( 32-C , 33-C ) :   0.9535
B( 33-C , 34-H ) :   0.8986 B( 33-C , 35-H ) :   0.8919 B( 33-C , 36-H ) :   0.9020

Dispersion correction           -0.029520511
FINAL SINGLE POINT ENERGY     -1288.409237924771
Dispersion correction            ... done

DIPOLE MOMENT
-------------
                                X             Y             Z
Electronic contribution:     24.72251     -61.45519     125.88268
Nuclear contribution   :    -24.80043      60.71732    -126.19987
                        -----------------------------------------
Total Dipole Moment    :     -0.07792      -0.73787      -0.31719
                        -----------------------------------------
Magnitude (a.u.)       :      0.80693
Magnitude (Debye)      :      2.05105

Rotational constants in cm-1:     0.011313     0.007665     0.006899
Rotational constants in MHz :   339.169187   229.777290   206.835421

                             ****ORCA TERMINATED NORMALLY****
TOTAL RUN TIME: 0 days 0 hours 15 minutes 18 seconds 136 msec
