                         Program Version 5.0.3 -  RELEASE  -
|  1> ! EnGrad PBEh-3c
|  2> %output
|  3> xyzfile=True
|  4> end
|  5> %scf
|  6> maxiter 250
|  7> end
|  8> %output
|  9> Print[P_Hirshfeld] = 1
| 10> end
| 11> % maxcore
| 12> 4000
| 13> *xyz 1 1
| 14> Ir   0.47625935  -0.64425921   1.03949688
| 15> C   -0.07469945  -2.64135032   1.76485974
| 16> C    0.95776712  -2.09323003   2.60515658
| 17> C    1.80203338  -2.35788081   0.46031613
| 18> C    0.48008464  -2.86065303   0.46412536
| 19> C    2.09352859  -1.86717892   1.78606725
| 20> N   -0.94737201   0.02547391  -0.42121316
| 21> C   -2.38918296   0.11180507   0.01934832
| 22> C   -2.83737869   1.55731328   0.21667360
| 23> H   -3.86296137   1.54283017   0.57487867
| 24> H   -2.83346008   2.12069084  -0.72637020
| 25> H   -2.23330702   2.06560861   0.97097427
| 26> C   -3.33134004  -0.62777566  -0.92678705
| 27> H   -2.42730818  -0.39803708   0.99784606
| 28> H   -4.31204756  -0.67155376  -0.46269185
| 29> H   -3.47607301  -0.10934750  -1.88243112
| 30> H   -3.01080088  -1.65563634  -1.12311228
| 31> C   -0.64942691   0.30651281  -1.64194962
| 32> C    0.70539096   0.24044892  -2.22297113
| 33> H   -1.48168780   0.54628540  -2.31020997
| 34> C    1.92995879   0.37413580  -1.81158249
| 35> C    2.93487551   0.06957909  -2.65483114
| 36> S    0.73754352  -0.01514114  -3.95536604
| 37> C    2.42774243  -0.07975814  -3.94370545
| 38> H    2.16115316   0.79478660  -0.75188250
| 39> H    3.97344884   0.10771668  -2.43175577
| 40> H    3.01407605  -0.19610635  -4.82981294
| 41> H   -0.99094651  -3.10223831   2.14024914
| 42> H    0.86362540  -1.87967301   3.65571141
| 43> H    3.03688253  -1.43838908   2.10864398
| 44> O    1.54129784   1.42319149   0.82295435
| 45> O   -0.13017453   1.02506819   2.11065456
| 46> C    0.69829211   1.86814094   1.69104015
| 47> C    0.66943988   3.27065975   2.23279890
| 48> H    0.78742471   4.01617212   1.44836630
| 49> H    1.49535253   3.43871082   2.93398189
| 50> H   -0.26354786   3.48980171   2.78082029
| 51> H    2.49751237  -2.41055850  -0.37195251
| 52> H   -0.03681393  -3.34632215  -0.35293182
| 53> *
| 54>
| 55>                          ****END OF INPUT****

CARTESIAN COORDINATES (ANGSTROEM)
---------------------------------
  Ir     0.476259   -0.644259    1.039497
  C     -0.074699   -2.641350    1.764860
  C      0.957767   -2.093230    2.605157
  C      1.802033   -2.357881    0.460316
  C      0.480085   -2.860653    0.464125
  C      2.093529   -1.867179    1.786067
  N     -0.947372    0.025474   -0.421213
  C     -2.389183    0.111805    0.019348
  C     -2.837379    1.557313    0.216674
  H     -3.862961    1.542830    0.574879
  H     -2.833460    2.120691   -0.726370
  H     -2.233307    2.065609    0.970974
  C     -3.331340   -0.627776   -0.926787
  H     -2.427308   -0.398037    0.997846
  H     -4.312048   -0.671554   -0.462692
  H     -3.476073   -0.109347   -1.882431
  H     -3.010801   -1.655636   -1.123112
  C     -0.649427    0.306513   -1.641950
  C      0.705391    0.240449   -2.222971
  H     -1.481688    0.546285   -2.310210
  C      1.929959    0.374136   -1.811582
  C      2.934876    0.069579   -2.654831
  S      0.737544   -0.015141   -3.955366
  C      2.427742   -0.079758   -3.943705
  H      2.161153    0.794787   -0.751883
  H      3.973449    0.107717   -2.431756
  H      3.014076   -0.196106   -4.829813
  H     -0.990947   -3.102238    2.140249
  H      0.863625   -1.879673    3.655711
  H      3.036883   -1.438389    2.108644
  O      1.541298    1.423191    0.822954
  O     -0.130175    1.025068    2.110655
  C      0.698292    1.868141    1.691040
  C      0.669440    3.270660    2.232799
  H      0.787425    4.016172    1.448366
  H      1.495353    3.438711    2.933982
  H     -0.263548    3.489802    2.780820
  H      2.497512   -2.410559   -0.371953
  H     -0.036814   -3.346322   -0.352932

 Total Charge           Charge          ....    1
 Multiplicity           Mult            ....    1
 Number of Electrons    NEL             ....  164
 Basis Dimension        Dim             ....  358

ORBITAL ENERGIES
----------------

  NO   OCC          E(Eh)            E(eV)
   0   2.0000     -89.735671     -2441.8317
   1   2.0000     -19.645789      -534.5891
   2   2.0000     -19.628233      -534.1114
   3   2.0000     -14.825241      -403.4153
   4   2.0000     -10.706618      -291.3419
   5   2.0000     -10.656355      -289.9742
   6   2.0000     -10.640111      -289.5321
   7   2.0000     -10.633283      -289.3463
   8   2.0000     -10.632365      -289.3214
   9   2.0000     -10.632313      -289.3199
  10   2.0000     -10.629410      -289.2410
  11   2.0000     -10.612276      -288.7747
  12   2.0000     -10.598623      -288.4032
  13   2.0000     -10.595140      -288.3084
  14   2.0000     -10.560050      -287.3536
  15   2.0000     -10.559430      -287.3367
  16   2.0000     -10.557564      -287.2859
  17   2.0000     -10.549628      -287.0700
  18   2.0000     -10.543106      -286.8925
  19   2.0000      -8.375359      -227.9051
  20   2.0000      -6.265369      -170.4894
  21   2.0000      -6.262025      -170.3984
  22   2.0000      -6.259925      -170.3412
  23   2.0000      -4.029852      -109.6578
  24   2.0000      -2.348109       -63.8953
  25   2.0000      -2.313233       -62.9463
  26   2.0000      -2.311353       -62.8951
  27   2.0000      -1.339915       -36.4610
  28   2.0000      -1.213637       -33.0247
  29   2.0000      -1.184160       -32.2226
  30   2.0000      -1.166940       -31.7541
  31   2.0000      -1.117811       -30.4172
  32   2.0000      -1.006236       -27.3811
  33   2.0000      -0.980993       -26.6942
  34   2.0000      -0.972260       -26.4565
  35   2.0000      -0.951638       -25.8954
  36   2.0000      -0.949289       -25.8315
  37   2.0000      -0.947471       -25.7820
  38   2.0000      -0.889932       -24.2163
  39   2.0000      -0.858007       -23.3475
  40   2.0000      -0.785076       -21.3630
  41   2.0000      -0.784197       -21.3391
  42   2.0000      -0.781913       -21.2769
  43   2.0000      -0.768852       -20.9215
  44   2.0000      -0.766120       -20.8472
  45   2.0000      -0.755878       -20.5685
  46   2.0000      -0.726994       -19.7825
  47   2.0000      -0.713091       -19.4042
  48   2.0000      -0.680520       -18.5179
  49   2.0000      -0.676377       -18.4052
  50   2.0000      -0.674325       -18.3493
  51   2.0000      -0.658477       -17.9181
  52   2.0000      -0.646891       -17.6028
  53   2.0000      -0.639710       -17.4074
  54   2.0000      -0.636051       -17.3078
  55   2.0000      -0.627577       -17.0772
  56   2.0000      -0.616165       -16.7667
  57   2.0000      -0.608122       -16.5478
  58   2.0000      -0.605369       -16.4729
  59   2.0000      -0.603078       -16.4106
  60   2.0000      -0.586169       -15.9505
  61   2.0000      -0.579914       -15.7803
  62   2.0000      -0.571304       -15.5460
  63   2.0000      -0.568704       -15.4752
  64   2.0000      -0.564443       -15.3593
  65   2.0000      -0.558377       -15.1942
  66   2.0000      -0.548743       -14.9320
  67   2.0000      -0.535760       -14.5788
  68   2.0000      -0.534059       -14.5325
  69   2.0000      -0.525378       -14.2963
  70   2.0000      -0.521212       -14.1829
  71   2.0000      -0.511856       -13.9283
  72   2.0000      -0.508529       -13.8378
  73   2.0000      -0.500472       -13.6185
  74   2.0000      -0.496154       -13.5010
  75   2.0000      -0.476201       -12.9581
  76   2.0000      -0.475261       -12.9325
  77   2.0000      -0.459829       -12.5126
  78   2.0000      -0.441895       -12.0246
  79   2.0000      -0.426494       -11.6055
  80   2.0000      -0.413236       -11.2447
  81   2.0000      -0.391959       -10.6658
  82   0.0000      -0.190594        -5.1863
  83   0.0000      -0.163327        -4.4444
  84   0.0000      -0.158775        -4.3205
  85   0.0000      -0.086663        -2.3582
  86   0.0000      -0.084471        -2.2986

MULLIKEN ATOMIC CHARGES
-----------------------
   0 Ir:    0.609808
   1 C :   -0.323638
   2 C :   -0.184889
   3 C :   -0.245326
   4 C :   -0.146125
   5 C :   -0.247231
   6 N :   -0.449858
   7 C :   -0.139150
   8 C :   -0.626307
   9 H :    0.251086
  10 H :    0.221371
  11 H :    0.254742
  12 C :   -0.657543
  13 H :    0.262546
  14 H :    0.263447
  15 H :    0.225975
  16 H :    0.241033
  17 C :    0.042322
  18 C :   -0.197742
  19 H :    0.271703
  20 C :   -0.235396
  21 C :   -0.153585
  22 S :    0.276701
  23 C :   -0.431912
  24 H :    0.338347
  25 H :    0.263867
  26 H :    0.291505
  27 H :    0.286883
  28 H :    0.301243
  29 H :    0.300564
  30 O :   -0.508974
  31 O :   -0.474054
  32 C :    0.672858
  33 C :   -0.778318
  34 H :    0.279858
  35 H :    0.283927
  36 H :    0.272547
  37 H :    0.296673
  38 H :    0.291042
Sum of atomic charges:    1.0000000

LOEWDIN ATOMIC CHARGES
----------------------
   0 Ir:   -0.157697
   1 C :   -0.075109
   2 C :   -0.033629
   3 C :   -0.054693
   4 C :   -0.022439
   5 C :   -0.057426
   6 N :   -0.048718
   7 C :   -0.060046
   8 C :   -0.350408
   9 H :    0.148142
  10 H :    0.134149
  11 H :    0.143744
  12 C :   -0.359111
  13 H :    0.148444
  14 H :    0.153326
  15 H :    0.133161
  16 H :    0.137667
  17 C :    0.039734
  18 C :   -0.227794
  19 H :    0.154412
  20 C :   -0.141763
  21 C :   -0.176669
  22 S :    0.436262
  23 C :   -0.248886
  24 H :    0.201015
  25 H :    0.156349
  26 H :    0.163865
  27 H :    0.184310
  28 H :    0.190461
  29 H :    0.189971
  30 O :   -0.244743
  31 O :   -0.155312
  32 C :    0.194155
  33 C :   -0.377733
  34 H :    0.169015
  35 H :    0.176226
  36 H :    0.164657
  37 H :    0.187821
  38 H :    0.185289

  Mayer bond orders larger than 0.100000
B(  0-Ir,  1-C ) :   0.5318 B(  0-Ir,  2-C ) :   0.4221 B(  0-Ir,  3-C ) :   0.4457
B(  0-Ir,  4-C ) :   0.3705 B(  0-Ir,  5-C ) :   0.4683 B(  0-Ir,  6-N ) :   0.4776
B(  0-Ir, 30-O ) :   0.4195 B(  0-Ir, 31-O ) :   0.5499 B(  1-C ,  2-C ) :   1.1363
B(  1-C ,  4-C ) :   1.1302 B(  1-C , 27-H ) :   0.9169 B(  2-C ,  5-C ) :   1.2250
B(  2-C , 28-H ) :   0.9022 B(  3-C ,  4-C ) :   1.2476 B(  3-C ,  5-C ) :   1.1112
B(  3-C , 37-H ) :   0.9048 B(  4-C , 38-H ) :   0.9079 B(  5-C , 29-H ) :   0.9022
B(  6-N ,  7-C ) :   0.8710 B(  6-N , 17-C ) :   1.6784 B(  7-C ,  8-C ) :   0.9768
B(  7-C , 12-C ) :   0.9822 B(  7-C , 13-H ) :   0.8912 B(  8-C ,  9-H ) :   0.9062
B(  8-C , 10-H ) :   0.9178 B(  8-C , 11-H ) :   0.9077 B( 12-C , 14-H ) :   0.9047
B( 12-C , 15-H ) :   0.9141 B( 12-C , 16-H ) :   0.9187 B( 17-C , 18-C ) :   1.0823
B( 17-C , 19-H ) :   0.8774 B( 18-C , 20-C ) :   1.4332 B( 18-C , 22-S ) :   1.1388
B( 20-C , 21-C ) :   1.3331 B( 20-C , 24-H ) :   0.8112 B( 21-C , 23-C ) :   1.4540
B( 21-C , 25-H ) :   0.9049 B( 22-S , 23-C ) :   1.2882 B( 23-C , 26-H ) :   0.8951
B( 30-O , 32-C ) :   1.4496 B( 31-O , 32-C ) :   1.3984 B( 32-C , 33-C ) :   0.9537
B( 33-C , 34-H ) :   0.8944 B( 33-C , 35-H ) :   0.8888 B( 33-C , 36-H ) :   0.9024

Dispersion correction           -0.029238301
FINAL SINGLE POINT ENERGY     -1288.386069518373
Dispersion correction            ... done

DIPOLE MOMENT
-------------
                                X             Y             Z
Electronic contribution:     26.45898     -60.86933     126.88083
Nuclear contribution   :    -26.70816      60.14990    -126.84597
                        -----------------------------------------
Total Dipole Moment    :     -0.24918      -0.71943       0.03486
                        -----------------------------------------
Magnitude (a.u.)       :      0.76216
Magnitude (Debye)      :      1.93726

Rotational constants in cm-1:     0.011165     0.007673     0.006922
Rotational constants in MHz :   334.721655   230.031376   207.505923

                             ****ORCA TERMINATED NORMALLY****
TOTAL RUN TIME: 0 days 0 hours 15 minutes 22 seconds 88 msec
