                         Program Version 5.0.3 -  RELEASE  -
|  1> ! EnGrad PBEh-3c
|  2> %output
|  3> xyzfile=True
|  4> end
|  5> %scf
|  6> maxiter 250
|  7> end
|  8> %output
|  9> Print[P_Hirshfeld] = 1
| 10> end
| 11> % maxcore
| 12> 4000
| 13> *xyz 1 1
| 14> Ir   0.54093377  -0.79837471   0.55269307
| 15> C    0.10261135  -2.89732975   0.93643348
| 16> C    0.04085891  -2.22254861   2.20673801
| 17> C    2.15680969  -1.93630134   1.31937742
| 18> C    1.41829784  -2.76100672   0.42838845
| 19> C    1.29941196  -1.67005843   2.43982934
| 20> N   -1.12753792  -0.15832607  -0.52448874
| 21> C   -2.49479476  -0.18865272   0.01368901
| 22> C   -2.75242860   0.97318343   0.95342437
| 23> H   -3.75038245   0.92120155   1.38634296
| 24> H   -2.66852480   1.91820068   0.41794353
| 25> H   -2.07029857   0.96638376   1.80049718
| 26> C   -3.61232757  -0.28961097  -1.00926003
| 27> H   -2.55833443  -1.09745964   0.61448579
| 28> H   -4.56479052  -0.46327495  -0.51407914
| 29> H   -3.72982892   0.63163223  -1.58260366
| 30> H   -3.45875133  -1.12595067  -1.69350124
| 31> C   -0.92071714   0.20087763  -1.73776556
| 32> C    0.38621294   0.18294637  -2.30100324
| 33> H   -1.73220242   0.51437579  -2.38623197
| 34> C    1.46657045  -0.22044333  -1.56032652
| 35> C    2.65194337  -0.27854861  -2.32872409
| 36> S    0.80179267   0.38860173  -3.95330994
| 37> C    2.43565463   0.06594660  -3.63534298
| 38> H    2.25712764   1.31014129  -0.84490848
| 39> H    3.64463233  -0.51660527  -1.97228192
| 40> H    3.15824749   0.04804438  -4.43705525
| 41> H   -0.60518746  -3.63655092   0.58923929
| 42> H   -0.77453767  -2.25714415   2.91400975
| 43> H    1.60265675  -1.18874383   3.35728559
| 44> O    2.11702724   2.18382529   0.10154903
| 45> O    0.49539687   1.22913359   1.24725341
| 46> C    1.17731717   2.21696784   0.97367170
| 47> C    1.03219757   3.50386598   1.70434780
| 48> H    0.91885055   4.32171196   0.99387135
| 49> H    1.92519847   3.71495122   2.29389663
| 50> H    0.17435128   3.47047433   2.36816077
| 51> H    3.21522341  -1.73665614   1.28134757
| 52> H    1.80131063  -3.31884924  -0.41359014
| 53> *
| 54>
| 55>                          ****END OF INPUT****

CARTESIAN COORDINATES (ANGSTROEM)
---------------------------------
  Ir     0.540934   -0.798375    0.552693
  C      0.102611   -2.897330    0.936433
  C      0.040859   -2.222549    2.206738
  C      2.156810   -1.936301    1.319377
  C      1.418298   -2.761007    0.428388
  C      1.299412   -1.670058    2.439829
  N     -1.127538   -0.158326   -0.524489
  C     -2.494795   -0.188653    0.013689
  C     -2.752429    0.973183    0.953424
  H     -3.750382    0.921202    1.386343
  H     -2.668525    1.918201    0.417944
  H     -2.070299    0.966384    1.800497
  C     -3.612328   -0.289611   -1.009260
  H     -2.558334   -1.097460    0.614486
  H     -4.564791   -0.463275   -0.514079
  H     -3.729829    0.631632   -1.582604
  H     -3.458751   -1.125951   -1.693501
  C     -0.920717    0.200878   -1.737766
  C      0.386213    0.182946   -2.301003
  H     -1.732202    0.514376   -2.386232
  C      1.466570   -0.220443   -1.560327
  C      2.651943   -0.278549   -2.328724
  S      0.801793    0.388602   -3.953310
  C      2.435655    0.065947   -3.635343
  H      2.257128    1.310141   -0.844908
  H      3.644632   -0.516605   -1.972282
  H      3.158247    0.048044   -4.437055
  H     -0.605187   -3.636551    0.589239
  H     -0.774538   -2.257144    2.914010
  H      1.602657   -1.188744    3.357286
  O      2.117027    2.183825    0.101549
  O      0.495397    1.229134    1.247253
  C      1.177317    2.216968    0.973672
  C      1.032198    3.503866    1.704348
  H      0.918851    4.321712    0.993871
  H      1.925198    3.714951    2.293897
  H      0.174351    3.470474    2.368161
  H      3.215223   -1.736656    1.281348
  H      1.801311   -3.318849   -0.413590

 Total Charge           Charge          ....    1
 Multiplicity           Mult            ....    1
 Number of Electrons    NEL             ....  164
 Basis Dimension        Dim             ....  358

ORBITAL ENERGIES
----------------

  NO   OCC          E(Eh)            E(eV)
   0   2.0000     -89.750699     -2442.2407
   1   2.0000     -19.652881      -534.7821
   2   2.0000     -19.644210      -534.5461
   3   2.0000     -14.818692      -403.2371
   4   2.0000     -10.716840      -291.6200
   5   2.0000     -10.642152      -289.5877
   6   2.0000     -10.619281      -288.9653
   7   2.0000     -10.618850      -288.9536
   8   2.0000     -10.616528      -288.8904
   9   2.0000     -10.607196      -288.6365
  10   2.0000     -10.606317      -288.6126
  11   2.0000     -10.603713      -288.5417
  12   2.0000     -10.602298      -288.5032
  13   2.0000     -10.602236      -288.5015
  14   2.0000     -10.592105      -288.2258
  15   2.0000     -10.583729      -287.9979
  16   2.0000     -10.556998      -287.2705
  17   2.0000     -10.542512      -286.8763
  18   2.0000     -10.535098      -286.6746
  19   2.0000      -8.390219      -228.3095
  20   2.0000      -6.279996      -170.8874
  21   2.0000      -6.276691      -170.7975
  22   2.0000      -6.275197      -170.7568
  23   2.0000      -4.012514      -109.1860
  24   2.0000      -2.329117       -63.3785
  25   2.0000      -2.299010       -62.5593
  26   2.0000      -2.293241       -62.4022
  27   2.0000      -1.341602       -36.5069
  28   2.0000      -1.240977       -33.7687
  29   2.0000      -1.191439       -32.4207
  30   2.0000      -1.155907       -31.4538
  31   2.0000      -1.119787       -30.4710
  32   2.0000      -1.012813       -27.5600
  33   2.0000      -0.968524       -26.3549
  34   2.0000      -0.960384       -26.1334
  35   2.0000      -0.958943       -26.0942
  36   2.0000      -0.956145       -26.0180
  37   2.0000      -0.946492       -25.7554
  38   2.0000      -0.889267       -24.1982
  39   2.0000      -0.858765       -23.3682
  40   2.0000      -0.788071       -21.4445
  41   2.0000      -0.781011       -21.2524
  42   2.0000      -0.771757       -21.0006
  43   2.0000      -0.769796       -20.9472
  44   2.0000      -0.768421       -20.9098
  45   2.0000      -0.757023       -20.5996
  46   2.0000      -0.732252       -19.9256
  47   2.0000      -0.719143       -19.5689
  48   2.0000      -0.689483       -18.7618
  49   2.0000      -0.675353       -18.3773
  50   2.0000      -0.670698       -18.2506
  51   2.0000      -0.661228       -17.9929
  52   2.0000      -0.652604       -17.7583
  53   2.0000      -0.634171       -17.2567
  54   2.0000      -0.631078       -17.1725
  55   2.0000      -0.624814       -17.0021
  56   2.0000      -0.613676       -16.6990
  57   2.0000      -0.599438       -16.3115
  58   2.0000      -0.592769       -16.1301
  59   2.0000      -0.590393       -16.0654
  60   2.0000      -0.587151       -15.9772
  61   2.0000      -0.583256       -15.8712
  62   2.0000      -0.576849       -15.6969
  63   2.0000      -0.565942       -15.4001
  64   2.0000      -0.562633       -15.3100
  65   2.0000      -0.552432       -15.0324
  66   2.0000      -0.544596       -14.8192
  67   2.0000      -0.537384       -14.6229
  68   2.0000      -0.532582       -14.4923
  69   2.0000      -0.531090       -14.4517
  70   2.0000      -0.514669       -14.0049
  71   2.0000      -0.511110       -13.9080
  72   2.0000      -0.499752       -13.5989
  73   2.0000      -0.495618       -13.4864
  74   2.0000      -0.491553       -13.3758
  75   2.0000      -0.469746       -12.7824
  76   2.0000      -0.465033       -12.6542
  77   2.0000      -0.446715       -12.1557
  78   2.0000      -0.442460       -12.0400
  79   2.0000      -0.416397       -11.3307
  80   2.0000      -0.406406       -11.0589
  81   2.0000      -0.388837       -10.5808
  82   0.0000      -0.184250        -5.0137
  83   0.0000      -0.149792        -4.0760
  84   0.0000      -0.141193        -3.8421
  85   0.0000      -0.088523        -2.4088
  86   0.0000      -0.081654        -2.2219

MULLIKEN ATOMIC CHARGES
-----------------------
   0 Ir:    0.590803
   1 C :   -0.276492
   2 C :   -0.247952
   3 C :   -0.284932
   4 C :   -0.198752
   5 C :   -0.160617
   6 N :   -0.471860
   7 C :   -0.102188
   8 C :   -0.637507
   9 H :    0.246949
  10 H :    0.222950
  11 H :    0.261763
  12 C :   -0.691896
  13 H :    0.247341
  14 H :    0.269939
  15 H :    0.225743
  16 H :    0.244822
  17 C :    0.084006
  18 C :   -0.169128
  19 H :    0.275969
  20 C :   -0.301040
  21 C :   -0.239706
  22 S :    0.328362
  23 C :   -0.404636
  24 H :    0.477302
  25 H :    0.268232
  26 H :    0.298282
  27 H :    0.277045
  28 H :    0.276632
  29 H :    0.282720
  30 O :   -0.541338
  31 O :   -0.458196
  32 C :    0.661360
  33 C :   -0.743016
  34 H :    0.279004
  35 H :    0.285563
  36 H :    0.269246
  37 H :    0.272667
  38 H :    0.282558
Sum of atomic charges:    1.0000000

LOEWDIN ATOMIC CHARGES
----------------------
   0 Ir:   -0.264006
   1 C :   -0.052666
   2 C :   -0.098872
   3 C :   -0.098665
   4 C :   -0.035259
   5 C :   -0.018760
   6 N :   -0.024368
   7 C :   -0.066386
   8 C :   -0.349455
   9 H :    0.144175
  10 H :    0.134692
  11 H :    0.147099
  12 C :   -0.365296
  13 H :    0.139642
  14 H :    0.155339
  15 H :    0.133034
  16 H :    0.138750
  17 C :    0.032784
  18 C :   -0.244159
  19 H :    0.154016
  20 C :   -0.159346
  21 C :   -0.190411
  22 S :    0.477222
  23 C :   -0.255822
  24 H :    0.414348
  25 H :    0.159088
  26 H :    0.169543
  27 H :    0.180615
  28 H :    0.178119
  29 H :    0.181754
  30 O :   -0.266963
  31 O :   -0.132785
  32 C :    0.180014
  33 C :   -0.367494
  34 H :    0.171777
  35 H :    0.176926
  36 H :    0.160051
  37 H :    0.178970
  38 H :    0.182753

  Mayer bond orders larger than 0.100000
B(  0-Ir,  1-C ) :   0.4595 B(  0-Ir,  2-C ) :   0.3916 B(  0-Ir,  3-C ) :   0.4919
B(  0-Ir,  4-C ) :   0.4559 B(  0-Ir,  5-C ) :   0.3907 B(  0-Ir,  6-N ) :   0.4685
B(  0-Ir, 20-C ) :   0.5657 B(  0-Ir, 31-O ) :   0.4390 B(  1-C ,  2-C ) :   1.1509
B(  1-C ,  4-C ) :   1.2018 B(  1-C , 27-H ) :   0.9221 B(  2-C ,  5-C ) :   1.2176
B(  2-C , 28-H ) :   0.9151 B(  3-C ,  4-C ) :   1.1237 B(  3-C ,  5-C ) :   1.1672
B(  3-C , 37-H ) :   0.9207 B(  4-C , 38-H ) :   0.9149 B(  5-C , 29-H ) :   0.9124
B(  6-N ,  7-C ) :   0.9103 B(  6-N , 17-C ) :   1.6242 B(  7-C ,  8-C ) :   0.9794
B(  7-C , 12-C ) :   0.9943 B(  7-C , 13-H ) :   0.8883 B(  8-C ,  9-H ) :   0.9078
B(  8-C , 10-H ) :   0.9189 B(  8-C , 11-H ) :   0.9028 B( 12-C , 14-H ) :   0.9045
B( 12-C , 15-H ) :   0.9130 B( 12-C , 16-H ) :   0.9150 B( 17-C , 18-C ) :   1.1263
B( 17-C , 19-H ) :   0.8778 B( 18-C , 20-C ) :   1.3137 B( 18-C , 22-S ) :   1.1659
B( 20-C , 21-C ) :   1.3400 B( 20-C , 24-H ) :   0.1282 B( 21-C , 23-C ) :   1.4579
B( 21-C , 25-H ) :   0.9006 B( 22-S , 23-C ) :   1.2866 B( 23-C , 26-H ) :   0.8895
B( 24-H , 30-O ) :   0.5227 B( 30-O , 32-C ) :   1.3425 B( 31-O , 32-C ) :   1.5517
B( 32-C , 33-C ) :   0.9509 B( 33-C , 34-H ) :   0.8928 B( 33-C , 35-H ) :   0.8884
B( 33-C , 36-H ) :   0.9046

Dispersion correction           -0.030064455
FINAL SINGLE POINT ENERGY     -1288.355603324274
Dispersion correction            ... done

DIPOLE MOMENT
-------------
                                X             Y             Z
Electronic contribution:     31.06538     -79.68344      84.48090
Nuclear contribution   :    -31.22162      79.57079     -84.43520
                        -----------------------------------------
Total Dipole Moment    :     -0.15623      -0.11265       0.04570
                        -----------------------------------------
Magnitude (a.u.)       :      0.19795
Magnitude (Debye)      :      0.50316

Rotational constants in cm-1:     0.010484     0.008122     0.007714
Rotational constants in MHz :   314.302502   243.490096   231.251598

                             ****ORCA TERMINATED NORMALLY****
TOTAL RUN TIME: 0 days 0 hours 18 minutes 7 seconds 978 msec
