                         Program Version 5.0.3 -  RELEASE  -
|  1> ! EnGrad PBEh-3c
|  2> %output
|  3> xyzfile=True
|  4> end
|  5> %scf
|  6> maxiter 250
|  7> end
|  8> %output
|  9> Print[P_Hirshfeld] = 1
| 10> end
| 11> % maxcore
| 12> 4000
| 13> *xyz 1 1
| 14> Ir   0.57999733  -0.77063546   0.48379447
| 15> C    0.10597067  -2.90470093   0.97488372
| 16> C    0.03016492  -2.22830588   2.21078481
| 17> C    2.16632477  -1.95485733   1.33961428
| 18> C    1.38788610  -2.78025366   0.41924024
| 19> C    1.35900755  -1.67187244   2.42727715
| 20> N   -1.13094960  -0.16173920  -0.53215858
| 21> C   -2.51283101  -0.19471365   0.03221736
| 22> C   -2.75146860   0.99611539   0.94718916
| 23> H   -3.76199352   0.93540953   1.35945655
| 24> H   -2.67261861   1.93112408   0.39623211
| 25> H   -2.07690766   0.99713410   1.78587741
| 26> C   -3.59984120  -0.29847994  -1.02693917
| 27> H   -2.54813912  -1.08712506   0.62456430
| 28> H   -4.55827562  -0.47182504  -0.51089060
| 29> H   -3.72879071   0.61249836  -1.59733509
| 30> H   -3.44722039  -1.13899890  -1.68828037
| 31> C   -0.92799108   0.21170389  -1.75117041
| 32> C    0.40165951   0.17208893  -2.30646441
| 33> H   -1.73408424   0.51412010  -2.37920458
| 34> C    1.44993015  -0.21785200  -1.46312688
| 35> C    2.66760051  -0.26445093  -2.32355303
| 36> S    0.79342542   0.39484930  -3.96513808
| 37> C    2.42487095   0.05426211  -3.65560749
| 38> H    2.20377840   1.37963947  -0.71342275
| 39> H    3.64956788  -0.50602677  -1.97962548
| 40> H    3.15205500   0.04782440  -4.44996103
| 41> H   -0.63060945  -3.61724543   0.61219713
| 42> H   -0.75004835  -2.23823818   2.93547564
| 43> H    1.64335376  -1.18450588   3.33801425
| 44> O    2.15206589   2.13183194   0.00361107
| 45> O    0.45572543   1.19700169   1.27681656
| 46> C    1.21419569   2.17285754   0.95124772
| 47> C    1.01803294   3.50842976   1.72030053
| 48> H    0.91633242   4.31929873   1.00642167
| 49> H    1.91734341   3.70883356   2.30780273
| 50> H    0.16428236   3.47287108   2.37905681
| 51> H    3.21539053  -1.75355516   1.24300455
| 52> H    1.76188900  -3.31473512  -0.43194269
| 53> *
| 54>
| 55>                          ****END OF INPUT****

CARTESIAN COORDINATES (ANGSTROEM)
---------------------------------
  Ir     0.579997   -0.770635    0.483794
  C      0.105971   -2.904701    0.974884
  C      0.030165   -2.228306    2.210785
  C      2.166325   -1.954857    1.339614
  C      1.387886   -2.780254    0.419240
  C      1.359008   -1.671872    2.427277
  N     -1.130950   -0.161739   -0.532159
  C     -2.512831   -0.194714    0.032217
  C     -2.751469    0.996115    0.947189
  H     -3.761994    0.935410    1.359457
  H     -2.672619    1.931124    0.396232
  H     -2.076908    0.997134    1.785877
  C     -3.599841   -0.298480   -1.026939
  H     -2.548139   -1.087125    0.624564
  H     -4.558276   -0.471825   -0.510891
  H     -3.728791    0.612498   -1.597335
  H     -3.447220   -1.138999   -1.688280
  C     -0.927991    0.211704   -1.751170
  C      0.401660    0.172089   -2.306464
  H     -1.734084    0.514120   -2.379205
  C      1.449930   -0.217852   -1.463127
  C      2.667601   -0.264451   -2.323553
  S      0.793425    0.394849   -3.965138
  C      2.424871    0.054262   -3.655607
  H      2.203778    1.379639   -0.713423
  H      3.649568   -0.506027   -1.979625
  H      3.152055    0.047824   -4.449961
  H     -0.630609   -3.617245    0.612197
  H     -0.750048   -2.238238    2.935476
  H      1.643354   -1.184506    3.338014
  O      2.152066    2.131832    0.003611
  O      0.455725    1.197002    1.276817
  C      1.214196    2.172858    0.951248
  C      1.018033    3.508430    1.720301
  H      0.916332    4.319299    1.006422
  H      1.917343    3.708834    2.307803
  H      0.164282    3.472871    2.379057
  H      3.215391   -1.753555    1.243005
  H      1.761889   -3.314735   -0.431943

 Total Charge           Charge          ....    1
 Multiplicity           Mult            ....    1
 Number of Electrons    NEL             ....  164
 Basis Dimension        Dim             ....  358

ORBITAL ENERGIES
----------------

  NO   OCC          E(Eh)            E(eV)
   0   2.0000     -89.742920     -2442.0290
   1   2.0000     -19.681667      -535.5654
   2   2.0000     -19.671034      -535.2760
   3   2.0000     -14.815664      -403.1547
   4   2.0000     -10.753058      -292.6056
   5   2.0000     -10.637115      -289.4506
   6   2.0000     -10.619748      -288.9780
   7   2.0000     -10.617230      -288.9095
   8   2.0000     -10.609823      -288.7080
   9   2.0000     -10.604758      -288.5701
  10   2.0000     -10.603417      -288.5336
  11   2.0000     -10.600755      -288.4612
  12   2.0000     -10.599486      -288.4267
  13   2.0000     -10.597701      -288.3781
  14   2.0000     -10.594519      -288.2915
  15   2.0000     -10.580360      -287.9062
  16   2.0000     -10.576196      -287.7929
  17   2.0000     -10.542848      -286.8855
  18   2.0000     -10.536634      -286.7164
  19   2.0000      -8.382381      -228.0962
  20   2.0000      -6.272377      -170.6800
  21   2.0000      -6.268986      -170.5878
  22   2.0000      -6.267077      -170.5358
  23   2.0000      -4.009339      -109.0997
  24   2.0000      -2.323813       -63.2342
  25   2.0000      -2.296475       -62.4903
  26   2.0000      -2.290872       -62.3378
  27   2.0000      -1.345495       -36.6128
  28   2.0000      -1.264249       -34.4020
  29   2.0000      -1.181653       -32.1544
  30   2.0000      -1.149151       -31.2700
  31   2.0000      -1.099712       -29.9247
  32   2.0000      -1.008420       -27.4405
  33   2.0000      -0.966708       -26.3055
  34   2.0000      -0.965331       -26.2680
  35   2.0000      -0.951178       -25.8829
  36   2.0000      -0.943609       -25.6769
  37   2.0000      -0.937080       -25.4992
  38   2.0000      -0.890418       -24.2295
  39   2.0000      -0.851549       -23.1718
  40   2.0000      -0.832448       -22.6521
  41   2.0000      -0.783462       -21.3191
  42   2.0000      -0.769524       -20.9398
  43   2.0000      -0.765953       -20.8426
  44   2.0000      -0.761603       -20.7243
  45   2.0000      -0.753173       -20.4949
  46   2.0000      -0.748858       -20.3775
  47   2.0000      -0.715921       -19.4812
  48   2.0000      -0.686093       -18.6695
  49   2.0000      -0.677816       -18.4443
  50   2.0000      -0.669987       -18.2313
  51   2.0000      -0.662804       -18.0358
  52   2.0000      -0.647859       -17.6291
  53   2.0000      -0.629122       -17.1193
  54   2.0000      -0.628601       -17.1051
  55   2.0000      -0.618197       -16.8220
  56   2.0000      -0.609605       -16.5882
  57   2.0000      -0.598645       -16.2900
  58   2.0000      -0.592375       -16.1193
  59   2.0000      -0.590247       -16.0614
  60   2.0000      -0.584301       -15.8996
  61   2.0000      -0.583022       -15.8648
  62   2.0000      -0.577368       -15.7110
  63   2.0000      -0.573714       -15.6115
  64   2.0000      -0.566602       -15.4180
  65   2.0000      -0.557169       -15.1613
  66   2.0000      -0.543538       -14.7904
  67   2.0000      -0.537652       -14.6302
  68   2.0000      -0.536278       -14.5929
  69   2.0000      -0.532366       -14.4864
  70   2.0000      -0.529383       -14.4052
  71   2.0000      -0.526067       -14.3150
  72   2.0000      -0.509489       -13.8639
  73   2.0000      -0.499083       -13.5807
  74   2.0000      -0.493190       -13.4204
  75   2.0000      -0.478343       -13.0164
  76   2.0000      -0.469924       -12.7873
  77   2.0000      -0.444366       -12.0918
  78   2.0000      -0.437299       -11.8995
  79   2.0000      -0.406833       -11.0705
  80   2.0000      -0.401419       -10.9232
  81   2.0000      -0.383179       -10.4268
  82   0.0000      -0.173874        -4.7314
  83   0.0000      -0.153820        -4.1857
  84   0.0000      -0.129083        -3.5125
  85   0.0000      -0.119565        -3.2535
  86   0.0000      -0.075377        -2.0511

MULLIKEN ATOMIC CHARGES
-----------------------
   0 Ir:    0.596385
   1 C :   -0.232436
   2 C :   -0.257269
   3 C :   -0.278415
   4 C :   -0.246788
   5 C :   -0.154106
   6 N :   -0.476657
   7 C :   -0.098620
   8 C :   -0.637677
   9 H :    0.244632
  10 H :    0.223895
  11 H :    0.260876
  12 C :   -0.695496
  13 H :    0.251112
  14 H :    0.263946
  15 H :    0.231230
  16 H :    0.251598
  17 C :    0.086889
  18 C :   -0.189912
  19 H :    0.274429
  20 C :   -0.338461
  21 C :   -0.236059
  22 S :    0.316879
  23 C :   -0.394247
  24 H :    0.532445
  25 H :    0.258862
  26 H :    0.294113
  27 H :    0.277503
  28 H :    0.273018
  29 H :    0.279486
  30 O :   -0.575174
  31 O :   -0.454636
  32 C :    0.662625
  33 C :   -0.724657
  34 H :    0.284055
  35 H :    0.284732
  36 H :    0.284066
  37 H :    0.274430
  38 H :    0.283405
Sum of atomic charges:    1.0000000

LOEWDIN ATOMIC CHARGES
----------------------
   0 Ir:   -0.269123
   1 C :   -0.043592
   2 C :   -0.112383
   3 C :   -0.107815
   4 C :   -0.057997
   5 C :   -0.014536
   6 N :   -0.032438
   7 C :   -0.058756
   8 C :   -0.350152
   9 H :    0.144059
  10 H :    0.135311
  11 H :    0.145863
  12 C :   -0.365610
  13 H :    0.139959
  14 H :    0.154556
  15 H :    0.135048
  16 H :    0.141212
  17 C :    0.033550
  18 C :   -0.245955
  19 H :    0.151431
  20 C :   -0.145544
  21 C :   -0.185605
  22 S :    0.459416
  23 C :   -0.262050
  24 H :    0.380242
  25 H :    0.152155
  26 H :    0.167970
  27 H :    0.179402
  28 H :    0.174869
  29 H :    0.178139
  30 O :   -0.258342
  31 O :   -0.139915
  32 C :    0.265910
  33 C :   -0.362811
  34 H :    0.171959
  35 H :    0.175430
  36 H :    0.165930
  37 H :    0.177694
  38 H :    0.182518

  Mayer bond orders larger than 0.100000
B(  0-Ir,  1-C ) :   0.3935 B(  0-Ir,  2-C ) :   0.3490 B(  0-Ir,  3-C ) :   0.4508
B(  0-Ir,  4-C ) :   0.4651 B(  0-Ir,  5-C ) :   0.3566 B(  0-Ir,  6-N ) :   0.4980
B(  0-Ir, 20-C ) :   0.6120 B(  0-Ir, 31-O ) :   0.4415 B(  1-C ,  2-C ) :   1.1954
B(  1-C ,  4-C ) :   1.2134 B(  1-C , 27-H ) :   0.9188 B(  2-C ,  5-C ) :   1.2064
B(  2-C , 28-H ) :   0.9180 B(  3-C ,  4-C ) :   1.1222 B(  3-C ,  5-C ) :   1.2096
B(  3-C , 37-H ) :   0.9182 B(  4-C , 38-H ) :   0.9151 B(  5-C , 29-H ) :   0.9136
B(  6-N ,  7-C ) :   0.8963 B(  6-N , 17-C ) :   1.6087 B(  7-C ,  8-C ) :   0.9826
B(  7-C , 12-C ) :   0.9962 B(  7-C , 13-H ) :   0.8896 B(  8-C ,  9-H ) :   0.9087
B(  8-C , 10-H ) :   0.9193 B(  8-C , 11-H ) :   0.9036 B( 12-C , 14-H ) :   0.9064
B( 12-C , 15-H ) :   0.9114 B( 12-C , 16-H ) :   0.9123 B( 17-C , 18-C ) :   1.1377
B( 17-C , 19-H ) :   0.8783 B( 18-C , 20-C ) :   1.3285 B( 18-C , 22-S ) :   1.1570
B( 20-C , 21-C ) :   1.3045 B( 21-C , 23-C ) :   1.5125 B( 21-C , 25-H ) :   0.9042
B( 22-S , 23-C ) :   1.2487 B( 23-C , 26-H ) :   0.8912 B( 24-H , 30-O ) :   0.5787
B( 30-O , 32-C ) :   1.2666 B( 31-O , 32-C ) :   1.5461 B( 32-C , 33-C ) :   0.9493
B( 33-C , 34-H ) :   0.8887 B( 33-C , 35-H ) :   0.8864 B( 33-C , 36-H ) :   0.8987

Dispersion correction           -0.029692172
FINAL SINGLE POINT ENERGY     -1288.395125726158
Dispersion correction            ... done

DIPOLE MOMENT
-------------
                                X             Y             Z
Electronic contribution:     34.72021     -76.18086      78.37992
Nuclear contribution   :    -34.99186      76.47859     -77.90871
                        -----------------------------------------
Total Dipole Moment    :     -0.27165       0.29773       0.47121
                        -----------------------------------------
Magnitude (a.u.)       :      0.62006
Magnitude (Debye)      :      1.57606

Rotational constants in cm-1:     0.010494     0.008209     0.007739
Rotational constants in MHz :   314.603028   246.113443   232.009798

                             ****ORCA TERMINATED NORMALLY****
TOTAL RUN TIME: 0 days 0 hours 17 minutes 20 seconds 298 msec
