                         Program Version 5.0.3 -  RELEASE  -
|  1> ! EnGrad PBEh-3c
|  2> %output
|  3> xyzfile=True
|  4> end
|  5> %scf
|  6> maxiter 250
|  7> end
|  8> %output
|  9> Print[P_Hirshfeld] = 1
| 10> end
| 11> % maxcore
| 12> 4000
| 13> *xyz 1 1
| 14> Ir   0.57790137  -0.77403374   0.48857331
| 15> C    0.10112319  -2.90852940   0.97275415
| 16> C    0.04350826  -2.22189595   2.21171027
| 17> C    2.16867823  -1.96018551   1.32911287
| 18> C    1.39165569  -2.77508928   0.42282743
| 19> C    1.34646796  -1.67424498   2.42960058
| 20> N   -1.13026117  -0.16124502  -0.53498247
| 21> C   -2.50884966  -0.19042483   0.02800167
| 22> C   -2.75441300   0.99521167   0.94514414
| 23> H   -3.76166317   0.93651409   1.35873096
| 24> H   -2.67260551   1.93165527   0.39515256
| 25> H   -2.07603989   0.99851043   1.78690137
| 26> C   -3.60260036  -0.29958762  -1.02200324
| 27> H   -2.54847434  -1.08947525   0.62697583
| 28> H   -4.55637267  -0.47184679  -0.51251438
| 29> H   -3.72846648   0.61296135  -1.59861520
| 30> H   -3.44634489  -1.14082769  -1.68930286
| 31> C   -0.92342340   0.20955881  -1.74880963
| 32> C    0.39979552   0.17119213  -2.29945715
| 33> H   -1.73683510   0.51545101  -2.38129223
| 34> C    1.45313519  -0.21695289  -1.47883254
| 35> C    2.65722130  -0.26335659  -2.32193655
| 36> S    0.79349324   0.39423766  -3.96326322
| 37> C    2.42579131   0.05282517  -3.64756852
| 38> H    2.20379677   1.37789517  -0.71413793
| 39> H    3.65238359  -0.50594130  -1.97935486
| 40> H    3.15210585   0.04760811  -4.45074503
| 41> H   -0.63109434  -3.61547456   0.61339340
| 42> H   -0.75152307  -2.23764286   2.93781609
| 43> H    1.64591453  -1.18318458   3.33829937
| 44> O    2.14225578   2.13624244   0.01792542
| 45> O    0.46913273   1.20871262   1.26946428
| 46> C    1.20672655   2.16797481   0.95287634
| 47> C    1.02394246   3.50126360   1.71498389
| 48> H    0.91610326   4.31966890   1.00633982
| 49> H    1.91667218   3.70892599   2.30835074
| 50> H    0.16297680   3.47164817   2.37952893
| 51> H    3.21660603  -1.75435111   1.24199499
| 52> H    1.76064665  -3.31582582  -0.43335814
| 53> *
| 54>
| 55>                          ****END OF INPUT****

CARTESIAN COORDINATES (ANGSTROEM)
---------------------------------
  Ir     0.577901   -0.774034    0.488573
  C      0.101123   -2.908529    0.972754
  C      0.043508   -2.221896    2.211710
  C      2.168678   -1.960186    1.329113
  C      1.391656   -2.775089    0.422827
  C      1.346468   -1.674245    2.429601
  N     -1.130261   -0.161245   -0.534982
  C     -2.508850   -0.190425    0.028002
  C     -2.754413    0.995212    0.945144
  H     -3.761663    0.936514    1.358731
  H     -2.672606    1.931655    0.395153
  H     -2.076040    0.998510    1.786901
  C     -3.602600   -0.299588   -1.022003
  H     -2.548474   -1.089475    0.626976
  H     -4.556373   -0.471847   -0.512514
  H     -3.728466    0.612961   -1.598615
  H     -3.446345   -1.140828   -1.689303
  C     -0.923423    0.209559   -1.748810
  C      0.399796    0.171192   -2.299457
  H     -1.736835    0.515451   -2.381292
  C      1.453135   -0.216953   -1.478833
  C      2.657221   -0.263357   -2.321937
  S      0.793493    0.394238   -3.963263
  C      2.425791    0.052825   -3.647569
  H      2.203797    1.377895   -0.714138
  H      3.652384   -0.505941   -1.979355
  H      3.152106    0.047608   -4.450745
  H     -0.631094   -3.615475    0.613393
  H     -0.751523   -2.237643    2.937816
  H      1.645915   -1.183185    3.338299
  O      2.142256    2.136242    0.017925
  O      0.469133    1.208713    1.269464
  C      1.206727    2.167975    0.952876
  C      1.023942    3.501264    1.714984
  H      0.916103    4.319669    1.006340
  H      1.916672    3.708926    2.308351
  H      0.162977    3.471648    2.379529
  H      3.216606   -1.754351    1.241995
  H      1.760647   -3.315826   -0.433358

 Total Charge           Charge          ....    1
 Multiplicity           Mult            ....    1
 Number of Electrons    NEL             ....  164
 Basis Dimension        Dim             ....  358

ORBITAL ENERGIES
----------------

  NO   OCC          E(Eh)            E(eV)
   0   2.0000     -89.742785     -2442.0253
   1   2.0000     -19.677872      -535.4621
   2   2.0000     -19.669107      -535.2236
   3   2.0000     -14.815739      -403.1567
   4   2.0000     -10.746234      -292.4199
   5   2.0000     -10.637542      -289.4622
   6   2.0000     -10.620308      -288.9933
   7   2.0000     -10.618624      -288.9475
   8   2.0000     -10.611083      -288.7422
   9   2.0000     -10.605685      -288.5954
  10   2.0000     -10.604009      -288.5498
  11   2.0000     -10.601277      -288.4754
  12   2.0000     -10.600534      -288.4552
  13   2.0000     -10.597372      -288.3692
  14   2.0000     -10.592904      -288.2476
  15   2.0000     -10.579805      -287.8911
  16   2.0000     -10.572717      -287.6983
  17   2.0000     -10.542987      -286.8893
  18   2.0000     -10.537048      -286.7276
  19   2.0000      -8.382203      -228.0913
  20   2.0000      -6.272180      -170.6747
  21   2.0000      -6.268808      -170.5829
  22   2.0000      -6.266906      -170.5312
  23   2.0000      -4.009996      -109.1175
  24   2.0000      -2.324811       -63.2613
  25   2.0000      -2.296991       -62.5043
  26   2.0000      -2.291373       -62.3514
  27   2.0000      -1.352565       -36.8052
  28   2.0000      -1.268712       -34.5234
  29   2.0000      -1.184437       -32.2302
  30   2.0000      -1.151468       -31.3330
  31   2.0000      -1.102675       -30.0053
  32   2.0000      -1.009622       -27.4732
  33   2.0000      -0.964609       -26.2484
  34   2.0000      -0.962624       -26.1943
  35   2.0000      -0.955242       -25.9935
  36   2.0000      -0.945663       -25.7328
  37   2.0000      -0.939036       -25.5525
  38   2.0000      -0.890209       -24.2238
  39   2.0000      -0.852296       -23.1922
  40   2.0000      -0.828207       -22.5366
  41   2.0000      -0.783415       -21.3178
  42   2.0000      -0.769831       -20.9482
  43   2.0000      -0.767323       -20.8799
  44   2.0000      -0.762976       -20.7616
  45   2.0000      -0.753722       -20.5098
  46   2.0000      -0.750263       -20.4157
  47   2.0000      -0.715578       -19.4719
  48   2.0000      -0.687524       -18.7085
  49   2.0000      -0.679635       -18.4938
  50   2.0000      -0.671639       -18.2762
  51   2.0000      -0.665566       -18.1110
  52   2.0000      -0.647646       -17.6233
  53   2.0000      -0.629476       -17.1289
  54   2.0000      -0.627648       -17.0792
  55   2.0000      -0.618621       -16.8335
  56   2.0000      -0.610434       -16.6107
  57   2.0000      -0.593376       -16.1466
  58   2.0000      -0.592248       -16.1159
  59   2.0000      -0.590855       -16.0780
  60   2.0000      -0.587994       -16.0001
  61   2.0000      -0.583514       -15.8782
  62   2.0000      -0.577124       -15.7044
  63   2.0000      -0.573286       -15.5999
  64   2.0000      -0.565948       -15.4002
  65   2.0000      -0.557975       -15.1833
  66   2.0000      -0.546035       -14.8584
  67   2.0000      -0.537564       -14.6279
  68   2.0000      -0.535132       -14.5617
  69   2.0000      -0.531299       -14.4574
  70   2.0000      -0.528922       -14.3927
  71   2.0000      -0.525698       -14.3050
  72   2.0000      -0.508177       -13.8282
  73   2.0000      -0.499493       -13.5919
  74   2.0000      -0.492563       -13.4033
  75   2.0000      -0.479090       -13.0367
  76   2.0000      -0.470151       -12.7935
  77   2.0000      -0.445947       -12.1348
  78   2.0000      -0.437726       -11.9111
  79   2.0000      -0.407766       -11.0959
  80   2.0000      -0.403689       -10.9849
  81   2.0000      -0.384800       -10.4709
  82   0.0000      -0.174814        -4.7569
  83   0.0000      -0.154490        -4.2039
  84   0.0000      -0.130659        -3.5554
  85   0.0000      -0.110946        -3.0190
  86   0.0000      -0.074486        -2.0269

MULLIKEN ATOMIC CHARGES
-----------------------
   0 Ir:    0.589119
   1 C :   -0.231761
   2 C :   -0.258391
   3 C :   -0.276768
   4 C :   -0.246535
   5 C :   -0.154854
   6 N :   -0.475399
   7 C :   -0.098840
   8 C :   -0.637207
   9 H :    0.246105
  10 H :    0.223702
  11 H :    0.259454
  12 C :   -0.693851
  13 H :    0.248710
  14 H :    0.266127
  15 H :    0.229317
  16 H :    0.249818
  17 C :    0.084876
  18 C :   -0.185218
  19 H :    0.274173
  20 C :   -0.327175
  21 C :   -0.238428
  22 S :    0.313630
  23 C :   -0.394736
  24 H :    0.529004
  25 H :    0.258903
  26 H :    0.294857
  27 H :    0.278150
  28 H :    0.274365
  29 H :    0.280624
  30 O :   -0.574150
  31 O :   -0.440346
  32 C :    0.658157
  33 C :   -0.730256
  34 H :    0.282516
  35 H :    0.284544
  36 H :    0.279034
  37 H :    0.274850
  38 H :    0.283878
Sum of atomic charges:    1.0000000

LOEWDIN ATOMIC CHARGES
----------------------
   0 Ir:   -0.268184
   1 C :   -0.041729
   2 C :   -0.111122
   3 C :   -0.106633
   4 C :   -0.055969
   5 C :   -0.015741
   6 N :   -0.032005
   7 C :   -0.059859
   8 C :   -0.350154
   9 H :    0.144513
  10 H :    0.135215
  11 H :    0.145707
  12 C :   -0.365408
  13 H :    0.139425
  14 H :    0.154636
  15 H :    0.134474
  16 H :    0.140796
  17 C :    0.032552
  18 C :   -0.243744
  19 H :    0.152116
  20 C :   -0.146469
  21 C :   -0.186703
  22 S :    0.456403
  23 C :   -0.259332
  24 H :    0.383388
  25 H :    0.153428
  26 H :    0.168650
  27 H :    0.179634
  28 H :    0.176116
  29 H :    0.179027
  30 O :   -0.257090
  31 O :   -0.122741
  32 C :    0.241843
  33 C :   -0.365722
  34 H :    0.171149
  35 H :    0.174629
  36 H :    0.164269
  37 H :    0.177946
  38 H :    0.182690

  Mayer bond orders larger than 0.100000
B(  0-Ir,  1-C ) :   0.4058 B(  0-Ir,  2-C ) :   0.3484 B(  0-Ir,  3-C ) :   0.4582
B(  0-Ir,  4-C ) :   0.4642 B(  0-Ir,  5-C ) :   0.3607 B(  0-Ir,  6-N ) :   0.4930
B(  0-Ir, 20-C ) :   0.6094 B(  0-Ir, 31-O ) :   0.4324 B(  1-C ,  2-C ) :   1.1880
B(  1-C ,  4-C ) :   1.2103 B(  1-C , 27-H ) :   0.9194 B(  2-C ,  5-C ) :   1.2154
B(  2-C , 28-H ) :   0.9169 B(  3-C ,  4-C ) :   1.1259 B(  3-C ,  5-C ) :   1.1983
B(  3-C , 37-H ) :   0.9181 B(  4-C , 38-H ) :   0.9147 B(  5-C , 29-H ) :   0.9129
B(  6-N ,  7-C ) :   0.8984 B(  6-N , 17-C ) :   1.6103 B(  7-C ,  8-C ) :   0.9817
B(  7-C , 12-C ) :   0.9952 B(  7-C , 13-H ) :   0.8899 B(  8-C ,  9-H ) :   0.9082
B(  8-C , 10-H ) :   0.9191 B(  8-C , 11-H ) :   0.9044 B( 12-C , 14-H ) :   0.9054
B( 12-C , 15-H ) :   0.9119 B( 12-C , 16-H ) :   0.9132 B( 17-C , 18-C ) :   1.1366
B( 17-C , 19-H ) :   0.8782 B( 18-C , 20-C ) :   1.3300 B( 18-C , 22-S ) :   1.1560
B( 20-C , 21-C ) :   1.3146 B( 21-C , 23-C ) :   1.5077 B( 21-C , 25-H ) :   0.9041
B( 22-S , 23-C ) :   1.2523 B( 23-C , 26-H ) :   0.8905 B( 24-H , 30-O ) :   0.5793
B( 30-O , 32-C ) :   1.2670 B( 31-O , 32-C ) :   1.5739 B( 32-C , 33-C ) :   0.9463
B( 33-C , 34-H ) :   0.8901 B( 33-C , 35-H ) :   0.8872 B( 33-C , 36-H ) :   0.9016

Dispersion correction           -0.029688870
FINAL SINGLE POINT ENERGY     -1288.402842277158
Dispersion correction            ... done

DIPOLE MOMENT
-------------
                                X             Y             Z
Electronic contribution:     34.51472     -76.62406      78.80018
Nuclear contribution   :    -34.78516      76.83072     -78.35732
                        -----------------------------------------
Total Dipole Moment    :     -0.27044       0.20666       0.44285
                        -----------------------------------------
Magnitude (a.u.)       :      0.55854
Magnitude (Debye)      :      1.41970

Rotational constants in cm-1:     0.010500     0.008213     0.007745
Rotational constants in MHz :   314.776082   246.216443   232.196877

                             ****ORCA TERMINATED NORMALLY****
TOTAL RUN TIME: 0 days 0 hours 16 minutes 45 seconds 483 msec
