                         Program Version 5.0.3 -  RELEASE  -
|  1> ! EnGrad PBEh-3c
|  2> %output
|  3> xyzfile=True
|  4> end
|  5> %scf
|  6> maxiter 250
|  7> end
|  8> %output
|  9> Print[P_Hirshfeld] = 1
| 10> end
| 11> % maxcore
| 12> 4000
| 13> *xyz 1 1
| 14> Ir   0.58370303  -0.77283242   0.48056469
| 15> C    0.09829523  -2.91211611   0.97942666
| 16> C    0.05307428  -2.21674223   2.21554439
| 17> C    2.17167925  -1.96945640   1.32259929
| 18> C    1.38817478  -2.77520592   0.42296391
| 19> C    1.34909444  -1.67679290   2.42799772
| 20> N   -1.13015180  -0.16141137  -0.53818583
| 21> C   -2.50786073  -0.18777968   0.02754584
| 22> C   -2.75696776   0.99995858   0.94093335
| 23> H   -3.76435608   0.94150499   1.35149041
| 24> H   -2.67374536   1.93530458   0.38831272
| 25> H   -2.07726105   1.00769672   1.78411207
| 26> C   -3.60218274  -0.30295004  -1.02123761
| 27> H   -2.54652423  -1.08845844   0.63173320
| 28> H   -4.55323838  -0.47417087  -0.51345872
| 29> H   -3.72775231   0.60831707  -1.60341622
| 30> H   -3.44249974  -1.14602294  -1.68865133
| 31> C   -0.92120637   0.21000798  -1.75018549
| 32> C    0.40100888   0.16843258  -2.29419116
| 33> H   -1.73916285   0.51671850  -2.38166670
| 34> C    1.45340735  -0.21548771  -1.47638822
| 35> C    2.65183756  -0.25993611  -2.31794762
| 36> S    0.79163724   0.39433810  -3.96274661
| 37> C    2.42441086   0.04915846  -3.64457757
| 38> H    2.19270695   1.39109258  -0.68652993
| 39> H    3.65508056  -0.50250159  -1.98149925
| 40> H    3.14999013   0.04701216  -4.45375960
| 41> H   -0.63861116  -3.61001842   0.62078099
| 42> H   -0.74528688  -2.23217074   2.94480100
| 43> H    1.65891033  -1.18137138   3.33350131
| 44> O    2.13825446   2.12929939   0.01379494
| 45> O    0.47343831   1.21090805   1.26838549
| 46> C    1.20758442   2.15881072   0.95099972
| 47> C    1.02625316   3.49366201   1.71314202
| 48> H    0.91536937   4.31896397   1.00940543
| 49> H    1.91407355   3.70739821   2.31246263
| 50> H    0.16019515   3.47055810   2.38174062
| 51> H    3.21846110  -1.75985809   1.23114118
| 52> H    1.74902517  -3.31617493  -0.43855223
| 53> *
| 54>
| 55>                          ****END OF INPUT****

CARTESIAN COORDINATES (ANGSTROEM)
---------------------------------
  Ir     0.583703   -0.772832    0.480565
  C      0.098295   -2.912116    0.979427
  C      0.053074   -2.216742    2.215544
  C      2.171679   -1.969456    1.322599
  C      1.388175   -2.775206    0.422964
  C      1.349094   -1.676793    2.427998
  N     -1.130152   -0.161411   -0.538186
  C     -2.507861   -0.187780    0.027546
  C     -2.756968    0.999959    0.940933
  H     -3.764356    0.941505    1.351490
  H     -2.673745    1.935305    0.388313
  H     -2.077261    1.007697    1.784112
  C     -3.602183   -0.302950   -1.021238
  H     -2.546524   -1.088458    0.631733
  H     -4.553238   -0.474171   -0.513459
  H     -3.727752    0.608317   -1.603416
  H     -3.442500   -1.146023   -1.688651
  C     -0.921206    0.210008   -1.750185
  C      0.401009    0.168433   -2.294191
  H     -1.739163    0.516718   -2.381667
  C      1.453407   -0.215488   -1.476388
  C      2.651838   -0.259936   -2.317948
  S      0.791637    0.394338   -3.962747
  C      2.424411    0.049158   -3.644578
  H      2.192707    1.391093   -0.686530
  H      3.655081   -0.502502   -1.981499
  H      3.149990    0.047012   -4.453760
  H     -0.638611   -3.610018    0.620781
  H     -0.745287   -2.232171    2.944801
  H      1.658910   -1.181371    3.333501
  O      2.138254    2.129299    0.013795
  O      0.473438    1.210908    1.268385
  C      1.207584    2.158811    0.951000
  C      1.026253    3.493662    1.713142
  H      0.915369    4.318964    1.009405
  H      1.914074    3.707398    2.312463
  H      0.160195    3.470558    2.381741
  H      3.218461   -1.759858    1.231141
  H      1.749025   -3.316175   -0.438552

 Total Charge           Charge          ....    1
 Multiplicity           Mult            ....    1
 Number of Electrons    NEL             ....  164
 Basis Dimension        Dim             ....  358

ORBITAL ENERGIES
----------------

  NO   OCC          E(Eh)            E(eV)
   0   2.0000     -89.741452     -2441.9891
   1   2.0000     -19.678324      -535.4744
   2   2.0000     -19.671246      -535.2818
   3   2.0000     -14.815182      -403.1416
   4   2.0000     -10.746776      -292.4346
   5   2.0000     -10.637034      -289.4484
   6   2.0000     -10.620578      -289.0006
   7   2.0000     -10.619396      -288.9684
   8   2.0000     -10.610651      -288.7305
   9   2.0000     -10.605735      -288.5967
  10   2.0000     -10.604584      -288.5654
  11   2.0000     -10.600930      -288.4660
  12   2.0000     -10.600622      -288.4576
  13   2.0000     -10.596265      -288.3390
  14   2.0000     -10.591922      -288.2208
  15   2.0000     -10.578784      -287.8633
  16   2.0000     -10.573367      -287.7159
  17   2.0000     -10.543119      -286.8928
  18   2.0000     -10.537587      -286.7423
  19   2.0000      -8.380829      -228.0540
  20   2.0000      -6.270817      -170.6376
  21   2.0000      -6.267451      -170.5460
  22   2.0000      -6.265505      -170.4931
  23   2.0000      -4.009942      -109.1161
  24   2.0000      -2.324704       -63.2584
  25   2.0000      -2.296947       -62.5031
  26   2.0000      -2.291400       -62.3522
  27   2.0000      -1.360407       -37.0185
  28   2.0000      -1.276636       -34.7390
  29   2.0000      -1.184659       -32.2362
  30   2.0000      -1.152246       -31.3542
  31   2.0000      -1.102036       -29.9879
  32   2.0000      -1.009713       -27.4757
  33   2.0000      -0.964479       -26.2448
  34   2.0000      -0.962811       -26.1994
  35   2.0000      -0.956292       -26.0220
  36   2.0000      -0.945136       -25.7185
  37   2.0000      -0.938915       -25.5492
  38   2.0000      -0.890125       -24.2215
  39   2.0000      -0.852065       -23.1859
  40   2.0000      -0.836037       -22.7497
  41   2.0000      -0.782893       -21.3036
  42   2.0000      -0.769852       -20.9487
  43   2.0000      -0.767880       -20.8951
  44   2.0000      -0.762908       -20.7598
  45   2.0000      -0.753468       -20.5029
  46   2.0000      -0.753068       -20.4920
  47   2.0000      -0.714944       -19.4546
  48   2.0000      -0.689536       -18.7632
  49   2.0000      -0.681229       -18.5372
  50   2.0000      -0.673097       -18.3159
  51   2.0000      -0.667252       -18.1568
  52   2.0000      -0.646921       -17.6036
  53   2.0000      -0.629312       -17.1245
  54   2.0000      -0.626890       -17.0585
  55   2.0000      -0.618367       -16.8266
  56   2.0000      -0.610526       -16.6133
  57   2.0000      -0.592732       -16.1291
  58   2.0000      -0.591518       -16.0960
  59   2.0000      -0.590346       -16.0641
  60   2.0000      -0.588879       -16.0242
  61   2.0000      -0.583227       -15.8704
  62   2.0000      -0.578579       -15.7439
  63   2.0000      -0.573946       -15.6179
  64   2.0000      -0.567365       -15.4388
  65   2.0000      -0.558413       -15.1952
  66   2.0000      -0.546800       -14.8792
  67   2.0000      -0.539387       -14.6775
  68   2.0000      -0.534983       -14.5576
  69   2.0000      -0.530747       -14.4424
  70   2.0000      -0.530122       -14.4253
  71   2.0000      -0.526359       -14.3229
  72   2.0000      -0.508359       -13.8332
  73   2.0000      -0.499617       -13.5953
  74   2.0000      -0.493494       -13.4286
  75   2.0000      -0.479493       -13.0477
  76   2.0000      -0.470609       -12.8059
  77   2.0000      -0.446485       -12.1495
  78   2.0000      -0.437153       -11.8955
  79   2.0000      -0.408410       -11.1134
  80   2.0000      -0.402940       -10.9646
  81   2.0000      -0.384579       -10.4649
  82   0.0000      -0.174554        -4.7498
  83   0.0000      -0.155734        -4.2377
  84   0.0000      -0.130103        -3.5403
  85   0.0000      -0.110193        -2.9985
  86   0.0000      -0.073276        -1.9939

MULLIKEN ATOMIC CHARGES
-----------------------
   0 Ir:    0.584417
   1 C :   -0.224342
   2 C :   -0.260218
   3 C :   -0.274451
   4 C :   -0.254340
   5 C :   -0.154897
   6 N :   -0.475259
   7 C :   -0.098528
   8 C :   -0.636729
   9 H :    0.246676
  10 H :    0.223662
  11 H :    0.258122
  12 C :   -0.693099
  13 H :    0.247373
  14 H :    0.266813
  15 H :    0.228671
  16 H :    0.249477
  17 C :    0.083568
  18 C :   -0.185380
  19 H :    0.273914
  20 C :   -0.320013
  21 C :   -0.240306
  22 S :    0.308964
  23 C :   -0.393513
  24 H :    0.532762
  25 H :    0.257434
  26 H :    0.294758
  27 H :    0.278591
  28 H :    0.274633
  29 H :    0.280859
  30 O :   -0.574280
  31 O :   -0.430459
  32 C :    0.653054
  33 C :   -0.733081
  34 H :    0.282384
  35 H :    0.284698
  36 H :    0.277968
  37 H :    0.275645
  38 H :    0.284454
Sum of atomic charges:    1.0000000

LOEWDIN ATOMIC CHARGES
----------------------
   0 Ir:   -0.267629
   1 C :   -0.038805
   2 C :   -0.112210
   3 C :   -0.107050
   4 C :   -0.058706
   5 C :   -0.016158
   6 N :   -0.033383
   7 C :   -0.059665
   8 C :   -0.350292
   9 H :    0.144780
  10 H :    0.135181
  11 H :    0.145320
  12 C :   -0.365253
  13 H :    0.139016
  14 H :    0.154513
  15 H :    0.134295
  16 H :    0.140825
  17 C :    0.032025
  18 C :   -0.242582
  19 H :    0.152307
  20 C :   -0.143250
  21 C :   -0.186524
  22 S :    0.451691
  23 C :   -0.258102
  24 H :    0.374175
  25 H :    0.153321
  26 H :    0.168797
  27 H :    0.179579
  28 H :    0.176367
  29 H :    0.179165
  30 O :   -0.249237
  31 O :   -0.112738
  32 C :    0.237117
  33 C :   -0.367177
  34 H :    0.170902
  35 H :    0.174201
  36 H :    0.164245
  37 H :    0.178150
  38 H :    0.182788

  Mayer bond orders larger than 0.100000
B(  0-Ir,  1-C ) :   0.4039 B(  0-Ir,  2-C ) :   0.3408 B(  0-Ir,  3-C ) :   0.4563
B(  0-Ir,  4-C ) :   0.4655 B(  0-Ir,  5-C ) :   0.3582 B(  0-Ir,  6-N ) :   0.4941
B(  0-Ir, 20-C ) :   0.6167 B(  0-Ir, 31-O ) :   0.4267 B(  1-C ,  2-C ) :   1.1908
B(  1-C ,  4-C ) :   1.2089 B(  1-C , 27-H ) :   0.9190 B(  2-C ,  5-C ) :   1.2192
B(  2-C , 28-H ) :   0.9167 B(  3-C ,  4-C ) :   1.1283 B(  3-C ,  5-C ) :   1.1979
B(  3-C , 37-H ) :   0.9173 B(  4-C , 38-H ) :   0.9142 B(  5-C , 29-H ) :   0.9125
B(  6-N ,  7-C ) :   0.8984 B(  6-N , 17-C ) :   1.6079 B(  7-C ,  8-C ) :   0.9813
B(  7-C , 12-C ) :   0.9946 B(  7-C , 13-H ) :   0.8904 B(  8-C ,  9-H ) :   0.9079
B(  8-C , 10-H ) :   0.9190 B(  8-C , 11-H ) :   0.9052 B( 12-C , 14-H ) :   0.9050
B( 12-C , 15-H ) :   0.9120 B( 12-C , 16-H ) :   0.9134 B( 17-C , 18-C ) :   1.1383
B( 17-C , 19-H ) :   0.8782 B( 18-C , 20-C ) :   1.3330 B( 18-C , 22-S ) :   1.1534
B( 20-C , 21-C ) :   1.3180 B( 21-C , 23-C ) :   1.5104 B( 21-C , 25-H ) :   0.9047
B( 22-S , 23-C ) :   1.2506 B( 23-C , 26-H ) :   0.8902 B( 24-H , 30-O ) :   0.5896
B( 30-O , 32-C ) :   1.2608 B( 31-O , 32-C ) :   1.5910 B( 32-C , 33-C ) :   0.9444
B( 33-C , 34-H ) :   0.8902 B( 33-C , 35-H ) :   0.8872 B( 33-C , 36-H ) :   0.9026

Dispersion correction           -0.029691591
FINAL SINGLE POINT ENERGY     -1288.407714829234
Dispersion correction            ... done

DIPOLE MOMENT
-------------
                                X             Y             Z
Electronic contribution:     35.05903     -76.43185      78.07802
Nuclear contribution   :    -35.34283      76.64714     -77.58669
                        -----------------------------------------
Total Dipole Moment    :     -0.28379       0.21529       0.49133
                        -----------------------------------------
Magnitude (a.u.)       :      0.60687
Magnitude (Debye)      :      1.54255

Rotational constants in cm-1:     0.010507     0.008233     0.007755
Rotational constants in MHz :   314.984941   246.810761   232.491799

                             ****ORCA TERMINATED NORMALLY****
TOTAL RUN TIME: 0 days 0 hours 17 minutes 11 seconds 238 msec
