                         Program Version 5.0.3 -  RELEASE  -
|  1> ! EnGrad PBEh-3c
|  2> %output
|  3> xyzfile=True
|  4> end
|  5> %scf
|  6> maxiter 250
|  7> end
|  8> %output
|  9> Print[P_Hirshfeld] = 1
| 10> end
| 11> % maxcore
| 12> 4000
| 13> *xyz 1 1
| 14> Ir   0.61437541  -0.77084543   0.44216820
| 15> C    0.09098662  -2.92216330   1.01912877
| 16> C    0.08721287  -2.19607398   2.24070295
| 17> C    2.18613035  -2.01597620   1.29318637
| 18> C    1.36479154  -2.78521628   0.41416322
| 19> C    1.38398197  -1.68470558   2.41672142
| 20> N   -1.12882149  -0.16273044  -0.55122824
| 21> C   -2.50100781  -0.17880308   0.02707092
| 22> C   -2.76704848   1.02844445   0.91679166
| 23> H   -3.78105675   0.97036459   1.31015327
| 24> H   -2.68072428   1.95601453   0.34877983
| 25> H   -2.08611906   1.06139202   1.76602209
| 26> C   -3.59513209  -0.32150384  -1.02257264
| 27> H   -2.53478994  -1.07753239   0.65629470
| 28> H   -4.53893818  -0.48845510  -0.51686953
| 29> H   -3.72352031   0.57924544  -1.62965024
| 30> H   -3.42072617  -1.17439684  -1.68283555
| 31> C   -0.91688191   0.21354317  -1.76108242
| 32> C    0.40503754   0.15649173  -2.27453221
| 33> H   -1.74840607   0.52358860  -2.38286349
| 34> C    1.45244173  -0.21020412  -1.46250712
| 35> C    2.63736078  -0.24562319  -2.29292748
| 36> S    0.78181809   0.39331580  -3.95391310
| 37> C    2.41564661   0.03087820  -3.63296558
| 38> H    2.13156371   1.43697330  -0.55505788
| 39> H    3.66154089  -0.48063514  -1.99440030
| 40> H    3.13421275   0.04283707  -4.46413519
| 41> H   -0.68641411  -3.58068613   0.66222630
| 42> H   -0.70254516  -2.19898917   2.98020191
| 43> H    1.73260173  -1.17165424   3.30240226
| 44> O    2.11551487   2.12195064   0.01837701
| 45> O    0.48704741   1.19967273   1.26302056
| 46> C    1.21888356   2.13579783   0.94368608
| 47> C    1.03361773   3.45326050   1.70613031
| 48> H    0.91243961   4.31060694   1.02765756
| 49> H    1.89952990   3.69671131   2.33465473
| 50> H    0.15190305   3.46137343   2.38736385
| 51> H    3.22991361  -1.79294096   1.16791084
| 52> H    1.68108909  -3.31694280  -0.46624293
| 53> *
| 54>
| 55>                          ****END OF INPUT****

CARTESIAN COORDINATES (ANGSTROEM)
---------------------------------
  Ir     0.614375   -0.770845    0.442168
  C      0.090987   -2.922163    1.019129
  C      0.087213   -2.196074    2.240703
  C      2.186130   -2.015976    1.293186
  C      1.364792   -2.785216    0.414163
  C      1.383982   -1.684706    2.416721
  N     -1.128821   -0.162730   -0.551228
  C     -2.501008   -0.178803    0.027071
  C     -2.767048    1.028444    0.916792
  H     -3.781057    0.970365    1.310153
  H     -2.680724    1.956015    0.348780
  H     -2.086119    1.061392    1.766022
  C     -3.595132   -0.321504   -1.022573
  H     -2.534790   -1.077532    0.656295
  H     -4.538938   -0.488455   -0.516870
  H     -3.723520    0.579245   -1.629650
  H     -3.420726   -1.174397   -1.682836
  C     -0.916882    0.213543   -1.761082
  C      0.405038    0.156492   -2.274532
  H     -1.748406    0.523589   -2.382863
  C      1.452442   -0.210204   -1.462507
  C      2.637361   -0.245623   -2.292927
  S      0.781818    0.393316   -3.953913
  C      2.415647    0.030878   -3.632966
  H      2.131564    1.436973   -0.555058
  H      3.661541   -0.480635   -1.994400
  H      3.134213    0.042837   -4.464135
  H     -0.686414   -3.580686    0.662226
  H     -0.702545   -2.198989    2.980202
  H      1.732602   -1.171654    3.302402
  O      2.115515    2.121951    0.018377
  O      0.487047    1.199673    1.263021
  C      1.218884    2.135798    0.943686
  C      1.033618    3.453260    1.706130
  H      0.912440    4.310607    1.027658
  H      1.899530    3.696711    2.334655
  H      0.151903    3.461373    2.387364
  H      3.229914   -1.792941    1.167911
  H      1.681089   -3.316943   -0.466243

 Total Charge           Charge          ....    1
 Multiplicity           Mult            ....    1
 Number of Electrons    NEL             ....  164
 Basis Dimension        Dim             ....  358

ORBITAL ENERGIES
----------------

  NO   OCC          E(Eh)            E(eV)
   0   2.0000     -89.737832     -2441.8905
   1   2.0000     -19.685255      -535.6630
   2   2.0000     -19.674715      -535.3762
   3   2.0000     -14.813019      -403.0827
   4   2.0000     -10.748691      -292.4868
   5   2.0000     -10.635024      -289.3937
   6   2.0000     -10.621554      -289.0272
   7   2.0000     -10.621171      -289.0167
   8   2.0000     -10.606785      -288.6253
   9   2.0000     -10.606307      -288.6123
  10   2.0000     -10.604804      -288.5714
  11   2.0000     -10.600697      -288.4596
  12   2.0000     -10.600635      -288.4580
  13   2.0000     -10.592774      -288.2440
  14   2.0000     -10.589055      -288.1428
  15   2.0000     -10.576065      -287.7894
  16   2.0000     -10.575328      -287.7693
  17   2.0000     -10.543563      -286.9049
  18   2.0000     -10.539290      -286.7887
  19   2.0000      -8.377159      -227.9541
  20   2.0000      -6.267150      -170.5378
  21   2.0000      -6.263801      -170.4467
  22   2.0000      -6.261810      -170.3925
  23   2.0000      -4.008381      -109.0736
  24   2.0000      -2.322737       -63.2049
  25   2.0000      -2.295423       -62.4616
  26   2.0000      -2.290361       -62.3239
  27   2.0000      -1.395870       -37.9835
  28   2.0000      -1.302009       -35.4295
  29   2.0000      -1.183975       -32.2176
  30   2.0000      -1.151632       -31.3375
  31   2.0000      -1.100399       -29.9434
  32   2.0000      -1.008770       -27.4500
  33   2.0000      -0.975741       -26.5513
  34   2.0000      -0.960584       -26.1388
  35   2.0000      -0.956828       -26.0366
  36   2.0000      -0.943065       -25.6621
  37   2.0000      -0.939506       -25.5653
  38   2.0000      -0.888953       -24.1896
  39   2.0000      -0.870406       -23.6849
  40   2.0000      -0.849786       -23.1239
  41   2.0000      -0.781305       -21.2604
  42   2.0000      -0.770506       -20.9665
  43   2.0000      -0.767363       -20.8810
  44   2.0000      -0.763325       -20.7711
  45   2.0000      -0.758081       -20.6284
  46   2.0000      -0.751861       -20.4592
  47   2.0000      -0.714355       -19.4386
  48   2.0000      -0.703970       -19.1560
  49   2.0000      -0.688219       -18.7274
  50   2.0000      -0.679697       -18.4955
  51   2.0000      -0.667700       -18.1691
  52   2.0000      -0.644077       -17.5262
  53   2.0000      -0.628705       -17.1079
  54   2.0000      -0.622341       -16.9348
  55   2.0000      -0.617476       -16.8024
  56   2.0000      -0.610406       -16.6100
  57   2.0000      -0.597263       -16.2524
  58   2.0000      -0.590372       -16.0648
  59   2.0000      -0.588586       -16.0162
  60   2.0000      -0.587389       -15.9837
  61   2.0000      -0.585333       -15.9277
  62   2.0000      -0.580804       -15.8045
  63   2.0000      -0.575277       -15.6541
  64   2.0000      -0.570461       -15.5230
  65   2.0000      -0.560234       -15.2448
  66   2.0000      -0.550269       -14.9736
  67   2.0000      -0.549502       -14.9527
  68   2.0000      -0.536675       -14.6037
  69   2.0000      -0.531172       -14.4539
  70   2.0000      -0.528685       -14.3862
  71   2.0000      -0.527629       -14.3575
  72   2.0000      -0.508534       -13.8379
  73   2.0000      -0.498742       -13.5715
  74   2.0000      -0.496433       -13.5086
  75   2.0000      -0.478826       -13.0295
  76   2.0000      -0.471564       -12.8319
  77   2.0000      -0.446934       -12.1617
  78   2.0000      -0.434198       -11.8151
  79   2.0000      -0.409657       -11.1473
  80   2.0000      -0.399555       -10.8724
  81   2.0000      -0.382637       -10.4121
  82   0.0000      -0.175116        -4.7652
  83   0.0000      -0.158648        -4.3170
  84   0.0000      -0.126598        -3.4449
  85   0.0000      -0.110271        -3.0006
  86   0.0000      -0.071460        -1.9445

MULLIKEN ATOMIC CHARGES
-----------------------
   0 Ir:    0.570022
   1 C :   -0.196922
   2 C :   -0.263842
   3 C :   -0.263516
   4 C :   -0.288133
   5 C :   -0.158030
   6 N :   -0.472445
   7 C :   -0.097814
   8 C :   -0.634565
   9 H :    0.246875
  10 H :    0.223319
  11 H :    0.254505
  12 C :   -0.691217
  13 H :    0.243402
  14 H :    0.268002
  15 H :    0.227013
  16 H :    0.248803
  17 C :    0.079120
  18 C :   -0.186737
  19 H :    0.273888
  20 C :   -0.296886
  21 C :   -0.246921
  22 S :    0.295969
  23 C :   -0.389179
  24 H :    0.532169
  25 H :    0.253525
  26 H :    0.294475
  27 H :    0.279967
  28 H :    0.274755
  29 H :    0.280714
  30 O :   -0.533281
  31 O :   -0.422707
  32 C :    0.633905
  33 C :   -0.750270
  34 H :    0.282569
  35 H :    0.286448
  36 H :    0.277720
  37 H :    0.278736
  38 H :    0.286566
Sum of atomic charges:    1.0000000

LOEWDIN ATOMIC CHARGES
----------------------
   0 Ir:   -0.266145
   1 C :   -0.028919
   2 C :   -0.116249
   3 C :   -0.107781
   4 C :   -0.074241
   5 C :   -0.016728
   6 N :   -0.037394
   7 C :   -0.058919
   8 C :   -0.350865
   9 H :    0.145234
  10 H :    0.134795
  11 H :    0.144220
  12 C :   -0.364866
  13 H :    0.137791
  14 H :    0.153802
  15 H :    0.133644
  16 H :    0.140880
  17 C :    0.029763
  18 C :   -0.238845
  19 H :    0.153285
  20 C :   -0.132595
  21 C :   -0.183998
  22 S :    0.440699
  23 C :   -0.254771
  24 H :    0.334717
  25 H :    0.153154
  26 H :    0.168757
  27 H :    0.179416
  28 H :    0.175989
  29 H :    0.178722
  30 O :   -0.189453
  31 O :   -0.102479
  32 C :    0.220989
  33 C :   -0.374130
  34 H :    0.171122
  35 H :    0.174506
  36 H :    0.165291
  37 H :    0.178864
  38 H :    0.182740

  Mayer bond orders larger than 0.100000
B(  0-Ir,  1-C ) :   0.3840 B(  0-Ir,  2-C ) :   0.3124 B(  0-Ir,  3-C ) :   0.4439
B(  0-Ir,  4-C ) :   0.4734 B(  0-Ir,  5-C ) :   0.3481 B(  0-Ir,  6-N ) :   0.4984
B(  0-Ir, 20-C ) :   0.6467 B(  0-Ir, 31-O ) :   0.4216 B(  1-C ,  2-C ) :   1.2083
B(  1-C ,  4-C ) :   1.2048 B(  1-C , 27-H ) :   0.9156 B(  2-C ,  5-C ) :   1.2240
B(  2-C , 28-H ) :   0.9171 B(  3-C ,  4-C ) :   1.1331 B(  3-C ,  5-C ) :   1.2052
B(  3-C , 37-H ) :   0.9131 B(  4-C , 38-H ) :   0.9126 B(  5-C , 29-H ) :   0.9120
B(  6-N ,  7-C ) :   0.8995 B(  6-N , 17-C ) :   1.5980 B(  7-C ,  8-C ) :   0.9789
B(  7-C , 12-C ) :   0.9915 B(  7-C , 13-H ) :   0.8921 B(  8-C ,  9-H ) :   0.9077
B(  8-C , 10-H ) :   0.9188 B(  8-C , 11-H ) :   0.9077 B( 12-C , 14-H ) :   0.9044
B( 12-C , 15-H ) :   0.9121 B( 12-C , 16-H ) :   0.9139 B( 17-C , 18-C ) :   1.1461
B( 17-C , 19-H ) :   0.8779 B( 18-C , 20-C ) :   1.3361 B( 18-C , 22-S ) :   1.1479
B( 20-C , 21-C ) :   1.3277 B( 21-C , 23-C ) :   1.5152 B( 21-C , 25-H ) :   0.9064
B( 22-S , 23-C ) :   1.2482 B( 23-C , 26-H ) :   0.8887 B( 24-H , 30-O ) :   0.6264
B( 30-O , 32-C ) :   1.2925 B( 31-O , 32-C ) :   1.6055 B( 32-C , 33-C ) :   0.9423
B( 33-C , 34-H ) :   0.8894 B( 33-C , 35-H ) :   0.8853 B( 33-C , 36-H ) :   0.9054

Dispersion correction           -0.029706192
FINAL SINGLE POINT ENERGY     -1288.405257746846
Dispersion correction            ... done

DIPOLE MOMENT
-------------
                                X             Y             Z
Electronic contribution:     37.98714     -75.81653      74.38682
Nuclear contribution   :    -38.28610      76.15514     -73.76797
                        -----------------------------------------
Total Dipole Moment    :     -0.29896       0.33861       0.61885
                        -----------------------------------------
Magnitude (a.u.)       :      0.76617
Magnitude (Debye)      :      1.94744

Rotational constants in cm-1:     0.010517     0.008321     0.007804
Rotational constants in MHz :   315.280501   249.470920   233.950531

                             ****ORCA TERMINATED NORMALLY****
TOTAL RUN TIME: 0 days 0 hours 17 minutes 44 seconds 337 msec
