                         Program Version 5.0.3 -  RELEASE  -
|  1> ! EnGrad PBEh-3c
|  2> %output
|  3> xyzfile=True
|  4> end
|  5> %scf
|  6> maxiter 250
|  7> end
|  8> %output
|  9> Print[P_Hirshfeld] = 1
| 10> end
| 11> % maxcore
| 12> 4000
| 13> *xyz 1 1
| 14> Ir   0.62064211  -0.77870138   0.44504054
| 15> C    0.08254037  -2.92356425   1.03802957
| 16> C    0.11203635  -2.18498430   2.25483222
| 17> C    2.19428668  -2.03887290   1.26945161
| 18> C    1.34905980  -2.79237610   0.40772112
| 19> C    1.40706209  -1.68771364   2.40666804
| 20> N   -1.12461043  -0.16228946  -0.55558011
| 21> C   -2.49191863  -0.17348209   0.02393492
| 22> C   -2.77196741   1.04478628   0.89924573
| 23> H   -3.79041993   0.98952729   1.28505622
| 24> H   -2.68557645   1.96800144   0.32238968
| 25> H   -2.09408600   1.09554392   1.75306596
| 26> C   -3.58858112  -0.33360460  -1.02294058
| 27> H   -2.52840846  -1.06587483   0.66968738
| 28> H   -4.53261611  -0.49825943  -0.51901677
| 29> H   -3.72005484   0.55932938  -1.64437233
| 30> H   -3.40719621  -1.19199049  -1.67684000
| 31> C   -0.91757968   0.21260353  -1.76138727
| 32> C    0.40034342   0.15618886  -2.27163474
| 33> H   -1.75069827   0.52868401  -2.38556179
| 34> C    1.45796725  -0.20772062  -1.47282570
| 35> C    2.63369265  -0.24052398  -2.28708771
| 36> S    0.77873150   0.38788177  -3.94160687
| 37> C    2.41132819   0.02401438  -3.62238420
| 38> H    2.10583647   1.38203664  -0.55330855
| 39> H    3.66291599  -0.46553631  -2.00034923
| 40> H    3.12163998   0.03837884  -4.46389051
| 41> H   -0.71458072  -3.56223228   0.69217511
| 42> H   -0.67403798  -2.17754165   3.00376493
| 43> H    1.77995103  -1.16708047   3.28131296
| 44> O    2.10191415   2.19283875   0.08724674
| 45> O    0.50328143   1.19248596   1.25230990
| 46> C    1.20175728   2.14075444   0.96619966
| 47> C    1.03438746   3.43599245   1.70809088
| 48> H    0.91221132   4.29994906   1.03930594
| 49> H    1.88981980   3.68744085   2.34633387
| 50> H    0.15309552   3.45088780   2.38430896
| 51> H    3.23612320  -1.81678487   1.12739922
| 52> H    1.63830450  -3.32174817  -0.48323662
| 53> *
| 54>
| 55>                          ****END OF INPUT****

CARTESIAN COORDINATES (ANGSTROEM)
---------------------------------
  Ir     0.620642   -0.778701    0.445041
  C      0.082540   -2.923564    1.038030
  C      0.112036   -2.184984    2.254832
  C      2.194287   -2.038873    1.269452
  C      1.349060   -2.792376    0.407721
  C      1.407062   -1.687714    2.406668
  N     -1.124610   -0.162289   -0.555580
  C     -2.491919   -0.173482    0.023935
  C     -2.771967    1.044786    0.899246
  H     -3.790420    0.989527    1.285056
  H     -2.685576    1.968001    0.322390
  H     -2.094086    1.095544    1.753066
  C     -3.588581   -0.333605   -1.022941
  H     -2.528408   -1.065875    0.669687
  H     -4.532616   -0.498259   -0.519017
  H     -3.720055    0.559329   -1.644372
  H     -3.407196   -1.191990   -1.676840
  C     -0.917580    0.212604   -1.761387
  C      0.400343    0.156189   -2.271635
  H     -1.750698    0.528684   -2.385562
  C      1.457967   -0.207721   -1.472826
  C      2.633693   -0.240524   -2.287088
  S      0.778732    0.387882   -3.941607
  C      2.411328    0.024014   -3.622384
  H      2.105836    1.382037   -0.553309
  H      3.662916   -0.465536   -2.000349
  H      3.121640    0.038379   -4.463891
  H     -0.714581   -3.562232    0.692175
  H     -0.674038   -2.177542    3.003765
  H      1.779951   -1.167080    3.281313
  O      2.101914    2.192839    0.087247
  O      0.503281    1.192486    1.252310
  C      1.201757    2.140754    0.966200
  C      1.034387    3.435992    1.708091
  H      0.912211    4.299949    1.039306
  H      1.889820    3.687441    2.346334
  H      0.153096    3.450888    2.384309
  H      3.236123   -1.816785    1.127399
  H      1.638305   -3.321748   -0.483237

 Total Charge           Charge          ....    1
 Multiplicity           Mult            ....    1
 Number of Electrons    NEL             ....  164
 Basis Dimension        Dim             ....  358

ORBITAL ENERGIES
----------------

  NO   OCC          E(Eh)            E(eV)
   0   2.0000     -89.740574     -2441.9652
   1   2.0000     -19.686586      -535.6992
   2   2.0000     -19.667512      -535.1802
   3   2.0000     -14.814597      -403.1257
   4   2.0000     -10.733377      -292.0700
   5   2.0000     -10.636507      -289.4341
   6   2.0000     -10.623431      -289.0782
   7   2.0000     -10.622023      -289.0399
   8   2.0000     -10.607423      -288.6427
   9   2.0000     -10.607335      -288.6403
  10   2.0000     -10.606027      -288.6047
  11   2.0000     -10.602639      -288.5125
  12   2.0000     -10.602021      -288.4957
  13   2.0000     -10.595094      -288.3072
  14   2.0000     -10.590377      -288.1788
  15   2.0000     -10.577358      -287.8245
  16   2.0000     -10.564739      -287.4812
  17   2.0000     -10.544488      -286.9301
  18   2.0000     -10.540179      -286.8129
  19   2.0000      -8.380115      -228.0345
  20   2.0000      -6.270029      -170.6162
  21   2.0000      -6.266679      -170.5250
  22   2.0000      -6.264884      -170.4762
  23   2.0000      -4.009432      -109.1022
  24   2.0000      -2.324056       -63.2408
  25   2.0000      -2.296192       -62.4826
  26   2.0000      -2.291361       -62.3511
  27   2.0000      -1.391576       -37.8667
  28   2.0000      -1.296122       -35.2693
  29   2.0000      -1.187984       -32.3267
  30   2.0000      -1.153289       -31.3826
  31   2.0000      -1.106708       -30.1151
  32   2.0000      -1.010046       -27.4847
  33   2.0000      -0.968428       -26.3523
  34   2.0000      -0.962066       -26.1792
  35   2.0000      -0.958019       -26.0690
  36   2.0000      -0.946904       -25.7666
  37   2.0000      -0.943321       -25.6691
  38   2.0000      -0.888695       -24.1826
  39   2.0000      -0.853156       -23.2156
  40   2.0000      -0.832624       -22.6568
  41   2.0000      -0.783263       -21.3137
  42   2.0000      -0.771336       -20.9891
  43   2.0000      -0.768052       -20.8998
  44   2.0000      -0.764955       -20.8155
  45   2.0000      -0.757947       -20.6248
  46   2.0000      -0.752849       -20.4861
  47   2.0000      -0.716603       -19.4998
  48   2.0000      -0.704813       -19.1789
  49   2.0000      -0.690792       -18.7974
  50   2.0000      -0.682618       -18.5750
  51   2.0000      -0.669839       -18.2273
  52   2.0000      -0.644868       -17.5478
  53   2.0000      -0.629764       -17.1367
  54   2.0000      -0.622931       -16.9508
  55   2.0000      -0.619429       -16.8555
  56   2.0000      -0.612625       -16.6704
  57   2.0000      -0.597692       -16.2640
  58   2.0000      -0.591454       -16.0943
  59   2.0000      -0.588799       -16.0220
  60   2.0000      -0.588467       -16.0130
  61   2.0000      -0.582381       -15.8474
  62   2.0000      -0.579110       -15.7584
  63   2.0000      -0.569351       -15.4928
  64   2.0000      -0.568606       -15.4726
  65   2.0000      -0.561427       -15.2772
  66   2.0000      -0.551252       -15.0003
  67   2.0000      -0.545684       -14.8488
  68   2.0000      -0.535361       -14.5679
  69   2.0000      -0.531224       -14.4553
  70   2.0000      -0.530134       -14.4257
  71   2.0000      -0.528109       -14.3706
  72   2.0000      -0.508686       -13.8420
  73   2.0000      -0.499328       -13.5874
  74   2.0000      -0.497300       -13.5322
  75   2.0000      -0.479570       -13.0498
  76   2.0000      -0.471868       -12.8402
  77   2.0000      -0.448662       -12.2087
  78   2.0000      -0.436144       -11.8681
  79   2.0000      -0.410558       -11.1718
  80   2.0000      -0.403323       -10.9750
  81   2.0000      -0.384799       -10.4709
  82   0.0000      -0.177488        -4.8297
  83   0.0000      -0.160548        -4.3687
  84   0.0000      -0.128588        -3.4990
  85   0.0000      -0.094640        -2.5753
  86   0.0000      -0.072769        -1.9801

MULLIKEN ATOMIC CHARGES
-----------------------
   0 Ir:    0.568323
   1 C :   -0.191712
   2 C :   -0.263344
   3 C :   -0.255962
   4 C :   -0.295133
   5 C :   -0.161772
   6 N :   -0.467392
   7 C :   -0.099224
   8 C :   -0.634084
   9 H :    0.246912
  10 H :    0.223568
  11 H :    0.254770
  12 C :   -0.690876
  13 H :    0.242579
  14 H :    0.268696
  15 H :    0.226442
  16 H :    0.247951
  17 C :    0.079148
  18 C :   -0.178687
  19 H :    0.274659
  20 C :   -0.314126
  21 C :   -0.238700
  22 S :    0.302838
  23 C :   -0.392411
  24 H :    0.526131
  25 H :    0.256053
  26 H :    0.295831
  27 H :    0.280799
  28 H :    0.275948
  29 H :    0.282067
  30 O :   -0.521367
  31 O :   -0.425594
  32 C :    0.634796
  33 C :   -0.763425
  34 H :    0.282289
  35 H :    0.287127
  36 H :    0.269731
  37 H :    0.280070
  38 H :    0.287081
Sum of atomic charges:    1.0000000

LOEWDIN ATOMIC CHARGES
----------------------
   0 Ir:   -0.266166
   1 C :   -0.026464
   2 C :   -0.114751
   3 C :   -0.103214
   4 C :   -0.076950
   5 C :   -0.017849
   6 N :   -0.033632
   7 C :   -0.059774
   8 C :   -0.350903
   9 H :    0.145527
  10 H :    0.134744
  11 H :    0.144417
  12 C :   -0.364826
  13 H :    0.137685
  14 H :    0.153790
  15 H :    0.133258
  16 H :    0.140375
  17 C :    0.028056
  18 C :   -0.237532
  19 H :    0.154328
  20 C :   -0.144485
  21 C :   -0.181332
  22 S :    0.450968
  23 C :   -0.254586
  24 H :    0.374014
  25 H :    0.155226
  26 H :    0.169162
  27 H :    0.179673
  28 H :    0.176885
  29 H :    0.179842
  30 O :   -0.191980
  31 O :   -0.097367
  32 C :    0.172932
  33 C :   -0.377532
  34 H :    0.171173
  35 H :    0.175176
  36 H :    0.159889
  37 H :    0.179552
  38 H :    0.182671

  Mayer bond orders larger than 0.100000
B(  0-Ir,  1-C ) :   0.3856 B(  0-Ir,  2-C ) :   0.3162 B(  0-Ir,  3-C ) :   0.4452
B(  0-Ir,  4-C ) :   0.4780 B(  0-Ir,  5-C ) :   0.3543 B(  0-Ir,  6-N ) :   0.4926
B(  0-Ir, 20-C ) :   0.6327 B(  0-Ir, 31-O ) :   0.4201 B(  1-C ,  2-C ) :   1.2076
B(  1-C ,  4-C ) :   1.2022 B(  1-C , 27-H ) :   0.9144 B(  2-C ,  5-C ) :   1.2204
B(  2-C , 28-H ) :   0.9164 B(  3-C ,  4-C ) :   1.1325 B(  3-C ,  5-C ) :   1.2035
B(  3-C , 37-H ) :   0.9119 B(  4-C , 38-H ) :   0.9118 B(  5-C , 29-H ) :   0.9114
B(  6-N ,  7-C ) :   0.9017 B(  6-N , 17-C ) :   1.6040 B(  7-C ,  8-C ) :   0.9773
B(  7-C , 12-C ) :   0.9899 B(  7-C , 13-H ) :   0.8925 B(  8-C ,  9-H ) :   0.9076
B(  8-C , 10-H ) :   0.9185 B(  8-C , 11-H ) :   0.9080 B( 12-C , 14-H ) :   0.9043
B( 12-C , 15-H ) :   0.9120 B( 12-C , 16-H ) :   0.9141 B( 17-C , 18-C ) :   1.1424
B( 17-C , 19-H ) :   0.8773 B( 18-C , 20-C ) :   1.3220 B( 18-C , 22-S ) :   1.1587
B( 20-C , 21-C ) :   1.3352 B( 21-C , 23-C ) :   1.5079 B( 21-C , 25-H ) :   0.9055
B( 22-S , 23-C ) :   1.2551 B( 23-C , 26-H ) :   0.8877 B( 24-H , 30-O ) :   0.5894
B( 30-O , 32-C ) :   1.3362 B( 31-O , 32-C ) :   1.6056 B( 32-C , 33-C ) :   0.9396
B( 33-C , 34-H ) :   0.8911 B( 33-C , 35-H ) :   0.8862 B( 33-C , 36-H ) :   0.9093

Dispersion correction           -0.029693886
FINAL SINGLE POINT ENERGY     -1288.412403727203
Dispersion correction            ... done

DIPOLE MOMENT
-------------
                                X             Y             Z
Electronic contribution:     38.53860     -76.83803      74.23792
Nuclear contribution   :    -38.85777      77.02575     -73.76086
                        -----------------------------------------
Total Dipole Moment    :     -0.31917       0.18772       0.47706
                        -----------------------------------------
Magnitude (a.u.)       :      0.60390
Magnitude (Debye)      :      1.53500

Rotational constants in cm-1:     0.010472     0.008318     0.007824
Rotational constants in MHz :   313.949984   249.380810   234.556899

                             ****ORCA TERMINATED NORMALLY****
TOTAL RUN TIME: 0 days 0 hours 17 minutes 46 seconds 347 msec
