                         Program Version 5.0.3 -  RELEASE  -
|  1> ! EnGrad PBEh-3c
|  2> %output
|  3> xyzfile=True
|  4> end
|  5> %scf
|  6> maxiter 250
|  7> end
|  8> %output
|  9> Print[P_Hirshfeld] = 1
| 10> end
| 11> % maxcore
| 12> 4000
| 13> *xyz 1 1
| 14> Ir   0.63346916  -0.78168106   0.43708004
| 15> C    0.07534615  -2.92417369   1.06357637
| 16> C    0.13124030  -2.17740131   2.26893682
| 17> C    2.20410764  -2.06294930   1.25120282
| 18> C    1.32559383  -2.80561654   0.39859512
| 19> C    1.44711048  -1.68958387   2.39290204
| 20> N   -1.12083286  -0.16332270  -0.55839704
| 21> C   -2.48723336  -0.17016260   0.02528601
| 22> C   -2.77558658   1.06573035   0.88027030
| 23> H   -3.80138170   1.01145765   1.25444106
| 24> H   -2.69130602   1.98222443   0.29137970
| 25> H   -2.10400642   1.13602255   1.73638624
| 26> C   -3.57845030  -0.34752563  -1.02772912
| 27> H   -2.51968905  -1.05058762   0.68400212
| 28> H   -4.52550779  -0.51002624  -0.52023921
| 29> H   -3.71619746   0.53492045  -1.66136920
| 30> H   -3.39153851  -1.21194418  -1.66920342
| 31> C   -0.92198028   0.21418309  -1.76480361
| 32> C    0.39872285   0.15497096  -2.27272572
| 33> H   -1.75229001   0.53366100  -2.38672123
| 34> C    1.45819827  -0.20438040  -1.45976775
| 35> C    2.63707914  -0.23402501  -2.28287311
| 36> S    0.77458613   0.38307331  -3.93181036
| 37> C    2.40462695   0.01663115  -3.61874405
| 38> H    2.07123654   1.37013315  -0.50342706
| 39> H    3.66460528  -0.44852745  -2.00598701
| 40> H    3.10701765   0.03353462  -4.46351338
| 41> H   -0.74792676  -3.53912777   0.72704921
| 42> H   -0.63966305  -2.15170317   3.03126873
| 43> H    1.83525780  -1.16158459   3.25516187
| 44> O    2.10555351   2.21743978   0.09785022
| 45> O    0.50418917   1.16879633   1.24969781
| 46> C    1.19038069   2.14938651   0.99321378
| 47> C    1.02659569   3.42669482   1.72087062
| 48> H    0.91195721   4.28719078   1.05295064
| 49> H    1.87890603   3.67560042   2.35999511
| 50> H    0.15308136   3.44016785   2.38277495
| 51> H    3.24236573  -1.84473675   1.07885763
| 52> H    1.58783998  -3.32654731  -0.50429134
| 53> *
| 54>
| 55>                          ****END OF INPUT****

CARTESIAN COORDINATES (ANGSTROEM)
---------------------------------
  Ir     0.633469   -0.781681    0.437080
  C      0.075346   -2.924174    1.063576
  C      0.131240   -2.177401    2.268937
  C      2.204108   -2.062949    1.251203
  C      1.325594   -2.805617    0.398595
  C      1.447110   -1.689584    2.392902
  N     -1.120833   -0.163323   -0.558397
  C     -2.487233   -0.170163    0.025286
  C     -2.775587    1.065730    0.880270
  H     -3.801382    1.011458    1.254441
  H     -2.691306    1.982224    0.291380
  H     -2.104006    1.136023    1.736386
  C     -3.578450   -0.347526   -1.027729
  H     -2.519689   -1.050588    0.684002
  H     -4.525508   -0.510026   -0.520239
  H     -3.716197    0.534920   -1.661369
  H     -3.391539   -1.211944   -1.669203
  C     -0.921980    0.214183   -1.764804
  C      0.398723    0.154971   -2.272726
  H     -1.752290    0.533661   -2.386721
  C      1.458198   -0.204380   -1.459768
  C      2.637079   -0.234025   -2.282873
  S      0.774586    0.383073   -3.931810
  C      2.404627    0.016631   -3.618744
  H      2.071237    1.370133   -0.503427
  H      3.664605   -0.448527   -2.005987
  H      3.107018    0.033535   -4.463513
  H     -0.747927   -3.539128    0.727049
  H     -0.639663   -2.151703    3.031269
  H      1.835258   -1.161585    3.255162
  O      2.105554    2.217440    0.097850
  O      0.504189    1.168796    1.249698
  C      1.190381    2.149387    0.993214
  C      1.026596    3.426695    1.720871
  H      0.911957    4.287191    1.052951
  H      1.878906    3.675600    2.359995
  H      0.153081    3.440168    2.382775
  H      3.242366   -1.844737    1.078858
  H      1.587840   -3.326547   -0.504291

 Total Charge           Charge          ....    1
 Multiplicity           Mult            ....    1
 Number of Electrons    NEL             ....  164
 Basis Dimension        Dim             ....  358

ORBITAL ENERGIES
----------------

  NO   OCC          E(Eh)            E(eV)
   0   2.0000     -89.739483     -2441.9355
   1   2.0000     -19.684912      -535.6537
   2   2.0000     -19.670132      -535.2515
   3   2.0000     -14.814364      -403.1193
   4   2.0000     -10.735706      -292.1334
   5   2.0000     -10.636166      -289.4248
   6   2.0000     -10.623947      -289.0923
   7   2.0000     -10.622860      -289.0627
   8   2.0000     -10.608019      -288.6589
   9   2.0000     -10.606545      -288.6188
  10   2.0000     -10.606429      -288.6156
  11   2.0000     -10.603730      -288.5422
  12   2.0000     -10.599876      -288.4373
  13   2.0000     -10.594190      -288.2826
  14   2.0000     -10.590811      -288.1906
  15   2.0000     -10.576161      -287.7920
  16   2.0000     -10.565027      -287.4890
  17   2.0000     -10.545063      -286.9457
  18   2.0000     -10.541287      -286.8430
  19   2.0000      -8.379300      -228.0123
  20   2.0000      -6.269203      -170.5937
  21   2.0000      -6.265832      -170.5020
  22   2.0000      -6.264097      -170.4548
  23   2.0000      -4.009437      -109.1023
  24   2.0000      -2.323927       -63.2373
  25   2.0000      -2.296329       -62.4863
  26   2.0000      -2.291480       -62.3543
  27   2.0000      -1.383193       -37.6386
  28   2.0000      -1.289046       -35.0767
  29   2.0000      -1.187721       -32.3195
  30   2.0000      -1.151703       -31.3394
  31   2.0000      -1.106103       -30.0986
  32   2.0000      -1.009179       -27.4611
  33   2.0000      -0.976152       -26.5624
  34   2.0000      -0.960812       -26.1450
  35   2.0000      -0.957829       -26.0639
  36   2.0000      -0.946643       -25.7595
  37   2.0000      -0.941819       -25.6282
  38   2.0000      -0.888539       -24.1784
  39   2.0000      -0.852864       -23.2076
  40   2.0000      -0.822719       -22.3873
  41   2.0000      -0.783439       -21.3185
  42   2.0000      -0.771754       -21.0005
  43   2.0000      -0.767851       -20.8943
  44   2.0000      -0.764363       -20.7994
  45   2.0000      -0.758263       -20.6334
  46   2.0000      -0.751988       -20.4626
  47   2.0000      -0.717141       -19.5144
  48   2.0000      -0.702980       -19.1291
  49   2.0000      -0.687548       -18.7091
  50   2.0000      -0.682008       -18.5584
  51   2.0000      -0.669653       -18.2222
  52   2.0000      -0.644442       -17.5362
  53   2.0000      -0.629341       -17.1252
  54   2.0000      -0.622821       -16.9478
  55   2.0000      -0.618160       -16.8210
  56   2.0000      -0.612201       -16.6588
  57   2.0000      -0.601001       -16.3541
  58   2.0000      -0.591315       -16.0905
  59   2.0000      -0.590011       -16.0550
  60   2.0000      -0.588733       -16.0202
  61   2.0000      -0.582491       -15.8504
  62   2.0000      -0.581255       -15.8167
  63   2.0000      -0.571814       -15.5598
  64   2.0000      -0.570000       -15.5105
  65   2.0000      -0.561844       -15.2886
  66   2.0000      -0.550840       -14.9891
  67   2.0000      -0.544581       -14.8188
  68   2.0000      -0.537606       -14.6290
  69   2.0000      -0.531303       -14.4575
  70   2.0000      -0.530460       -14.4346
  71   2.0000      -0.528847       -14.3906
  72   2.0000      -0.509786       -13.8720
  73   2.0000      -0.499738       -13.5986
  74   2.0000      -0.498045       -13.5525
  75   2.0000      -0.478552       -13.0221
  76   2.0000      -0.472634       -12.8610
  77   2.0000      -0.448682       -12.2092
  78   2.0000      -0.435995       -11.8640
  79   2.0000      -0.410362       -11.1665
  80   2.0000      -0.401859       -10.9351
  81   2.0000      -0.383349       -10.4314
  82   0.0000      -0.177334        -4.8255
  83   0.0000      -0.160880        -4.3778
  84   0.0000      -0.126885        -3.4527
  85   0.0000      -0.102214        -2.7814
  86   0.0000      -0.071636        -1.9493

MULLIKEN ATOMIC CHARGES
-----------------------
   0 Ir:    0.572864
   1 C :   -0.179046
   2 C :   -0.266141
   3 C :   -0.248001
   4 C :   -0.309411
   5 C :   -0.165802
   6 N :   -0.465669
   7 C :   -0.099340
   8 C :   -0.634310
   9 H :    0.246224
  10 H :    0.223632
  11 H :    0.253854
  12 C :   -0.691613
  13 H :    0.243077
  14 H :    0.267360
  15 H :    0.227309
  16 H :    0.249085
  17 C :    0.080450
  18 C :   -0.182230
  19 H :    0.275070
  20 C :   -0.320607
  21 C :   -0.231683
  22 S :    0.305032
  23 C :   -0.392718
  24 H :    0.522218
  25 H :    0.255283
  26 H :    0.294997
  27 H :    0.281325
  28 H :    0.275981
  29 H :    0.282195
  30 O :   -0.530210
  31 O :   -0.436978
  32 C :    0.641715
  33 C :   -0.767275
  34 H :    0.287921
  35 H :    0.291671
  36 H :    0.273361
  37 H :    0.282013
  38 H :    0.288398
Sum of atomic charges:    1.0000000

LOEWDIN ATOMIC CHARGES
----------------------
   0 Ir:   -0.266142
   1 C :   -0.023868
   2 C :   -0.116144
   3 C :   -0.099986
   4 C :   -0.083183
   5 C :   -0.018581
   6 N :   -0.034102
   7 C :   -0.059241
   8 C :   -0.351480
   9 H :    0.145604
  10 H :    0.134533
  11 H :    0.143741
  12 C :   -0.364880
  13 H :    0.137776
  14 H :    0.153468
  15 H :    0.133370
  16 H :    0.140600
  17 C :    0.028188
  18 C :   -0.239999
  19 H :    0.154593
  20 C :   -0.143796
  21 C :   -0.177456
  22 S :    0.456219
  23 C :   -0.256936
  24 H :    0.371402
  25 H :    0.154940
  26 H :    0.168288
  27 H :    0.179680
  28 H :    0.176644
  29 H :    0.179676
  30 O :   -0.209900
  31 O :   -0.104701
  32 C :    0.190289
  33 C :   -0.376844
  34 H :    0.175147
  35 H :    0.179005
  36 H :    0.160912
  37 H :    0.180174
  38 H :    0.182989

  Mayer bond orders larger than 0.100000
B(  0-Ir,  1-C ) :   0.3703 B(  0-Ir,  2-C ) :   0.3128 B(  0-Ir,  3-C ) :   0.4363
B(  0-Ir,  4-C ) :   0.4865 B(  0-Ir,  5-C ) :   0.3575 B(  0-Ir,  6-N ) :   0.4940
B(  0-Ir, 20-C ) :   0.6360 B(  0-Ir, 31-O ) :   0.4163 B(  1-C ,  2-C ) :   1.2201
B(  1-C ,  4-C ) :   1.1985 B(  1-C , 27-H ) :   0.9128 B(  2-C ,  5-C ) :   1.2082
B(  2-C , 28-H ) :   0.9165 B(  3-C ,  4-C ) :   1.1299 B(  3-C ,  5-C ) :   1.2133
B(  3-C , 37-H ) :   0.9102 B(  4-C , 38-H ) :   0.9106 B(  5-C , 29-H ) :   0.9113
B(  6-N ,  7-C ) :   0.9018 B(  6-N , 17-C ) :   1.6031 B(  7-C ,  8-C ) :   0.9764
B(  7-C , 12-C ) :   0.9890 B(  7-C , 13-H ) :   0.8931 B(  8-C ,  9-H ) :   0.9079
B(  8-C , 10-H ) :   0.9185 B(  8-C , 11-H ) :   0.9087 B( 12-C , 14-H ) :   0.9050
B( 12-C , 15-H ) :   0.9115 B( 12-C , 16-H ) :   0.9136 B( 17-C , 18-C ) :   1.1430
B( 17-C , 19-H ) :   0.8768 B( 18-C , 20-C ) :   1.3179 B( 18-C , 22-S ) :   1.1630
B( 20-C , 21-C ) :   1.3325 B( 21-C , 23-C ) :   1.5124 B( 21-C , 25-H ) :   0.9060
B( 22-S , 23-C ) :   1.2527 B( 23-C , 26-H ) :   0.8879 B( 24-H , 30-O ) :   0.5938
B( 30-O , 32-C ) :   1.3243 B( 31-O , 32-C ) :   1.5974 B( 32-C , 33-C ) :   0.9505
B( 33-C , 34-H ) :   0.8882 B( 33-C , 35-H ) :   0.8829 B( 33-C , 36-H ) :   0.9068

Dispersion correction           -0.029694147
FINAL SINGLE POINT ENERGY     -1288.415391955687
Dispersion correction            ... done

DIPOLE MOMENT
-------------
                                X             Y             Z
Electronic contribution:     39.67661     -76.98396      73.38148
Nuclear contribution   :    -40.06103      77.23445     -72.82670
                        -----------------------------------------
Total Dipole Moment    :     -0.38442       0.25049       0.55478
                        -----------------------------------------
Magnitude (a.u.)       :      0.71993
Magnitude (Debye)      :      1.82992

Rotational constants in cm-1:     0.010441     0.008333     0.007838
Rotational constants in MHz :   313.019851   249.820320   234.971826

                             ****ORCA TERMINATED NORMALLY****
TOTAL RUN TIME: 0 days 0 hours 17 minutes 43 seconds 442 msec
