                         Program Version 5.0.3 -  RELEASE  -
|  1> ! EnGrad PBEh-3c
|  2> %output
|  3> xyzfile=True
|  4> end
|  5> %scf
|  6> maxiter 250
|  7> end
|  8> %output
|  9> Print[P_Hirshfeld] = 1
| 10> end
| 11> % maxcore
| 12> 4000
| 13> *xyz 1 1
| 14> Ir   0.65459946  -0.79637013   0.43746027
| 15> C    0.05673239  -2.91934175   1.11960781
| 16> C    0.18118837  -2.15959494   2.30476495
| 17> C    2.22334519  -2.11826156   1.19925651
| 18> C    1.27076297  -2.83764161   0.37689305
| 19> C    1.54007148  -1.69385130   2.35630811
| 20> N   -1.11082287  -0.16655467  -0.55775737
| 21> C   -2.47339554  -0.16018477   0.02626608
| 22> C   -2.78436244   1.11448968   0.83162762
| 23> H   -3.82434484   1.06466917   1.18117571
| 24> H   -2.70516502   2.01465551   0.21512651
| 25> H   -2.12944372   1.23347022   1.69488484
| 26> C   -3.55524593  -0.38158967  -1.03573632
| 27> H   -2.49942361  -1.01026293   0.71665738
| 28> H   -4.50792653  -0.53882822  -0.52450342
| 29> H   -3.70577196   0.47496929  -1.70030970
| 30> H   -3.35385027  -1.26056646  -1.64921773
| 31> C   -0.93059196   0.21634327  -1.77126802
| 32> C    0.39383120   0.15483418  -2.27172718
| 33> H   -1.75422056   0.54614261  -2.39028489
| 34> C    1.45965015  -0.19381318  -1.44717706
| 35> C    2.64443041  -0.22287566  -2.27446479
| 36> S    0.76593874   0.36877151  -3.91019805
| 37> C    2.38984165   0.00453168  -3.61216539
| 38> H    2.00114652   1.35312276  -0.39099272
| 39> H    3.66911284  -0.40776379  -2.01543370
| 40> H    3.07120532   0.02051601  -4.45695088
| 41> H   -0.82717325  -3.48296859   0.81360351
| 42> H   -0.55253293  -2.08871966   3.09589864
| 43> H    1.96905066  -1.14904804   3.18942748
| 44> O    2.09034040   2.24858344   0.13434407
| 45> O    0.51155264   1.12505773   1.24402571
| 46> C    1.17462678   2.17006054   1.04304817
| 47> C    1.00141832   3.41774793   1.76472239
| 48> H    0.91197944   4.25463355   1.08333291
| 49> H    1.85471822   3.64517131   2.39297789
| 50> H    0.14843042   3.41317249   2.38295773
| 51> H    3.25733350  -1.91457292   0.96075142
| 52> H    1.46597788  -3.34177049  -0.55329626
| 53> *
| 54>
| 55>                          ****END OF INPUT****

CARTESIAN COORDINATES (ANGSTROEM)
---------------------------------
  Ir     0.654599   -0.796370    0.437460
  C      0.056732   -2.919342    1.119608
  C      0.181188   -2.159595    2.304765
  C      2.223345   -2.118262    1.199257
  C      1.270763   -2.837642    0.376893
  C      1.540071   -1.693851    2.356308
  N     -1.110823   -0.166555   -0.557757
  C     -2.473396   -0.160185    0.026266
  C     -2.784362    1.114490    0.831628
  H     -3.824345    1.064669    1.181176
  H     -2.705165    2.014656    0.215127
  H     -2.129444    1.233470    1.694885
  C     -3.555246   -0.381590   -1.035736
  H     -2.499424   -1.010263    0.716657
  H     -4.507927   -0.538828   -0.524503
  H     -3.705772    0.474969   -1.700310
  H     -3.353850   -1.260566   -1.649218
  C     -0.930592    0.216343   -1.771268
  C      0.393831    0.154834   -2.271727
  H     -1.754221    0.546143   -2.390285
  C      1.459650   -0.193813   -1.447177
  C      2.644430   -0.222876   -2.274465
  S      0.765939    0.368772   -3.910198
  C      2.389842    0.004532   -3.612165
  H      2.001147    1.353123   -0.390993
  H      3.669113   -0.407764   -2.015434
  H      3.071205    0.020516   -4.456951
  H     -0.827173   -3.482969    0.813604
  H     -0.552533   -2.088720    3.095899
  H      1.969051   -1.149048    3.189427
  O      2.090340    2.248583    0.134344
  O      0.511553    1.125058    1.244026
  C      1.174627    2.170061    1.043048
  C      1.001418    3.417748    1.764722
  H      0.911979    4.254634    1.083333
  H      1.854718    3.645171    2.392978
  H      0.148430    3.413172    2.382958
  H      3.257334   -1.914573    0.960751
  H      1.465978   -3.341770   -0.553296

 Total Charge           Charge          ....    1
 Multiplicity           Mult            ....    1
 Number of Electrons    NEL             ....  164
 Basis Dimension        Dim             ....  358

ORBITAL ENERGIES
----------------

  NO   OCC          E(Eh)            E(eV)
   0   2.0000     -89.737206     -2441.8735
   1   2.0000     -19.685578      -535.6718
   2   2.0000     -19.668690      -535.2123
   3   2.0000     -14.813370      -403.0923
   4   2.0000     -10.738752      -292.2163
   5   2.0000     -10.635966      -289.4194
   6   2.0000     -10.625114      -289.1240
   7   2.0000     -10.624272      -289.1011
   8   2.0000     -10.607744      -288.6514
   9   2.0000     -10.607587      -288.6471
  10   2.0000     -10.607199      -288.6366
  11   2.0000     -10.605886      -288.6008
  12   2.0000     -10.595344      -288.3140
  13   2.0000     -10.591732      -288.2157
  14   2.0000     -10.590251      -288.1754
  15   2.0000     -10.573659      -287.7239
  16   2.0000     -10.564195      -287.4663
  17   2.0000     -10.545516      -286.9581
  18   2.0000     -10.542592      -286.8785
  19   2.0000      -8.377691      -227.9686
  20   2.0000      -6.267550      -170.5487
  21   2.0000      -6.264145      -170.4560
  22   2.0000      -6.262562      -170.4130
  23   2.0000      -4.009024      -109.0911
  24   2.0000      -2.323513       -63.2260
  25   2.0000      -2.295913       -62.4750
  26   2.0000      -2.291127       -62.3447
  27   2.0000      -1.378601       -37.5136
  28   2.0000      -1.276382       -34.7321
  29   2.0000      -1.185766       -32.2663
  30   2.0000      -1.147467       -31.2242
  31   2.0000      -1.106734       -30.1158
  32   2.0000      -1.006677       -27.3931
  33   2.0000      -0.991990       -26.9934
  34   2.0000      -0.961720       -26.1697
  35   2.0000      -0.953111       -25.9355
  36   2.0000      -0.946717       -25.7615
  37   2.0000      -0.938728       -25.5441
  38   2.0000      -0.887191       -24.1417
  39   2.0000      -0.853077       -23.2134
  40   2.0000      -0.816976       -22.2310
  41   2.0000      -0.783748       -21.3269
  42   2.0000      -0.771185       -20.9850
  43   2.0000      -0.766555       -20.8590
  44   2.0000      -0.762696       -20.7540
  45   2.0000      -0.757476       -20.6120
  46   2.0000      -0.749734       -20.4013
  47   2.0000      -0.718206       -19.5434
  48   2.0000      -0.701549       -19.0901
  49   2.0000      -0.685926       -18.6650
  50   2.0000      -0.680824       -18.5262
  51   2.0000      -0.668691       -18.1960
  52   2.0000      -0.643503       -17.5106
  53   2.0000      -0.628831       -17.1114
  54   2.0000      -0.622657       -16.9434
  55   2.0000      -0.616051       -16.7636
  56   2.0000      -0.611101       -16.6289
  57   2.0000      -0.605622       -16.4798
  58   2.0000      -0.596370       -16.2281
  59   2.0000      -0.590373       -16.0649
  60   2.0000      -0.588942       -16.0259
  61   2.0000      -0.587411       -15.9843
  62   2.0000      -0.580912       -15.8074
  63   2.0000      -0.577641       -15.7184
  64   2.0000      -0.571526       -15.5520
  65   2.0000      -0.562416       -15.3041
  66   2.0000      -0.549734       -14.9590
  67   2.0000      -0.543765       -14.7966
  68   2.0000      -0.539240       -14.6735
  69   2.0000      -0.531819       -14.4715
  70   2.0000      -0.529338       -14.4040
  71   2.0000      -0.528451       -14.3799
  72   2.0000      -0.510464       -13.8904
  73   2.0000      -0.499988       -13.6054
  74   2.0000      -0.496274       -13.5043
  75   2.0000      -0.474836       -12.9209
  76   2.0000      -0.472417       -12.8551
  77   2.0000      -0.447485       -12.1767
  78   2.0000      -0.436423       -11.8757
  79   2.0000      -0.408939       -11.1278
  80   2.0000      -0.399791       -10.8789
  81   2.0000      -0.380862       -10.3638
  82   0.0000      -0.175826        -4.7845
  83   0.0000      -0.159387        -4.3371
  84   0.0000      -0.124635        -3.3915
  85   0.0000      -0.111043        -3.0216
  86   0.0000      -0.070329        -1.9137

MULLIKEN ATOMIC CHARGES
-----------------------
   0 Ir:    0.573989
   1 C :   -0.164925
   2 C :   -0.265872
   3 C :   -0.232867
   4 C :   -0.327521
   5 C :   -0.178265
   6 N :   -0.463551
   7 C :   -0.099025
   8 C :   -0.635317
   9 H :    0.244720
  10 H :    0.223302
  11 H :    0.251861
  12 C :   -0.692732
  13 H :    0.243538
  14 H :    0.265017
  15 H :    0.228092
  16 H :    0.250417
  17 C :    0.081796
  18 C :   -0.187930
  19 H :    0.276814
  20 C :   -0.319841
  21 C :   -0.224699
  22 S :    0.309116
  23 C :   -0.394997
  24 H :    0.519765
  25 H :    0.253784
  26 H :    0.293352
  27 H :    0.282007
  28 H :    0.276427
  29 H :    0.282550
  30 O :   -0.526859
  31 O :   -0.469079
  32 C :    0.640917
  33 C :   -0.762990
  34 H :    0.293641
  35 H :    0.296701
  36 H :    0.282805
  37 H :    0.284838
  38 H :    0.291020
Sum of atomic charges:    1.0000000

LOEWDIN ATOMIC CHARGES
----------------------
   0 Ir:   -0.271090
   1 C :   -0.021343
   2 C :   -0.115520
   3 C :   -0.090336
   4 C :   -0.092569
   5 C :   -0.022664
   6 N :   -0.035736
   7 C :   -0.059639
   8 C :   -0.352799
   9 H :    0.145388
  10 H :    0.133764
  11 H :    0.142362
  12 C :   -0.364868
  13 H :    0.137756
  14 H :    0.152556
  15 H :    0.133121
  16 H :    0.140671
  17 C :    0.029692
  18 C :   -0.246472
  19 H :    0.155725
  20 C :   -0.143140
  21 C :   -0.171887
  22 S :    0.467642
  23 C :   -0.261355
  24 H :    0.369931
  25 H :    0.154507
  26 H :    0.165512
  27 H :    0.180263
  28 H :    0.176606
  29 H :    0.180120
  30 O :   -0.215223
  31 O :   -0.130903
  32 C :    0.209467
  33 C :   -0.372392
  34 H :    0.180245
  35 H :    0.184065
  36 H :    0.162645
  37 H :    0.181670
  38 H :    0.184230

  Mayer bond orders larger than 0.100000
B(  0-Ir,  1-C ) :   0.3479 B(  0-Ir,  2-C ) :   0.3149 B(  0-Ir,  3-C ) :   0.4242
B(  0-Ir,  4-C ) :   0.5032 B(  0-Ir,  5-C ) :   0.3738 B(  0-Ir,  6-N ) :   0.4918
B(  0-Ir, 20-C ) :   0.6333 B(  0-Ir, 31-O ) :   0.4149 B(  1-C ,  2-C ) :   1.2412
B(  1-C ,  4-C ) :   1.1875 B(  1-C , 27-H ) :   0.9098 B(  2-C ,  5-C ) :   1.1799
B(  2-C , 28-H ) :   0.9164 B(  3-C ,  4-C ) :   1.1240 B(  3-C ,  5-C ) :   1.2273
B(  3-C , 37-H ) :   0.9072 B(  4-C , 38-H ) :   0.9078 B(  5-C , 29-H ) :   0.9110
B(  6-N ,  7-C ) :   0.9060 B(  6-N , 17-C ) :   1.6001 B(  7-C ,  8-C ) :   0.9735
B(  7-C , 12-C ) :   0.9867 B(  7-C , 13-H ) :   0.8945 B(  8-C ,  9-H ) :   0.9086
B(  8-C , 10-H ) :   0.9187 B(  8-C , 11-H ) :   0.9104 B( 12-C , 14-H ) :   0.9064
B( 12-C , 15-H ) :   0.9110 B( 12-C , 16-H ) :   0.9130 B( 17-C , 18-C ) :   1.1448
B( 17-C , 19-H ) :   0.8753 B( 18-C , 20-C ) :   1.3146 B( 18-C , 22-S ) :   1.1684
B( 20-C , 21-C ) :   1.3369 B( 21-C , 23-C ) :   1.5133 B( 21-C , 25-H ) :   0.9076
B( 22-S , 23-C ) :   1.2553 B( 23-C , 26-H ) :   0.8887 B( 24-H , 30-O ) :   0.5945
B( 30-O , 32-C ) :   1.3307 B( 31-O , 32-C ) :   1.5618 B( 32-C , 33-C ) :   0.9697
B( 33-C , 34-H ) :   0.8848 B( 33-C , 35-H ) :   0.8792 B( 33-C , 36-H ) :   0.9010

Dispersion correction           -0.029690626
FINAL SINGLE POINT ENERGY     -1288.411507141858
Dispersion correction            ... done

DIPOLE MOMENT
-------------
                                X             Y             Z
Electronic contribution:     41.62742     -78.04275      73.15462
Nuclear contribution   :    -42.05210      78.45007     -72.50253
                        -----------------------------------------
Total Dipole Moment    :     -0.42468       0.40732       0.65209
                        -----------------------------------------
Magnitude (a.u.)       :      0.87835
Magnitude (Debye)      :      2.23258

Rotational constants in cm-1:     0.010378     0.008348     0.007855
Rotational constants in MHz :   311.110354   250.269010   235.484797

                             ****ORCA TERMINATED NORMALLY****
TOTAL RUN TIME: 0 days 0 hours 17 minutes 58 seconds 788 msec
