                         Program Version 5.0.3 -  RELEASE  -
|  1> ! EnGrad PBEh-3c
|  2> %output
|  3> xyzfile=True
|  4> end
|  5> %scf
|  6> maxiter 250
|  7> end
|  8> %output
|  9> Print[P_Hirshfeld] = 1
| 10> end
| 11> % maxcore
| 12> 4000
| 13> *xyz 1 1
| 14> Ir   0.63882917  -0.78540716   0.43717649
| 15> C    0.07062450  -2.92294800   1.07778956
| 16> C    0.14391036  -2.17288446   2.27802515
| 17> C    2.20898752  -2.07698006   1.23802587
| 18> C    1.31168518  -2.81374017   0.39309007
| 19> C    1.47069140  -1.69066636   2.38361946
| 20> N   -1.11829368  -0.16414254  -0.55823478
| 21> C   -2.48372320  -0.16763158   0.02553462
| 22> C   -2.77781271   1.07809887   0.86793137
| 23> H   -3.80720664   1.02495554   1.23585623
| 24> H   -2.69482155   1.99045105   0.27203696
| 25> H   -2.11045896   1.16074157   1.72585880
| 26> C   -3.57256417  -0.35616647  -1.02976027
| 27> H   -2.51454842  -1.04035867   0.69228561
| 28> H   -4.52104804  -0.51733228  -0.52132089
| 29> H   -3.71355288   0.51971296  -1.67124703
| 30> H   -3.38197833  -1.22427793  -1.66413375
| 31> C   -0.92416476   0.21473105  -1.76644341
| 32> C    0.39748201   0.15493627  -2.27247242
| 33> H   -1.75277972   0.53682714  -2.38762520
| 34> C    1.45856656  -0.20169987  -1.45657394
| 35> C    2.63894390  -0.23119682  -2.28074022
| 36> S    0.77239259   0.37944545  -3.92632808
| 37> C    2.40087644   0.01356194  -3.61707528
| 38> H    2.05345718   1.36581822  -0.47490645
| 39> H    3.66574869  -0.43818715  -2.00838330
| 40> H    3.09793333   0.03023226  -4.46184870
| 41> H   -0.76802879  -3.52488217   0.74900497
| 42> H   -0.61756122  -2.13572648   3.04766306
| 43> H    1.86919632  -1.15840451   3.23848738
| 44> O    2.10169448   2.22533983   0.10710742
| 45> O    0.50605703   1.15770139   1.24825900
| 46> C    1.18638448   2.15463078   1.00585501
| 47> C    1.02020908   3.42442531   1.73199426
| 48> H    0.91196285   4.27893216   1.06065755
| 49> H    1.87277043   3.66788163   2.36836167
| 50> H    0.15190158   3.43332008   2.38282132
| 51> H    3.24616252  -1.86245172   1.04889826
| 52> H    1.55692787  -3.33040889  -0.51672216
| 53> *
| 54>
| 55>                          ****END OF INPUT****

CARTESIAN COORDINATES (ANGSTROEM)
---------------------------------
  Ir     0.638829   -0.785407    0.437176
  C      0.070625   -2.922948    1.077790
  C      0.143910   -2.172884    2.278025
  C      2.208988   -2.076980    1.238026
  C      1.311685   -2.813740    0.393090
  C      1.470691   -1.690666    2.383619
  N     -1.118294   -0.164143   -0.558235
  C     -2.483723   -0.167632    0.025535
  C     -2.777813    1.078099    0.867931
  H     -3.807207    1.024956    1.235856
  H     -2.694822    1.990451    0.272037
  H     -2.110459    1.160742    1.725859
  C     -3.572564   -0.356166   -1.029760
  H     -2.514548   -1.040359    0.692286
  H     -4.521048   -0.517332   -0.521321
  H     -3.713553    0.519713   -1.671247
  H     -3.381978   -1.224278   -1.664134
  C     -0.924165    0.214731   -1.766443
  C      0.397482    0.154936   -2.272472
  H     -1.752780    0.536827   -2.387625
  C      1.458567   -0.201700   -1.456574
  C      2.638944   -0.231197   -2.280740
  S      0.772393    0.379445   -3.926328
  C      2.400876    0.013562   -3.617075
  H      2.053457    1.365818   -0.474906
  H      3.665749   -0.438187   -2.008383
  H      3.097933    0.030232   -4.461849
  H     -0.768029   -3.524882    0.749005
  H     -0.617561   -2.135726    3.047663
  H      1.869196   -1.158405    3.238487
  O      2.101694    2.225340    0.107107
  O      0.506057    1.157701    1.248259
  C      1.186384    2.154631    1.005855
  C      1.020209    3.424425    1.731994
  H      0.911963    4.278932    1.060658
  H      1.872770    3.667882    2.368362
  H      0.151902    3.433320    2.382821
  H      3.246163   -1.862452    1.048898
  H      1.556928   -3.330409   -0.516722

 Total Charge           Charge          ....    1
 Multiplicity           Mult            ....    1
 Number of Electrons    NEL             ....  164
 Basis Dimension        Dim             ....  358

ORBITAL ENERGIES
----------------

  NO   OCC          E(Eh)            E(eV)
   0   2.0000     -89.738906     -2441.9198
   1   2.0000     -19.685012      -535.6564
   2   2.0000     -19.669794      -535.2423
   3   2.0000     -14.814127      -403.1129
   4   2.0000     -10.736361      -292.1512
   5   2.0000     -10.636120      -289.4235
   6   2.0000     -10.624121      -289.0970
   7   2.0000     -10.623127      -289.0700
   8   2.0000     -10.607903      -288.6557
   9   2.0000     -10.606597      -288.6202
  10   2.0000     -10.606246      -288.6106
  11   2.0000     -10.604453      -288.5618
  12   2.0000     -10.598700      -288.4053
  13   2.0000     -10.593571      -288.2657
  14   2.0000     -10.590639      -288.1859
  15   2.0000     -10.575495      -287.7738
  16   2.0000     -10.564793      -287.4826
  17   2.0000     -10.545144      -286.9480
  18   2.0000     -10.541557      -286.8504
  19   2.0000      -8.378889      -228.0011
  20   2.0000      -6.268781      -170.5822
  21   2.0000      -6.265401      -170.4902
  22   2.0000      -6.263705      -170.4441
  23   2.0000      -4.009352      -109.1000
  24   2.0000      -2.323859       -63.2354
  25   2.0000      -2.296239       -62.4838
  26   2.0000      -2.291397       -62.3521
  27   2.0000      -1.382079       -37.6083
  28   2.0000      -1.286044       -34.9950
  29   2.0000      -1.187246       -32.3066
  30   2.0000      -1.150920       -31.3181
  31   2.0000      -1.106236       -30.1022
  32   2.0000      -1.008598       -27.4453
  33   2.0000      -0.980075       -26.6692
  34   2.0000      -0.960961       -26.1491
  35   2.0000      -0.956997       -26.0412
  36   2.0000      -0.946672       -25.7603
  37   2.0000      -0.941075       -25.6080
  38   2.0000      -0.888240       -24.1702
  39   2.0000      -0.852930       -23.2094
  40   2.0000      -0.821313       -22.3491
  41   2.0000      -0.783525       -21.3208
  42   2.0000      -0.771740       -21.0001
  43   2.0000      -0.767627       -20.8882
  44   2.0000      -0.764002       -20.7896
  45   2.0000      -0.758171       -20.6309
  46   2.0000      -0.751598       -20.4520
  47   2.0000      -0.717409       -19.5217
  48   2.0000      -0.702661       -19.1204
  49   2.0000      -0.687069       -18.6961
  50   2.0000      -0.681722       -18.5506
  51   2.0000      -0.669431       -18.2162
  52   2.0000      -0.644235       -17.5305
  53   2.0000      -0.629161       -17.1203
  54   2.0000      -0.622771       -16.9464
  55   2.0000      -0.617678       -16.8079
  56   2.0000      -0.611975       -16.6527
  57   2.0000      -0.602213       -16.3870
  58   2.0000      -0.591154       -16.0861
  59   2.0000      -0.590589       -16.0707
  60   2.0000      -0.588618       -16.0171
  61   2.0000      -0.584554       -15.9065
  62   2.0000      -0.581501       -15.8234
  63   2.0000      -0.573461       -15.6047
  64   2.0000      -0.570697       -15.5295
  65   2.0000      -0.562094       -15.2954
  66   2.0000      -0.550573       -14.9818
  67   2.0000      -0.544443       -14.8150
  68   2.0000      -0.538220       -14.6457
  69   2.0000      -0.531373       -14.4594
  70   2.0000      -0.530275       -14.4295
  71   2.0000      -0.528828       -14.3901
  72   2.0000      -0.509953       -13.8765
  73   2.0000      -0.499778       -13.5996
  74   2.0000      -0.497759       -13.5447
  75   2.0000      -0.477657       -12.9977
  76   2.0000      -0.472691       -12.8626
  77   2.0000      -0.448437       -12.2026
  78   2.0000      -0.436121       -11.8674
  79   2.0000      -0.409993       -11.1565
  80   2.0000      -0.401346       -10.9212
  81   2.0000      -0.382742       -10.4149
  82   0.0000      -0.176960        -4.8153
  83   0.0000      -0.160482        -4.3669
  84   0.0000      -0.126263        -3.4358
  85   0.0000      -0.104410        -2.8411
  86   0.0000      -0.071275        -1.9395

MULLIKEN ATOMIC CHARGES
-----------------------
   0 Ir:    0.573217
   1 C :   -0.175229
   2 C :   -0.266102
   3 C :   -0.244024
   4 C :   -0.314162
   5 C :   -0.168921
   6 N :   -0.465160
   7 C :   -0.099335
   8 C :   -0.634549
   9 H :    0.245820
  10 H :    0.223521
  11 H :    0.253442
  12 C :   -0.691935
  13 H :    0.243240
  14 H :    0.266772
  15 H :    0.227522
  16 H :    0.249440
  17 C :    0.080814
  18 C :   -0.183631
  19 H :    0.275515
  20 C :   -0.321194
  21 C :   -0.229529
  22 S :    0.306107
  23 C :   -0.393331
  24 H :    0.521775
  25 H :    0.254901
  26 H :    0.294576
  27 H :    0.281505
  28 H :    0.276079
  29 H :    0.282259
  30 O :   -0.529488
  31 O :   -0.444846
  32 C :    0.641350
  33 C :   -0.766512
  34 H :    0.289435
  35 H :    0.292961
  36 H :    0.275936
  37 H :    0.282748
  38 H :    0.289013
Sum of atomic charges:    1.0000000

LOEWDIN ATOMIC CHARGES
----------------------
   0 Ir:   -0.267009
   1 C :   -0.023084
   2 C :   -0.116085
   3 C :   -0.097588
   4 C :   -0.085627
   5 C :   -0.019505
   6 N :   -0.034486
   7 C :   -0.059386
   8 C :   -0.351802
   9 H :    0.145554
  10 H :    0.134326
  11 H :    0.143411
  12 C :   -0.364871
  13 H :    0.137775
  14 H :    0.153249
  15 H :    0.133298
  16 H :    0.140615
  17 C :    0.028557
  18 C :   -0.241590
  19 H :    0.154886
  20 C :   -0.143890
  21 C :   -0.175950
  22 S :    0.459111
  23 C :   -0.258050
  24 H :    0.370645
  25 H :    0.154826
  26 H :    0.167575
  27 H :    0.179765
  28 H :    0.176597
  29 H :    0.179737
  30 O :   -0.211128
  31 O :   -0.111004
  32 C :    0.194947
  33 C :   -0.375713
  34 H :    0.176422
  35 H :    0.180261
  36 H :    0.161465
  37 H :    0.180521
  38 H :    0.183228

  Mayer bond orders larger than 0.100000
B(  0-Ir,  1-C ) :   0.3645 B(  0-Ir,  2-C ) :   0.3136 B(  0-Ir,  3-C ) :   0.4332
B(  0-Ir,  4-C ) :   0.4908 B(  0-Ir,  5-C ) :   0.3617 B(  0-Ir,  6-N ) :   0.4935
B(  0-Ir, 20-C ) :   0.6351 B(  0-Ir, 31-O ) :   0.4159 B(  1-C ,  2-C ) :   1.2255
B(  1-C ,  4-C ) :   1.1960 B(  1-C , 27-H ) :   0.9121 B(  2-C ,  5-C ) :   1.2009
B(  2-C , 28-H ) :   0.9165 B(  3-C ,  4-C ) :   1.1284 B(  3-C ,  5-C ) :   1.2172
B(  3-C , 37-H ) :   0.9094 B(  4-C , 38-H ) :   0.9100 B(  5-C , 29-H ) :   0.9113
B(  6-N ,  7-C ) :   0.9029 B(  6-N , 17-C ) :   1.6023 B(  7-C ,  8-C ) :   0.9757
B(  7-C , 12-C ) :   0.9885 B(  7-C , 13-H ) :   0.8934 B(  8-C ,  9-H ) :   0.9081
B(  8-C , 10-H ) :   0.9186 B(  8-C , 11-H ) :   0.9091 B( 12-C , 14-H ) :   0.9054
B( 12-C , 15-H ) :   0.9114 B( 12-C , 16-H ) :   0.9135 B( 17-C , 18-C ) :   1.1434
B( 17-C , 19-H ) :   0.8764 B( 18-C , 20-C ) :   1.3171 B( 18-C , 22-S ) :   1.1645
B( 20-C , 21-C ) :   1.3336 B( 21-C , 23-C ) :   1.5128 B( 21-C , 25-H ) :   0.9064
B( 22-S , 23-C ) :   1.2533 B( 23-C , 26-H ) :   0.8881 B( 24-H , 30-O ) :   0.5941
B( 30-O , 32-C ) :   1.3260 B( 31-O , 32-C ) :   1.5889 B( 32-C , 33-C ) :   0.9552
B( 33-C , 34-H ) :   0.8874 B( 33-C , 35-H ) :   0.8820 B( 33-C , 36-H ) :   0.9053

Dispersion correction           -0.029694800
FINAL SINGLE POINT ENERGY     -1288.415980418446
Dispersion correction            ... done

DIPOLE MOMENT
-------------
                                X             Y             Z
Electronic contribution:     40.17075     -77.25301      73.32457
Nuclear contribution   :    -40.56609      77.54281     -72.74447
                        -----------------------------------------
Total Dipole Moment    :     -0.39535       0.28980       0.58010
                        -----------------------------------------
Magnitude (a.u.)       :      0.75947
Magnitude (Debye)      :      1.93043

Rotational constants in cm-1:     0.010425     0.008337     0.007843
Rotational constants in MHz :   312.542541   249.946466   235.119141

                             ****ORCA TERMINATED NORMALLY****
TOTAL RUN TIME: 0 days 0 hours 17 minutes 43 seconds 988 msec
