                         Program Version 5.0.3 -  RELEASE  -
|  1> ! EnGrad PBEh-3c
|  2> %output
|  3> xyzfile=True
|  4> end
|  5> %scf
|  6> maxiter 250
|  7> end
|  8> %output
|  9> Print[P_Hirshfeld] = 1
| 10> end
| 11> % maxcore
| 12> 4000
| 13> %pal nprocs 4
| 14> end
| 15> *xyz 0 1
| 16> Lu   0.12042000   0.42874000  -0.28000000
| 17> C    0.17963000   1.15615000   2.19054000
| 18> C    1.02904000   0.03068000   2.11439000
| 19> C    2.15013000   0.38305000   1.33973000
| 20> C    1.99070000   1.72133000   0.92554000
| 21> C    0.77449000   2.20088000   1.46118000
| 22> H    2.69909000   2.29131000   0.34087000
| 23> H    0.36543000   3.19184000   1.33125000
| 24> H   -0.76043000   1.20984000   2.71996000
| 25> H    0.86700000  -0.92232000   2.59763000
| 26> H    2.99031000  -0.25647000   1.11492000
| 27> C    1.14140000  -0.04440000  -2.59562000
| 28> C   -0.21370000  -0.43136000  -2.68604000
| 29> C    0.84022000  -1.86120000  -1.25171000
| 30> C    1.79240000  -0.93563000  -1.71825000
| 31> H    1.60958000   0.76323000  -3.14098000
| 32> C   -0.39901000  -1.54924000  -1.85316000
| 33> H   -0.97545000   0.04688000  -3.28238000
| 34> H    2.84052000  -0.91925000  -1.45957000
| 35> H    1.03333000  -2.68535000  -0.57946000
| 36> H   -1.32717000  -2.08388000  -1.70900000
| 37> C   -2.04571000  -1.76530000   1.42181000
| 38> H   -2.18071000  -1.68564000   2.49699000
| 39> H   -2.69749000  -2.53854000   1.02423000
| 40> H   -2.30740000  -0.81350000   0.95936000
| 41> C   -1.85870000   1.60331000  -0.61471000
| 42> H   -1.01219000  -2.03830000   1.21528000
| 43> H   -1.69659000   2.46323000  -1.28040000
| 44> H   -2.29974000   2.02244000   0.29641000
| 45> H   -2.64941000   1.01746000  -1.09880000
| 46> *
| 47>
| 48>                          ****END OF INPUT****

CARTESIAN COORDINATES (ANGSTROEM)
---------------------------------
  Lu     0.120420    0.428740   -0.280000
  C      0.179630    1.156150    2.190540
  C      1.029040    0.030680    2.114390
  C      2.150130    0.383050    1.339730
  C      1.990700    1.721330    0.925540
  C      0.774490    2.200880    1.461180
  H      2.699090    2.291310    0.340870
  H      0.365430    3.191840    1.331250
  H     -0.760430    1.209840    2.719960
  H      0.867000   -0.922320    2.597630
  H      2.990310   -0.256470    1.114920
  C      1.141400   -0.044400   -2.595620
  C     -0.213700   -0.431360   -2.686040
  C      0.840220   -1.861200   -1.251710
  C      1.792400   -0.935630   -1.718250
  H      1.609580    0.763230   -3.140980
  C     -0.399010   -1.549240   -1.853160
  H     -0.975450    0.046880   -3.282380
  H      2.840520   -0.919250   -1.459570
  H      1.033330   -2.685350   -0.579460
  H     -1.327170   -2.083880   -1.709000
  C     -2.045710   -1.765300    1.421810
  H     -2.180710   -1.685640    2.496990
  H     -2.697490   -2.538540    1.024230
  H     -2.307400   -0.813500    0.959360
  C     -1.858700    1.603310   -0.614710
  H     -1.012190   -2.038300    1.215280
  H     -1.696590    2.463230   -1.280400
  H     -2.299740    2.022440    0.296410
  H     -2.649410    1.017460   -1.098800

 Total Charge           Charge          ....    0
 Multiplicity           Mult            ....    1
 Number of Electrons    NEL             ....  132
 Basis Dimension        Dim             ....  295

ORBITAL ENERGIES
----------------

  NO   OCC          E(Eh)            E(eV)
   0   2.0000     -19.242265      -523.6087
   1   2.0000     -12.614846      -343.2674
   2   2.0000     -12.612197      -343.1953
   3   2.0000     -12.611590      -343.1788
   4   2.0000     -10.447197      -284.2827
   5   2.0000     -10.447132      -284.2809
   6   2.0000     -10.446162      -284.2545
   7   2.0000     -10.445864      -284.2464
   8   2.0000     -10.445528      -284.2373
   9   2.0000     -10.445423      -284.2344
  10   2.0000     -10.445101      -284.2256
  11   2.0000     -10.444290      -284.2036
  12   2.0000     -10.443655      -284.1863
  13   2.0000     -10.443564      -284.1838
  14   2.0000     -10.435576      -283.9665
  15   2.0000     -10.359827      -281.9052
  16   2.0000      -5.883781      -160.1058
  17   2.0000      -5.883492      -160.0980
  18   2.0000      -5.882842      -160.0803
  19   2.0000      -5.881323      -160.0389
  20   2.0000      -5.881100      -160.0329
  21   2.0000      -2.426397       -66.0256
  22   2.0000      -1.267130       -34.4804
  23   2.0000      -1.265846       -34.4454
  24   2.0000      -1.254588       -34.1391
  25   2.0000      -0.981791       -26.7159
  26   2.0000      -0.971347       -26.4317
  27   2.0000      -0.799334       -21.7510
  28   2.0000      -0.795787       -21.6545
  29   2.0000      -0.794892       -21.6301
  30   2.0000      -0.792681       -21.5699
  31   2.0000      -0.792073       -21.5534
  32   2.0000      -0.701723       -19.0949
  33   2.0000      -0.615936       -16.7605
  34   2.0000      -0.613647       -16.6982
  35   2.0000      -0.611322       -16.6349
  36   2.0000      -0.610942       -16.6246
  37   2.0000      -0.598001       -16.2724
  38   2.0000      -0.593110       -16.1393
  39   2.0000      -0.551885       -15.0176
  40   2.0000      -0.550247       -14.9730
  41   2.0000      -0.550128       -14.9698
  42   2.0000      -0.548955       -14.9378
  43   2.0000      -0.548501       -14.9255
  44   2.0000      -0.547116       -14.8878
  45   2.0000      -0.545404       -14.8412
  46   2.0000      -0.475251       -12.9322
  47   2.0000      -0.470835       -12.8121
  48   2.0000      -0.467036       -12.7087
  49   2.0000      -0.460071       -12.5192
  50   2.0000      -0.454018       -12.3545
  51   2.0000      -0.452182       -12.3045
  52   2.0000      -0.450690       -12.2639
  53   2.0000      -0.450385       -12.2556
  54   2.0000      -0.434557       -11.8249
  55   2.0000      -0.433371       -11.7926
  56   2.0000      -0.432177       -11.7601
  57   2.0000      -0.431410       -11.7393
  58   2.0000      -0.430011       -11.7012
  59   2.0000      -0.396157       -10.7800
  60   2.0000      -0.393971       -10.7205
  61   2.0000      -0.291872        -7.9422
  62   2.0000      -0.289182        -7.8690
  63   2.0000      -0.279619        -7.6088
  64   2.0000      -0.267961        -7.2916
  65   2.0000      -0.258996        -7.0476
  66   0.0000      -0.017239        -0.4691
  67   0.0000       0.008213         0.2235
  68   0.0000       0.044444         1.2094
  69   0.0000       0.052089         1.4174
  70   0.0000       0.053769         1.4631

MULLIKEN ATOMIC CHARGES
-----------------------
   0 Lu:    0.832336
   1 C :   -0.279658
   2 C :   -0.306178
   3 C :   -0.256362
   4 C :   -0.322663
   5 C :   -0.267093
   6 H :    0.240730
   7 H :    0.248748
   8 H :    0.244915
   9 H :    0.236940
  10 H :    0.233902
  11 C :   -0.323245
  12 C :   -0.257966
  13 C :   -0.304286
  14 C :   -0.263310
  15 H :    0.241075
  16 C :   -0.285656
  17 H :    0.248621
  18 H :    0.235123
  19 H :    0.237996
  20 H :    0.243160
  21 C :   -0.936633
  22 H :    0.246257
  23 H :    0.247588
  24 H :    0.265182
  25 C :   -1.084615
  26 H :    0.227903
  27 H :    0.218957
  28 H :    0.219572
  29 H :    0.218658
Sum of atomic charges:    0.0000000

LOEWDIN ATOMIC CHARGES
----------------------
   0 Lu:   -0.022251
   1 C :   -0.133843
   2 C :   -0.149449
   3 C :   -0.128081
   4 C :   -0.151024
   5 C :   -0.128258
   6 H :    0.155301
   7 H :    0.160110
   8 H :    0.157877
   9 H :    0.152786
  10 H :    0.152314
  11 C :   -0.149715
  12 C :   -0.125060
  13 C :   -0.148307
  14 C :   -0.130300
  15 H :    0.155610
  16 C :   -0.139084
  17 H :    0.160596
  18 H :    0.152748
  19 H :    0.153469
  20 H :    0.156400
  21 C :   -0.500034
  22 H :    0.140081
  23 H :    0.140175
  24 H :    0.160367
  25 C :   -0.648249
  26 H :    0.142165
  27 H :    0.143241
  28 H :    0.134685
  29 H :    0.135730

  Mayer bond orders larger than 0.100000
B(  0-Lu,  1-C ) :   0.2535 B(  0-Lu,  2-C ) :   0.2702 B(  0-Lu,  3-C ) :   0.2534
B(  0-Lu,  4-C ) :   0.2784 B(  0-Lu,  5-C ) :   0.2465 B(  0-Lu, 11-C ) :   0.2782
B(  0-Lu, 12-C ) :   0.2353 B(  0-Lu, 13-C ) :   0.2687 B(  0-Lu, 14-C ) :   0.2531
B(  0-Lu, 16-C ) :   0.2645 B(  0-Lu, 25-C ) :   0.8216 B(  1-C ,  2-C ) :   1.2732
B(  1-C ,  5-C ) :   1.3136 B(  1-C ,  8-H ) :   0.9120 B(  2-C ,  3-C ) :   1.2992
B(  2-C ,  9-H ) :   0.9154 B(  3-C ,  4-C ) :   1.2872 B(  3-C , 10-H ) :   0.9174
B(  4-C ,  5-C ) :   1.2754 B(  4-C ,  6-H ) :   0.9148 B(  5-C ,  7-H ) :   0.9111
B( 11-C , 12-C ) :   1.2815 B( 11-C , 14-C ) :   1.2886 B( 11-C , 15-H ) :   0.9149
B( 12-C , 16-C ) :   1.3114 B( 12-C , 17-H ) :   0.9119 B( 13-C , 14-C ) :   1.2974
B( 13-C , 16-C ) :   1.2714 B( 13-C , 19-H ) :   0.9145 B( 14-C , 18-H ) :   0.9166
B( 16-C , 20-H ) :   0.9118 B( 21-C , 22-H ) :   0.9176 B( 21-C , 23-H ) :   0.9179
B( 21-C , 24-H ) :   0.8839 B( 21-C , 26-H ) :   0.9027 B( 25-C , 27-H ) :   0.8983
B( 25-C , 28-H ) :   0.9043 B( 25-C , 29-H ) :   0.9028

Dispersion correction           -0.017878004
FINAL SINGLE POINT ENERGY     -1702.396647767864
Dispersion correction            ... done

DIPOLE MOMENT
-------------
                                X             Y             Z
Electronic contribution:     -0.62433      20.18928     -12.07867
Nuclear contribution   :      0.93540     -20.64932      12.28419
                        -----------------------------------------
Total Dipole Moment    :      0.31106      -0.46004       0.20552
                        -----------------------------------------
Magnitude (a.u.)       :      0.59215
Magnitude (Debye)      :      1.50512

Rotational constants in cm-1:     0.028889     0.020044     0.017949
Rotational constants in MHz :   866.065571   600.896543   538.097693

                             ****ORCA TERMINATED NORMALLY****
TOTAL RUN TIME: 0 days 0 hours 2 minutes 38 seconds 478 msec
