                         Program Version 5.0.3 -  RELEASE  -
|  1> ! EnGrad PBEh-3c
|  2> %output
|  3> xyzfile=True
|  4> end
|  5> %scf
|  6> maxiter 250
|  7> end
|  8> %output
|  9> Print[P_Hirshfeld] = 1
| 10> end
| 11> % maxcore
| 12> 4000
| 13> %pal nprocs 4
| 14> end
| 15> *xyz 0 1
| 16> Pd   0.82870000   0.73900000  -0.60406000
| 17> O    2.45890000   1.87027000  -0.05280000
| 18> C    1.70181000   2.86527000   0.09377000
| 19> O    0.46137000   2.68779000  -0.09865000
| 20> C    2.24296000   4.21326000   0.43766000
| 21> H    1.49914000   4.81145000   0.95876000
| 22> H    2.50943000   4.73366000  -0.48397000
| 23> H    3.14321000   4.12639000   1.04172000
| 24> N   -1.07263000   0.00613000  -1.06554000
| 25> C   -1.15940000  -0.25655000  -2.51416000
| 26> H   -0.89237000   0.63671000  -3.07390000
| 27> H   -2.17942000  -0.55109000  -2.78294000
| 28> H   -0.47917000  -1.05247000  -2.79967000
| 29> C   -2.06321000   1.04065000  -0.72428000
| 30> H   -2.00206000   1.30545000   0.32747000
| 31> H   -3.07436000   0.68024000  -0.94281000
| 32> H   -1.88014000   1.93441000  -1.31557000
| 33> C   -1.33454000  -1.15969000   1.14989000
| 34> C   -0.14331000  -1.36246000   1.84230000
| 35> C   -0.11255000  -1.27696000   3.22579000
| 36> C   -1.27019000  -0.99590000   3.93609000
| 37> C   -2.46488000  -0.81036000   3.25741000
| 38> C   -2.49384000  -0.89690000   1.87414000
| 39> H   -1.24339000  -0.93301000   5.01592000
| 40> H   -3.37562000  -0.60532000   3.80442000
| 41> H    0.76045000  -1.60696000   1.29944000
| 42> H    0.82014000  -1.43892000   3.74968000
| 43> H   -3.43445000  -0.76586000   1.35141000
| 44> C   -1.38065000  -1.26129000  -0.34797000
| 45> H   -2.38049000  -1.58796000  -0.66223000
| 46> H   -0.66999000  -2.00856000  -0.69644000
| 47> O    1.60612000  -1.03807000  -0.96913000
| 48> C    2.23274000  -1.12529000  -2.10753000
| 49> O    2.22304000  -0.26682000  -2.96556000
| 50> C    3.00099000  -2.42045000  -2.26795000
| 51> H    2.41501000  -3.27879000  -1.94093000
| 52> H    3.89798000  -2.39130000  -1.64723000
| 53> H    3.30467000  -2.55970000  -3.30253000
| 54> *
| 55>
| 56>                          ****END OF INPUT****

CARTESIAN COORDINATES (ANGSTROEM)
---------------------------------
  Pd     0.828700    0.739000   -0.604060
  O      2.458900    1.870270   -0.052800
  C      1.701810    2.865270    0.093770
  O      0.461370    2.687790   -0.098650
  C      2.242960    4.213260    0.437660
  H      1.499140    4.811450    0.958760
  H      2.509430    4.733660   -0.483970
  H      3.143210    4.126390    1.041720
  N     -1.072630    0.006130   -1.065540
  C     -1.159400   -0.256550   -2.514160
  H     -0.892370    0.636710   -3.073900
  H     -2.179420   -0.551090   -2.782940
  H     -0.479170   -1.052470   -2.799670
  C     -2.063210    1.040650   -0.724280
  H     -2.002060    1.305450    0.327470
  H     -3.074360    0.680240   -0.942810
  H     -1.880140    1.934410   -1.315570
  C     -1.334540   -1.159690    1.149890
  C     -0.143310   -1.362460    1.842300
  C     -0.112550   -1.276960    3.225790
  C     -1.270190   -0.995900    3.936090
  C     -2.464880   -0.810360    3.257410
  C     -2.493840   -0.896900    1.874140
  H     -1.243390   -0.933010    5.015920
  H     -3.375620   -0.605320    3.804420
  H      0.760450   -1.606960    1.299440
  H      0.820140   -1.438920    3.749680
  H     -3.434450   -0.765860    1.351410
  C     -1.380650   -1.261290   -0.347970
  H     -2.380490   -1.587960   -0.662230
  H     -0.669990   -2.008560   -0.696440
  O      1.606120   -1.038070   -0.969130
  C      2.232740   -1.125290   -2.107530
  O      2.223040   -0.266820   -2.965560
  C      3.000990   -2.420450   -2.267950
  H      2.415010   -3.278790   -1.940930
  H      3.897980   -2.391300   -1.647230
  H      3.304670   -2.559700   -3.302530

 Total Charge           Charge          ....    0
 Multiplicity           Mult            ....    1
 Number of Electrons    NEL             ....  154
 Basis Dimension        Dim             ....  339

ORBITAL ENERGIES
----------------

  NO   OCC          E(Eh)            E(eV)
   0   2.0000     -19.504745      -530.7511
   1   2.0000     -19.502586      -530.6923
   2   2.0000     -19.476800      -529.9907
   3   2.0000     -19.434082      -528.8283
   4   2.0000     -14.723193      -400.6384
   5   2.0000     -10.576582      -287.8034
   6   2.0000     -10.533036      -286.6185
   7   2.0000     -10.493225      -285.5352
   8   2.0000     -10.480585      -285.1912
   9   2.0000     -10.479659      -285.1660
  10   2.0000     -10.466977      -284.8209
  11   2.0000     -10.458859      -284.6000
  12   2.0000     -10.456067      -284.5240
  13   2.0000     -10.455364      -284.5049
  14   2.0000     -10.452966      -284.4397
  15   2.0000     -10.451850      -284.4093
  16   2.0000     -10.445637      -284.2402
  17   2.0000     -10.416847      -283.4568
  18   2.0000      -3.660317       -99.6023
  19   2.0000      -2.309489       -62.8444
  20   2.0000      -2.304480       -62.7081
  21   2.0000      -2.268951       -61.7413
  22   2.0000      -1.210858       -32.9491
  23   2.0000      -1.152839       -31.3703
  24   2.0000      -1.092318       -29.7235
  25   2.0000      -1.077594       -29.3228
  26   2.0000      -1.055372       -28.7181
  27   2.0000      -0.969012       -26.3682
  28   2.0000      -0.877604       -23.8808
  29   2.0000      -0.846638       -23.0382
  30   2.0000      -0.838969       -22.8295
  31   2.0000      -0.821195       -22.3459
  32   2.0000      -0.799668       -21.7601
  33   2.0000      -0.798248       -21.7214
  34   2.0000      -0.716654       -19.5011
  35   2.0000      -0.693451       -18.8698
  36   2.0000      -0.669285       -18.2122
  37   2.0000      -0.621239       -16.9048
  38   2.0000      -0.599488       -16.3129
  39   2.0000      -0.594413       -16.1748
  40   2.0000      -0.579521       -15.7696
  41   2.0000      -0.569047       -15.4846
  42   2.0000      -0.557785       -15.1781
  43   2.0000      -0.553641       -15.0653
  44   2.0000      -0.551197       -14.9988
  45   2.0000      -0.534970       -14.5573
  46   2.0000      -0.530296       -14.4301
  47   2.0000      -0.518885       -14.1196
  48   2.0000      -0.511466       -13.9177
  49   2.0000      -0.496802       -13.5187
  50   2.0000      -0.492579       -13.4038
  51   2.0000      -0.488627       -13.2962
  52   2.0000      -0.484254       -13.1772
  53   2.0000      -0.470545       -12.8042
  54   2.0000      -0.463840       -12.6217
  55   2.0000      -0.460001       -12.5173
  56   2.0000      -0.453233       -12.3331
  57   2.0000      -0.448067       -12.1925
  58   2.0000      -0.446103       -12.1391
  59   2.0000      -0.434983       -11.8365
  60   2.0000      -0.427171       -11.6239
  61   2.0000      -0.419298       -11.4097
  62   2.0000      -0.412546       -11.2260
  63   2.0000      -0.404641       -11.0108
  64   2.0000      -0.403132       -10.9698
  65   2.0000      -0.397775       -10.8240
  66   2.0000      -0.376777       -10.2526
  67   2.0000      -0.368657       -10.0317
  68   2.0000      -0.350475        -9.5369
  69   2.0000      -0.341102        -9.2819
  70   2.0000      -0.327535        -8.9127
  71   2.0000      -0.315870        -8.5953
  72   2.0000      -0.311378        -8.4730
  73   2.0000      -0.303449        -8.2573
  74   2.0000      -0.299204        -8.1418
  75   2.0000      -0.295239        -8.0339
  76   2.0000      -0.275263        -7.4903
  77   0.0000      -0.035061        -0.9541
  78   0.0000       0.001760         0.0479
  79   0.0000       0.009387         0.2554
  80   0.0000       0.041211         1.1214
  81   0.0000       0.067590         1.8392

MULLIKEN ATOMIC CHARGES
-----------------------
   0 Pd:    0.536771
   1 O :   -0.478476
   2 C :    0.680479
   3 O :   -0.516821
   4 C :   -0.772326
   5 H :    0.254045
   6 H :    0.263384
   7 H :    0.260235
   8 N :   -0.495297
   9 C :   -0.521947
  10 H :    0.279761
  11 H :    0.221079
  12 H :    0.280913
  13 C :   -0.527045
  14 H :    0.295806
  15 H :    0.217222
  16 H :    0.277934
  17 C :    0.115223
  18 C :   -0.285497
  19 C :   -0.206403
  20 C :   -0.228483
  21 C :   -0.208117
  22 C :   -0.280264
  23 H :    0.223539
  24 H :    0.221411
  25 H :    0.286512
  26 H :    0.227814
  27 H :    0.212597
  28 C :   -0.366708
  29 H :    0.234234
  30 H :    0.292388
  31 O :   -0.573364
  32 C :    0.553511
  33 O :   -0.439380
  34 C :   -0.747175
  35 H :    0.225771
  36 H :    0.245627
  37 H :    0.241050
Sum of atomic charges:    0.0000000

LOEWDIN ATOMIC CHARGES
----------------------
   0 Pd:   -0.304022
   1 O :   -0.142905
   2 C :    0.192923
   3 O :   -0.174021
   4 C :   -0.375508
   5 H :    0.154505
   6 H :    0.165985
   7 H :    0.157954
   8 N :   -0.041138
   9 C :   -0.226278
  10 H :    0.158204
  11 H :    0.120402
  12 H :    0.157808
  13 C :   -0.232459
  14 H :    0.163043
  15 H :    0.120586
  16 H :    0.156493
  17 C :   -0.060976
  18 C :   -0.101305
  19 C :   -0.125166
  20 C :   -0.126857
  21 C :   -0.134346
  22 C :   -0.129991
  23 H :    0.138043
  24 H :    0.137651
  25 H :    0.172704
  26 H :    0.141190
  27 H :    0.133654
  28 C :   -0.110016
  29 H :    0.128347
  30 H :    0.164014
  31 O :   -0.211199
  32 C :    0.124809
  33 O :   -0.240874
  34 C :   -0.384736
  35 H :    0.138816
  36 H :    0.152429
  37 H :    0.142237

  Mayer bond orders larger than 0.100000
B(  0-Pd,  1-O ) :   0.5345 B(  0-Pd,  3-O ) :   0.5343 B(  0-Pd,  8-N ) :   0.4375
B(  0-Pd, 31-O ) :   0.6066 B(  0-Pd, 33-O ) :   0.1028 B(  1-O ,  2-C ) :   1.4678
B(  1-O ,  3-O ) :   0.1041 B(  2-C ,  3-O ) :   1.4245 B(  2-C ,  4-C ) :   0.9598
B(  4-C ,  5-H ) :   0.9091 B(  4-C ,  6-H ) :   0.9004 B(  4-C ,  7-H ) :   0.9072
B(  8-N ,  9-C ) :   0.9165 B(  8-N , 13-C ) :   0.9161 B(  8-N , 28-C ) :   0.8869
B(  9-C , 10-H ) :   0.8983 B(  9-C , 11-H ) :   0.9021 B(  9-C , 12-H ) :   0.8939
B( 13-C , 14-H ) :   0.8861 B( 13-C , 15-H ) :   0.9060 B( 13-C , 16-H ) :   0.8985
B( 17-C , 18-C ) :   1.4109 B( 17-C , 22-C ) :   1.3969 B( 17-C , 28-C ) :   0.9475
B( 18-C , 19-C ) :   1.4210 B( 18-C , 25-H ) :   0.8761 B( 19-C , 20-C ) :   1.4196
B( 19-C , 26-H ) :   0.9179 B( 20-C , 21-C ) :   1.4248 B( 20-C , 23-H ) :   0.9185
B( 21-C , 22-C ) :   1.4337 B( 21-C , 24-H ) :   0.9189 B( 22-C , 27-H ) :   0.9208
B( 28-C , 29-H ) :   0.9058 B( 28-C , 30-H ) :   0.8847 B( 31-O , 32-C ) :   1.2336
B( 32-C , 33-O ) :   1.9023 B( 32-C , 34-C ) :   0.9380 B( 34-C , 35-H ) :   0.9174
B( 34-C , 36-H ) :   0.9116 B( 34-C , 37-H ) :   0.9194

Dispersion correction           -0.026571992
FINAL SINGLE POINT ENERGY      -988.574417259589
Dispersion correction            ... done

DIPOLE MOMENT
-------------
                                X             Y             Z
Electronic contribution:     37.41259      37.67820     -30.23334
Nuclear contribution   :    -39.27322     -37.57487      31.02713
                        -----------------------------------------
Total Dipole Moment    :     -1.86063       0.10333       0.79378
                        -----------------------------------------
Magnitude (a.u.)       :      2.02552
Magnitude (Debye)      :      5.14846

Rotational constants in cm-1:     0.013175     0.008562     0.007148
Rotational constants in MHz :   394.988606   256.669939   214.281251

                             ****ORCA TERMINATED NORMALLY****
TOTAL RUN TIME: 0 days 0 hours 3 minutes 34 seconds 62 msec
