                         Program Version 5.0.4 -  RELEASE  -
|  1> %pal nprocs 8 end
|  2>
|  3>  *xyzfile 0 1 IEIP_ts_guess.xyz
|  4>
|  5>
|  6>                          ****END OF INPUT****
|  1>
|  2>
|  3>   ! PBEh-3c OptTS Freq pal8
|  4>
|  5>   %geom
|  6>    calc_hess true
|  7>    recalc_hess 20
|  8>    maxiter 600
|  9>   end
| 10>
| 11>
| 12>                          ****END OF INPUT****
 Total Charge           Charge          ....    0
 Multiplicity           Mult            ....    1
 Number of Electrons    NEL             ....  154
Dispersion correction           -0.027325921
FINAL SINGLE POINT ENERGY      -988.479417041517
Dispersion correction            ... done
Dispersion correction in the Hessian             ... done   (      1.2 sec)
Dispersion correction           -0.027288415
FINAL SINGLE POINT ENERGY      -988.489231816609
Dispersion correction            ... done
Dispersion correction           -0.027324365
FINAL SINGLE POINT ENERGY      -988.495417768406
FINAL SINGLE POINT ENERGY      -988.500298217378
FINAL SINGLE POINT ENERGY      -988.503722020410
FINAL SINGLE POINT ENERGY      -988.506353726319
FINAL SINGLE POINT ENERGY      -988.508306982129
FINAL SINGLE POINT ENERGY      -988.509848659221
FINAL SINGLE POINT ENERGY      -988.511017844334
FINAL SINGLE POINT ENERGY      -988.512173998850
FINAL SINGLE POINT ENERGY      -988.531245656486
FINAL SINGLE POINT ENERGY      -988.531283148347
FINAL SINGLE POINT ENERGY      -988.531233658498
FINAL SINGLE POINT ENERGY      -988.531301247814
FINAL SINGLE POINT ENERGY      -988.531389659840
FINAL SINGLE POINT ENERGY      -988.531447672721
FINAL SINGLE POINT ENERGY      -988.531476076193
Dispersion correction           -0.027772019
FINAL SINGLE POINT ENERGY      -988.531473326452
Dispersion correction            ... done
                    ***********************HURRAY********************
Dispersion correction           -0.027772288
FINAL SINGLE POINT ENERGY      -988.531472522760
Dispersion correction in the Hessian             ... done   (      1.2 sec)

VIBRATIONAL FREQUENCIES
-----------------------

Scaling factor for frequencies =  1.000000000  (already applied!)

   0:         0.00 cm**-1
   1:         0.00 cm**-1
   2:         0.00 cm**-1
   3:         0.00 cm**-1
   4:         0.00 cm**-1
   5:         0.00 cm**-1
   6:     -1137.38 cm**-1 ***imaginary mode***
   7:        39.79 cm**-1
   8:        45.97 cm**-1
   9:        58.62 cm**-1
  10:        68.80 cm**-1
  11:        78.08 cm**-1
  12:        83.04 cm**-1
  13:        90.64 cm**-1
  14:       100.70 cm**-1
  15:       106.91 cm**-1
  16:       155.65 cm**-1
  17:       157.32 cm**-1
  18:       180.65 cm**-1
  19:       203.62 cm**-1
  20:       220.46 cm**-1
  21:       246.80 cm**-1
  22:       249.55 cm**-1
  23:       261.98 cm**-1
  24:       280.30 cm**-1
  25:       304.33 cm**-1
  26:       316.66 cm**-1
  27:       325.81 cm**-1
  28:       338.37 cm**-1
  29:       346.77 cm**-1
  30:       384.00 cm**-1
  31:       430.18 cm**-1
  32:       458.16 cm**-1
  33:       478.54 cm**-1
  34:       520.15 cm**-1
  35:       543.43 cm**-1
  36:       552.47 cm**-1
  37:       575.73 cm**-1
  38:       641.30 cm**-1
  39:       647.52 cm**-1
  40:       659.36 cm**-1
  41:       690.87 cm**-1
  42:       723.07 cm**-1
  43:       738.73 cm**-1
  44:       780.13 cm**-1
  45:       793.68 cm**-1
  46:       877.15 cm**-1
  47:       901.84 cm**-1
  48:       932.52 cm**-1
  49:       969.81 cm**-1
  50:       986.42 cm**-1
  51:      1009.58 cm**-1
  52:      1023.60 cm**-1
  53:      1049.88 cm**-1
  54:      1053.94 cm**-1
  55:      1066.54 cm**-1
  56:      1072.47 cm**-1
  57:      1084.14 cm**-1
  58:      1085.87 cm**-1
  59:      1104.78 cm**-1
  60:      1109.09 cm**-1
  61:      1113.24 cm**-1
  62:      1159.89 cm**-1
  63:      1164.35 cm**-1
  64:      1211.87 cm**-1
  65:      1220.25 cm**-1
  66:      1254.40 cm**-1
  67:      1270.03 cm**-1
  68:      1296.66 cm**-1
  69:      1317.50 cm**-1
  70:      1319.67 cm**-1
  71:      1345.94 cm**-1
  72:      1389.94 cm**-1
  73:      1398.56 cm**-1
  74:      1433.66 cm**-1
  75:      1442.19 cm**-1
  76:      1453.22 cm**-1
  77:      1463.09 cm**-1
  78:      1497.27 cm**-1
  79:      1517.47 cm**-1
  80:      1523.40 cm**-1
  81:      1524.53 cm**-1
  82:      1525.46 cm**-1
  83:      1535.44 cm**-1
  84:      1537.51 cm**-1
  85:      1538.31 cm**-1
  86:      1545.44 cm**-1
  87:      1553.24 cm**-1
  88:      1557.78 cm**-1
  89:      1562.92 cm**-1
  90:      1566.55 cm**-1
  91:      1569.01 cm**-1
  92:      1687.46 cm**-1
  93:      1713.13 cm**-1
  94:      1752.07 cm**-1
  95:      1826.22 cm**-1
  96:      3090.19 cm**-1
  97:      3092.58 cm**-1
  98:      3100.78 cm**-1
  99:      3128.01 cm**-1
 100:      3135.51 cm**-1
 101:      3158.84 cm**-1
 102:      3202.29 cm**-1
 103:      3204.93 cm**-1
 104:      3213.65 cm**-1
 105:      3218.62 cm**-1
 106:      3238.50 cm**-1
 107:      3244.35 cm**-1
 108:      3250.40 cm**-1
 109:      3256.03 cm**-1
 110:      3260.60 cm**-1
 111:      3264.14 cm**-1
 112:      3275.71 cm**-1
 113:      3288.85 cm**-1

IR SPECTRUM
-----------

 Mode   freq       eps      Int      T**2         TX        TY        TZ
       cm**-1   L/(mol*cm) km/mol    a.u.
----------------------------------------------------------------------------
  7:     39.79   0.000094    0.48  0.000740  ( 0.023855 -0.008201  0.010185)
  8:     45.97   0.000137    0.69  0.000930  (-0.013020 -0.004301 -0.027246)
  9:     58.62   0.000706    3.57  0.003759  ( 0.029192  0.034269  0.041628)
 10:     68.80   0.000202    1.02  0.000917  ( 0.004863 -0.018256  0.023666)
 11:     78.08   0.000130    0.66  0.000521  (-0.000684 -0.012750  0.018913)
 12:     83.04   0.000286    1.45  0.001076  (-0.022597  0.013632 -0.019493)
 13:     90.64   0.000446    2.26  0.001537  (-0.010266 -0.037577 -0.004444)
 14:    100.70   0.000433    2.19  0.001341  (-0.019674 -0.009912  0.029246)
 15:    106.91   0.001010    5.10  0.002947  (-0.037353 -0.022643  0.032235)
 16:    155.65   0.001577    7.97  0.003163  (-0.010091  0.001452 -0.055306)
 17:    157.32   0.000125    0.63  0.000248  ( 0.010826  0.011031  0.002982)
 18:    180.65   0.002723   13.76  0.004704  ( 0.037747  0.048993 -0.029647)
 19:    203.62   0.000981    4.96  0.001503  ( 0.020654 -0.024263  0.022095)
 20:    220.46   0.000238    1.20  0.000336  ( 0.005110  0.014425  0.010114)
 21:    246.80   0.000513    2.59  0.000649  ( 0.015300  0.018482 -0.008555)
 22:    249.55   0.000184    0.93  0.000230  (-0.003413 -0.001289  0.014715)
 23:    261.98   0.000325    1.64  0.000387  (-0.017891  0.001640 -0.008021)
 24:    280.30   0.000172    0.87  0.000192  (-0.004735 -0.012978  0.000920)
 25:    304.33   0.000344    1.74  0.000353  (-0.001233 -0.008674 -0.016619)
 26:    316.66   0.001773    8.96  0.001747  ( 0.010288 -0.007324 -0.039850)
 27:    325.81   0.001281    6.47  0.001227  ( 0.018192 -0.005590 -0.029400)
 28:    338.37   0.005585   28.23  0.005151  (-0.058769 -0.033006  0.024658)
 29:    346.77   0.001777    8.98  0.001599  ( 0.013221  0.033520  0.017335)
 30:    384.00   0.002118   10.71  0.001722  ( 0.027963  0.022117 -0.021225)
 31:    430.18   0.000297    1.50  0.000215  ( 0.011458  0.007473 -0.005304)
 32:    458.16   0.000544    2.75  0.000370  (-0.019061  0.002086 -0.001594)
 33:    478.54   0.001068    5.40  0.000696  ( 0.013706  0.019373 -0.011545)
 34:    520.15   0.003622   18.30  0.002173  (-0.037302 -0.027924  0.001245)
 35:    543.43   0.001684    8.51  0.000967  ( 0.010523 -0.007800 -0.028199)
 36:    552.47   0.003079   15.56  0.001739  (-0.009229 -0.039546 -0.009505)
 37:    575.73   0.000927    4.69  0.000503  (-0.001992 -0.013183 -0.018023)
 38:    641.30   0.000663    3.35  0.000323  (-0.006351  0.016562 -0.002806)
 39:    647.52   0.001485    7.51  0.000716  ( 0.023819  0.011921 -0.002506)
 40:    659.36   0.001993   10.07  0.000943  (-0.016855 -0.019292  0.016943)
 41:    690.87   0.004545   22.97  0.002053  (-0.024534 -0.037242 -0.007998)
 42:    723.07   0.011050   55.84  0.004769  (-0.037222  0.007110  0.057731)
 43:    738.73   0.012976   65.58  0.005481  ( 0.057139  0.047058 -0.001455)
 44:    780.13   0.001422    7.19  0.000569  (-0.009912 -0.021517  0.002769)
 45:    793.68   0.012522   63.28  0.004923  ( 0.035820 -0.058857 -0.013269)
 46:    877.15   0.000151    0.76  0.000054  ( 0.002064 -0.006976 -0.000895)
 47:    901.84   0.006812   34.42  0.002357  (-0.029891 -0.034041 -0.017458)
 48:    932.52   0.002389   12.07  0.000799  (-0.017179 -0.022455  0.000018)
 49:    969.81   0.000905    4.57  0.000291  ( 0.009912 -0.013888 -0.000266)
 50:    986.42   0.002487   12.57  0.000787  (-0.017813 -0.011175  0.018566)
 51:   1009.58   0.000562    2.84  0.000174  ( 0.003320  0.010491  0.007250)
 52:   1023.60   0.002365   11.95  0.000721  (-0.024057  0.005553  0.010558)
 53:   1049.88   0.003693   18.66  0.001098  (-0.001490 -0.019641 -0.026641)
 54:   1053.94   0.000563    2.84  0.000167  (-0.000349 -0.001127  0.012856)
 55:   1066.54   0.003208   16.21  0.000939  (-0.011461 -0.013269  0.025123)
 56:   1072.47   0.004945   24.99  0.001439  (-0.028413 -0.019724  0.015569)
 57:   1084.14   0.001629    8.23  0.000469  (-0.002615  0.013834 -0.016449)
 58:   1085.87   0.001551    7.84  0.000446  (-0.000976 -0.020868 -0.003060)
 59:   1104.78   0.001796    9.07  0.000507  (-0.017146 -0.007270 -0.012665)
 60:   1109.09   0.008656   43.74  0.002436  (-0.022272 -0.035814  0.025630)
 61:   1113.24   0.001367    6.91  0.000383  ( 0.012616  0.014244  0.004590)
 62:   1159.89   0.000665    3.36  0.000179  ( 0.012825  0.002838 -0.002539)
 63:   1164.35   0.000222    1.12  0.000059  (-0.000169  0.004869 -0.005977)
 64:   1211.87   0.001302    6.58  0.000335  (-0.004566 -0.004955  0.017022)
 65:   1220.25   0.000161    0.81  0.000041  ( 0.003072  0.001675  0.005367)
 66:   1254.40   0.001443    7.29  0.000359  ( 0.018926 -0.000226 -0.000898)
 67:   1270.03   0.001001    5.06  0.000246  ( 0.002372  0.006110  0.014251)
 68:   1296.66   0.045958  232.25  0.011061  (-0.065716 -0.048916  0.065948)
 69:   1317.50   0.028871  145.90  0.006838  ( 0.050458  0.034871 -0.055466)
 70:   1319.67   0.008259   41.74  0.001953  (-0.027033 -0.011103  0.033149)
 71:   1345.94   0.009813   49.59  0.002275  (-0.030328 -0.027576  0.024391)
 72:   1389.94   0.004085   20.64  0.000917  (-0.027856 -0.006082  0.010205)
 73:   1398.56   0.061189  309.22  0.013653  ( 0.043946  0.034919 -0.102483)
 74:   1433.66   0.000692    3.50  0.000151  ( 0.001913  0.009323 -0.007743)
 75:   1442.19   0.002391   12.08  0.000517  ( 0.005252 -0.005782 -0.021363)
 76:   1453.22   0.000709    3.58  0.000152  (-0.008369  0.005931 -0.006864)
 77:   1463.09   0.048283  244.00  0.010298  ( 0.055043  0.018791 -0.083160)
 78:   1497.27   0.001060    5.36  0.000221  (-0.005655  0.010630 -0.008715)
 79:   1517.47   0.013877   70.13  0.002854  ( 0.012352 -0.050579 -0.011959)
 80:   1523.40   0.004701   23.76  0.000963  ( 0.011494  0.028028  0.006737)
 81:   1524.53   0.013214   66.78  0.002705  (-0.028621 -0.042738  0.007700)
 82:   1525.46   0.004384   22.16  0.000897  ( 0.026656 -0.008770 -0.010461)
 83:   1535.44   0.000379    1.91  0.000077  ( 0.001658 -0.007611  0.004036)
 84:   1537.51   0.003082   15.57  0.000625  (-0.005689 -0.006218 -0.023547)
 85:   1538.31   0.001607    8.12  0.000326  ( 0.016883  0.005177  0.003750)
 86:   1545.44   0.000951    4.80  0.000192  (-0.012306 -0.005453 -0.003283)
 87:   1553.24   0.002970   15.01  0.000597  ( 0.011628 -0.009792  0.019122)
 88:   1557.78   0.028235  142.69  0.005656  ( 0.031119  0.060587  0.031891)
 89:   1562.92   0.003625   18.32  0.000724  (-0.020095  0.013924  0.011233)
 90:   1566.55   0.013228   66.85  0.002635  ( 0.017150  0.048270 -0.003314)
 91:   1569.01   0.005314   26.86  0.001057  (-0.029636 -0.011673 -0.006511)
 92:   1687.46   0.000086    0.43  0.000016  (-0.003545 -0.000800 -0.001616)
 93:   1713.13   0.001727    8.73  0.000315  ( 0.010630  0.001212 -0.014144)
 94:   1752.07   0.074757  377.79  0.013315  (-0.038156  0.101291  0.039992)
 95:   1826.22   0.067562  341.43  0.011545  ( 0.023395 -0.092799  0.048846)
 96:   3090.19   0.001636    8.27  0.000165  ( 0.012075 -0.004020  0.001811)
 97:   3092.58   0.004961   25.07  0.000501  (-0.011006 -0.019445 -0.001150)
 98:   3100.78   0.012935   65.37  0.001302  ( 0.024836  0.018202  0.018806)
 99:   3128.01   0.001327    6.71  0.000132  (-0.008213  0.002562  0.007642)
100:   3135.51   0.000279    1.41  0.000028  ( 0.002771  0.003885  0.002230)
101:   3158.84   0.000929    4.70  0.000092  ( 0.005989  0.007473 -0.000305)
102:   3202.29   0.001015    5.13  0.000099  (-0.008226 -0.001318 -0.005434)
103:   3204.93   0.001489    7.52  0.000145  (-0.003147 -0.007894 -0.008530)
104:   3213.65   0.000644    3.25  0.000062  ( 0.006807  0.003976 -0.000595)
105:   3218.62   0.000691    3.49  0.000067  ( 0.005288  0.004471  0.004364)
106:   3238.50   0.002127   10.75  0.000205  ( 0.000479 -0.010601  0.009610)
107:   3244.35   0.000505    2.55  0.000049  (-0.001111  0.000386  0.006873)
108:   3250.40   0.000850    4.30  0.000082  ( 0.004770 -0.006870 -0.003416)
109:   3256.03   0.000931    4.70  0.000089  (-0.008057 -0.004012 -0.002866)
110:   3260.60   0.000359    1.81  0.000034  ( 0.002809 -0.002647 -0.004409)
111:   3264.14   0.000033    0.16  0.000003  (-0.000169  0.001747  0.000163)
112:   3275.71   0.001624    8.21  0.000155  ( 0.010216  0.006579  0.002652)
113:   3288.85   0.002825   14.28  0.000268  (-0.002813 -0.003218  0.015805)

--------------------------
THERMOCHEMISTRY AT 298.15K
--------------------------

Temperature         ... 298.15 K
Pressure            ... 1.00 atm
Total Mass          ... 359.70 AMU

Throughout the following assumptions are being made:
  (1) The electronic state is orbitally nondegenerate
  (2) There are no thermally accessible electronically excited states
  (3) Hindered rotations indicated by low frequency modes are not
      treated as such but are treated as vibrations and this may
      cause some error
  (4) All equations used are the standard statistical mechanics
      equations for an ideal gas
  (5) All vibrations are strictly harmonic

freq.      39.79  E(vib)   ...       0.54
freq.      45.97  E(vib)   ...       0.53
freq.      58.62  E(vib)   ...       0.51
freq.      68.80  E(vib)   ...       0.50
freq.      78.08  E(vib)   ...       0.49
freq.      83.04  E(vib)   ...       0.48
freq.      90.64  E(vib)   ...       0.47
freq.     100.70  E(vib)   ...       0.46
freq.     106.91  E(vib)   ...       0.45
freq.     155.65  E(vib)   ...       0.40
freq.     157.32  E(vib)   ...       0.40
freq.     180.65  E(vib)   ...       0.37
freq.     203.62  E(vib)   ...       0.35
freq.     220.46  E(vib)   ...       0.33
freq.     246.80  E(vib)   ...       0.31
freq.     249.55  E(vib)   ...       0.31
freq.     261.98  E(vib)   ...       0.29
freq.     280.30  E(vib)   ...       0.28
freq.     304.33  E(vib)   ...       0.26
freq.     316.66  E(vib)   ...       0.25
freq.     325.81  E(vib)   ...       0.24
freq.     338.37  E(vib)   ...       0.23
freq.     346.77  E(vib)   ...       0.23
freq.     384.00  E(vib)   ...       0.20
freq.     430.18  E(vib)   ...       0.18
freq.     458.16  E(vib)   ...       0.16
freq.     478.54  E(vib)   ...       0.15
freq.     520.15  E(vib)   ...       0.13
freq.     543.43  E(vib)   ...       0.12
freq.     552.47  E(vib)   ...       0.12
freq.     575.73  E(vib)   ...       0.11
freq.     641.30  E(vib)   ...       0.09
freq.     647.52  E(vib)   ...       0.09
freq.     659.36  E(vib)   ...       0.08
freq.     690.87  E(vib)   ...       0.07
freq.     723.07  E(vib)   ...       0.07
freq.     738.73  E(vib)   ...       0.06
freq.     780.13  E(vib)   ...       0.05
freq.     793.68  E(vib)   ...       0.05
freq.     877.15  E(vib)   ...       0.04
freq.     901.84  E(vib)   ...       0.03
freq.     932.52  E(vib)   ...       0.03
freq.     969.81  E(vib)   ...       0.03
freq.     986.42  E(vib)   ...       0.02
freq.    1009.58  E(vib)   ...       0.02
freq.    1023.60  E(vib)   ...       0.02
freq.    1049.88  E(vib)   ...       0.02
freq.    1053.94  E(vib)   ...       0.02
freq.    1066.54  E(vib)   ...       0.02
freq.    1072.47  E(vib)   ...       0.02
freq.    1084.14  E(vib)   ...       0.02
freq.    1085.87  E(vib)   ...       0.02
freq.    1104.78  E(vib)   ...       0.02
freq.    1109.09  E(vib)   ...       0.02
freq.    1113.24  E(vib)   ...       0.01
freq.    1159.89  E(vib)   ...       0.01
freq.    1164.35  E(vib)   ...       0.01
freq.    1211.87  E(vib)   ...       0.01
freq.    1220.25  E(vib)   ...       0.01
freq.    1254.40  E(vib)   ...       0.01
freq.    1270.03  E(vib)   ...       0.01
freq.    1296.66  E(vib)   ...       0.01
freq.    1317.50  E(vib)   ...       0.01
freq.    1319.67  E(vib)   ...       0.01
freq.    1345.94  E(vib)   ...       0.01
freq.    1389.94  E(vib)   ...       0.00
freq.    1398.56  E(vib)   ...       0.00
freq.    1433.66  E(vib)   ...       0.00
freq.    1442.19  E(vib)   ...       0.00
freq.    1453.22  E(vib)   ...       0.00
freq.    1463.09  E(vib)   ...       0.00
freq.    1497.27  E(vib)   ...       0.00
freq.    1517.47  E(vib)   ...       0.00
freq.    1523.40  E(vib)   ...       0.00
freq.    1524.53  E(vib)   ...       0.00
freq.    1525.46  E(vib)   ...       0.00
freq.    1535.44  E(vib)   ...       0.00
freq.    1537.51  E(vib)   ...       0.00
freq.    1538.31  E(vib)   ...       0.00
freq.    1545.44  E(vib)   ...       0.00
freq.    1553.24  E(vib)   ...       0.00
freq.    1557.78  E(vib)   ...       0.00
freq.    1562.92  E(vib)   ...       0.00
freq.    1566.55  E(vib)   ...       0.00
freq.    1569.01  E(vib)   ...       0.00
freq.    1687.46  E(vib)   ...       0.00
freq.    1713.13  E(vib)   ...       0.00
freq.    1752.07  E(vib)   ...       0.00
freq.    1826.22  E(vib)   ...       0.00
freq.    3090.19  E(vib)   ...       0.00
freq.    3092.58  E(vib)   ...       0.00
freq.    3100.78  E(vib)   ...       0.00
freq.    3128.01  E(vib)   ...       0.00
freq.    3135.51  E(vib)   ...       0.00
freq.    3158.84  E(vib)   ...       0.00
freq.    3202.29  E(vib)   ...       0.00
freq.    3204.93  E(vib)   ...       0.00
freq.    3213.65  E(vib)   ...       0.00
freq.    3218.62  E(vib)   ...       0.00
freq.    3238.50  E(vib)   ...       0.00
freq.    3244.35  E(vib)   ...       0.00
freq.    3250.40  E(vib)   ...       0.00
freq.    3256.03  E(vib)   ...       0.00
freq.    3260.60  E(vib)   ...       0.00
freq.    3264.14  E(vib)   ...       0.00
freq.    3275.71  E(vib)   ...       0.00
freq.    3288.85  E(vib)   ...       0.00

------------
INNER ENERGY
------------

The inner energy is: U= E(el) + E(ZPE) + E(vib) + E(rot) + E(trans)
    E(el)   - is the total energy from the electronic structure calculation
              = E(kin-el) + E(nuc-el) + E(el-el) + E(nuc-nuc)
    E(ZPE)  - the the zero temperature vibrational energy from the frequency calculation
    E(vib)  - the the finite temperature correction to E(ZPE) due to population
              of excited vibrational states
    E(rot)  - is the rotational thermal energy
    E(trans)- is the translational thermal energy

Summary of contributions to the inner energy U:
Electronic energy                ...   -988.53147252 Eh
Zero point energy                ...      0.31351552 Eh     196.73 kcal/mol
Thermal vibrational correction   ...      0.01739312 Eh      10.91 kcal/mol
Thermal rotational correction    ...      0.00141627 Eh       0.89 kcal/mol
Thermal translational correction ...      0.00141627 Eh       0.89 kcal/mol
-----------------------------------------------------------------------
Total thermal energy                   -988.19773134 Eh

Summary of corrections to the electronic energy:
(perhaps to be used in another calculation)
Total thermal correction                  0.02022566 Eh      12.69 kcal/mol
Non-thermal (ZPE) correction              0.31351552 Eh     196.73 kcal/mol
-----------------------------------------------------------------------
Total correction                          0.33374118 Eh     209.43 kcal/mol

--------
ENTHALPY
--------

The enthalpy is H = U + kB*T

|  1>
|  2>
|  3>   ! PBEh-3c IRC pal8
|  4>   %irc
|  5>     maxiter 600
|  6>     inithess read
|  7>     hess_filename "reaction-1-ieip_optts_Compound_1.hess"
|  8>   end
|  9>
| 10>
| 11>                          ****END OF INPUT****

CARTESIAN COORDINATES (ANGSTROEM)
---------------------------------
  Pd     0.550522   -0.003304   -0.193599
  O      1.927195    1.329935    0.390888
  C      1.431751    2.427184    0.781866
  O      0.224515    2.589139    1.071326
  C      2.374742    3.593780    0.873113
  H      2.019226    4.334953    1.584114
  H      2.431132    4.063515   -0.110288
  H      3.377849    3.268094    1.138983
  N     -1.014941   -1.190060   -0.876708
  C     -0.773395   -2.604406   -0.552155
  H      0.135260   -2.935456   -1.049800
  H     -1.610021   -3.223969   -0.893574
  H     -0.652068   -2.739708    0.520102
  C     -1.243701   -1.057872   -2.323900
  H     -1.322803   -0.008594   -2.598003
  H     -2.163775   -1.580297   -2.605790
  H     -0.411421   -1.492173   -2.869446
  C     -1.841606   -0.556352    1.304845
  C     -2.527284   -1.246023    2.290019
  C     -2.057037   -1.237812    3.597859
  C     -0.881945   -0.572630    3.909544
  C     -0.196547    0.114050    2.917973
  C     -0.671166    0.160764    1.605204
  H     -0.504919   -0.583999    4.923584
  H      0.709076    0.649962    3.174270
  H     -3.419430   -1.808234    2.041145
  H     -2.600785   -1.768877    4.368236
  H     -0.350462    1.340623    1.145291
  C     -2.198010   -0.672968   -0.142781
  H     -2.440826    0.306717   -0.562268
  H     -3.058878   -1.330967   -0.311507
  O      1.696787   -0.448400   -1.760134
  C      1.761254    0.495564   -2.648147
  O      1.048235    1.481276   -2.672380
  C      2.847724    0.268021   -3.680980
  H      2.710911    0.923189   -4.537797
  H      2.876860   -0.768946   -4.013591
  H      3.818833    0.484712   -3.232334

 Multiplicity           Mult            ....    1
 Number of Electrons    NEL             ....  154
 Basis Dimension        Dim             ....  339

ORBITAL ENERGIES
----------------

  NO   OCC          E(Eh)            E(eV)
   0   2.0000     -19.497319      -530.5490
   1   2.0000     -19.483653      -530.1772
   2   2.0000     -19.466577      -529.7125
   3   2.0000     -19.427005      -528.6357
   4   2.0000     -14.724476      -400.6734
   5   2.0000     -10.566895      -287.5398
   6   2.0000     -10.526016      -286.4275
   7   2.0000     -10.502516      -285.7880
   8   2.0000     -10.485365      -285.3213
   9   2.0000     -10.479051      -285.1495
  10   2.0000     -10.478560      -285.1361
  11   2.0000     -10.470325      -284.9120
  12   2.0000     -10.466445      -284.8064
  13   2.0000     -10.466081      -284.7966
  14   2.0000     -10.461967      -284.6846
  15   2.0000     -10.456291      -284.5301
  16   2.0000     -10.432083      -283.8714
  17   2.0000     -10.410812      -283.2926
  18   2.0000      -3.658917       -99.5642
  19   2.0000      -2.306108       -62.7524
  20   2.0000      -2.303426       -62.6794
  21   2.0000      -2.269151       -61.7467
  22   2.0000      -1.192247       -32.4427
  23   2.0000      -1.144161       -31.1342
  24   2.0000      -1.091842       -29.7105
  25   2.0000      -1.083498       -29.4835
  26   2.0000      -1.047172       -28.4950
  27   2.0000      -0.976912       -26.5831
  28   2.0000      -0.887705       -24.1557
  29   2.0000      -0.855489       -23.2790
  30   2.0000      -0.824956       -22.4482
  31   2.0000      -0.822155       -22.3720
  32   2.0000      -0.803828       -21.8733
  33   2.0000      -0.792485       -21.5646
  34   2.0000      -0.721373       -19.6296
  35   2.0000      -0.699741       -19.0409
  36   2.0000      -0.678917       -18.4743
  37   2.0000      -0.626834       -17.0570
  38   2.0000      -0.601694       -16.3729
  39   2.0000      -0.592956       -16.1352
  40   2.0000      -0.584626       -15.9085
  41   2.0000      -0.575380       -15.6569
  42   2.0000      -0.569269       -15.4906
  43   2.0000      -0.551447       -15.0056
  44   2.0000      -0.539340       -14.6762
  45   2.0000      -0.531529       -14.4636
  46   2.0000      -0.522688       -14.2231
  47   2.0000      -0.517315       -14.0769
  48   2.0000      -0.503765       -13.7081
  49   2.0000      -0.494404       -13.4534
  50   2.0000      -0.491275       -13.3683
  51   2.0000      -0.487469       -13.2647
  52   2.0000      -0.484148       -13.1743
  53   2.0000      -0.473549       -12.8859
  54   2.0000      -0.462917       -12.5966
  55   2.0000      -0.459038       -12.4911
  56   2.0000      -0.451594       -12.2885
  57   2.0000      -0.450017       -12.2456
  58   2.0000      -0.440247       -11.9797
  59   2.0000      -0.435132       -11.8405
  60   2.0000      -0.428678       -11.6649
  61   2.0000      -0.419706       -11.4208
  62   2.0000      -0.414194       -11.2708
  63   2.0000      -0.408029       -11.1030
  64   2.0000      -0.403188       -10.9713
  65   2.0000      -0.378848       -10.3090
  66   2.0000      -0.372995       -10.1497
  67   2.0000      -0.365551        -9.9471
  68   2.0000      -0.340987        -9.2787
  69   2.0000      -0.334907        -9.1133
  70   2.0000      -0.322238        -8.7685
  71   2.0000      -0.311334        -8.4718
  72   2.0000      -0.307505        -8.3676
  73   2.0000      -0.301038        -8.1917
  74   2.0000      -0.296007        -8.0548
  75   2.0000      -0.293591        -7.9890
  76   2.0000      -0.271912        -7.3991
  77   0.0000      -0.053704        -1.4614
  78   0.0000      -0.002540        -0.0691
  79   0.0000       0.008332         0.2267
  80   0.0000       0.051963         1.4140
  81   0.0000       0.065576         1.7844

MULLIKEN ATOMIC CHARGES
-----------------------
   0 Pd:    0.506053
   1 O :   -0.489409
   2 C :    0.620228
   3 O :   -0.509237
   4 C :   -0.743925
   5 H :    0.244797
   6 H :    0.269138
   7 H :    0.249901
   8 N :   -0.492497
   9 C :   -0.528958
  10 H :    0.285550
  11 H :    0.222116
  12 H :    0.283151
  13 C :   -0.530272
  14 H :    0.295036
  15 H :    0.219831
  16 H :    0.274557
  17 C :    0.148861
  18 C :   -0.275076
  19 C :   -0.210626
  20 C :   -0.222629
  21 C :   -0.153934
  22 C :   -0.545151
  23 H :    0.228159
  24 H :    0.237624
  25 H :    0.217806
  26 H :    0.230902
  27 H :    0.472511
  28 C :   -0.355278
  29 H :    0.294413
  30 H :    0.235678
  31 O :   -0.548602
  32 C :    0.566612
  33 O :   -0.455144
  34 C :   -0.747411
  35 H :    0.235450
  36 H :    0.226080
  37 H :    0.243689
Sum of atomic charges:   -0.0000000

LOEWDIN ATOMIC CHARGES
----------------------
   0 Pd:   -0.401933
   1 O :   -0.137710
   2 C :    0.171831
   3 O :   -0.288905
   4 C :   -0.370929
   5 H :    0.146774
   6 H :    0.167477
   7 H :    0.150802
   8 N :   -0.040980
   9 C :   -0.231326
  10 H :    0.159874
  11 H :    0.121950
  12 H :    0.157109
  13 C :   -0.233799
  14 H :    0.164548
  15 H :    0.120435
  16 H :    0.156055
  17 C :   -0.026739
  18 C :   -0.137905
  19 C :   -0.107359
  20 C :   -0.134280
  21 C :   -0.069583
  22 C :   -0.157250
  23 H :    0.141420
  24 H :    0.153569
  25 H :    0.138219
  26 H :    0.141089
  27 H :    0.344420
  28 C :   -0.104263
  29 H :    0.165844
  30 H :    0.130094
  31 O :   -0.203472
  32 C :    0.125889
  33 O :   -0.256331
  34 C :   -0.384267
  35 H :    0.139289
  36 H :    0.138687
  37 H :    0.151652

  Mayer bond orders larger than 0.100000
B(  0-Pd,  1-O ) :   0.5464 B(  0-Pd,  8-N ) :   0.4266 B(  0-Pd, 22-C ) :   0.4642
B(  0-Pd, 31-O ) :   0.6081 B(  0-Pd, 33-O ) :   0.1093 B(  1-O ,  2-C ) :   1.4261
B(  2-C ,  3-O ) :   1.5672 B(  2-C ,  4-C ) :   0.9474 B(  3-O , 27-H ) :   0.2989
B(  4-C ,  5-H ) :   0.9143 B(  4-C ,  6-H ) :   0.8992 B(  4-C ,  7-H ) :   0.9119
B(  8-N ,  9-C ) :   0.9204 B(  8-N , 13-C ) :   0.9149 B(  8-N , 28-C ) :   0.8882
B(  9-C , 10-H ) :   0.8945 B(  9-C , 11-H ) :   0.9050 B(  9-C , 12-H ) :   0.8906
B( 13-C , 14-H ) :   0.8883 B( 13-C , 15-H ) :   0.9036 B( 13-C , 16-H ) :   0.8975
B( 17-C , 18-C ) :   1.4394 B( 17-C , 22-C ) :   1.2670 B( 17-C , 28-C ) :   0.9545
B( 18-C , 19-C ) :   1.4093 B( 18-C , 25-H ) :   0.9183 B( 19-C , 20-C ) :   1.4279
B( 19-C , 26-H ) :   0.9148 B( 20-C , 21-C ) :   1.4198 B( 20-C , 23-H ) :   0.9154
B( 21-C , 22-C ) :   1.3560 B( 21-C , 24-H ) :   0.9104 B( 22-C , 27-H ) :   0.3860
B( 28-C , 29-H ) :   0.8844 B( 28-C , 30-H ) :   0.9049 B( 31-O , 32-C ) :   1.2499
B( 32-C , 33-O ) :   1.8794 B( 32-C , 34-C ) :   0.9335 B( 34-C , 35-H ) :   0.9211
B( 34-C , 36-H ) :   0.9183 B( 34-C , 37-H ) :   0.9124

Dispersion correction           -0.027772288
FINAL SINGLE POINT ENERGY      -988.531472310016
Dispersion correction            ... done

DIPOLE MOMENT
-------------
                                X             Y             Z
Electronic contribution:     25.49696      -5.84770      -9.81631
Nuclear contribution   :    -26.87814       4.15725      10.64146
                        -----------------------------------------
Total Dipole Moment    :     -1.38118      -1.69045       0.82515
                        -----------------------------------------
Magnitude (a.u.)       :      2.33370
Magnitude (Debye)      :      5.93179

Rotational constants in cm-1:     0.016071     0.009699     0.006866
Rotational constants in MHz :   481.794383   290.764921   205.833607

                      ***********************HURRAY********************
                             ****ORCA TERMINATED NORMALLY****
TOTAL RUN TIME: 0 days 3 hours 51 minutes 30 seconds 152 msec
