                         Program Version 5.0.3 -  RELEASE  -
|  1> ! EnGrad PBEh-3c
|  2> %output
|  3> xyzfile=True
|  4> end
|  5> %scf
|  6> maxiter 250
|  7> end
|  8> %output
|  9> Print[P_Hirshfeld] = 1
| 10> end
| 11> % maxcore
| 12> 4000
| 13> *xyz -1 1
| 14> Pd  -2.38040822  -1.63999507   0.82188567
| 15> Cl  -3.97260663  -3.09311007   0.06865354
| 16> Cl  -1.23590724  -3.85155181   1.84292755
| 17> Cl  -3.53929299   0.15207754  -0.00690392
| 18> N   -0.90352234  -0.27138172   1.43832533
| 19> C   -1.17949230   0.24003442   2.62145395
| 20> C   -0.69411449   1.47252113   3.05829931
| 21> C    0.07861185   2.20047684   2.19371409
| 22> C   -0.06103589   0.37559812   0.60668494
| 23> C    0.41116343   1.66014252   0.94600660
| 24> H    0.43939784   3.18335724   2.47378011
| 25> H   -1.84768048  -0.33343569   3.25171840
| 26> H   -0.95893481   1.84214811   4.03899983
| 27> C    0.38930034  -0.25738368  -0.60954587
| 28> C    1.20151379   2.39620855   0.01408411
| 29> C    1.52349733   1.85989042  -1.17917105
| 30> C    1.15433789   0.51942351  -1.50867949
| 31> H    1.52407211   3.39837167   0.27366381
| 32> H    2.10672908   2.43596843  -1.89054182
| 33> C    0.14940101  -1.61008243  -0.91491420
| 34> C    1.60648462  -0.04688005  -2.70983867
| 35> C    0.62251912  -2.13948950  -2.09711591
| 36> C    1.34505087  -1.36007283  -3.00544318
| 37> H    2.18107283   0.55442303  -3.40654745
| 38> H    1.70455361  -1.78918652  -3.93235727
| 39> H   -0.12541509  -2.71249913  -0.05512418
| 40> H    0.46069657  -3.18557303  -2.33402242
| 41> *
| 42>
| 43>                          ****END OF INPUT****

CARTESIAN COORDINATES (ANGSTROEM)
---------------------------------
  Pd    -2.380408   -1.639995    0.821886
  Cl    -3.972607   -3.093110    0.068654
  Cl    -1.235907   -3.851552    1.842928
  Cl    -3.539293    0.152078   -0.006904
  N     -0.903522   -0.271382    1.438325
  C     -1.179492    0.240034    2.621454
  C     -0.694114    1.472521    3.058299
  C      0.078612    2.200477    2.193714
  C     -0.061036    0.375598    0.606685
  C      0.411163    1.660143    0.946007
  H      0.439398    3.183357    2.473780
  H     -1.847680   -0.333436    3.251718
  H     -0.958935    1.842148    4.039000
  C      0.389300   -0.257384   -0.609546
  C      1.201514    2.396209    0.014084
  C      1.523497    1.859890   -1.179171
  C      1.154338    0.519424   -1.508679
  H      1.524072    3.398372    0.273664
  H      2.106729    2.435968   -1.890542
  C      0.149401   -1.610082   -0.914914
  C      1.606485   -0.046880   -2.709839
  C      0.622519   -2.139489   -2.097116
  C      1.345051   -1.360073   -3.005443
  H      2.181073    0.554423   -3.406547
  H      1.704554   -1.789187   -3.932357
  H     -0.125415   -2.712499   -0.055124
  H      0.460697   -3.185573   -2.334022

 Total Charge           Charge          ....   -1
 Multiplicity           Mult            ....    1
 Number of Electrons    NEL             ....  164
 Basis Dimension        Dim             ....  313

ORBITAL ENERGIES
----------------

  NO   OCC          E(Eh)            E(eV)
   0   2.0000    -102.089568     -2777.9984
   1   2.0000    -102.074550     -2777.5897
   2   2.0000    -102.059162     -2777.1710
   3   2.0000     -14.595872      -397.1739
   4   2.0000     -10.421001      -283.5699
   5   2.0000     -10.411787      -283.3191
   6   2.0000     -10.397332      -282.9258
   7   2.0000     -10.392035      -282.7816
   8   2.0000     -10.383783      -282.5571
   9   2.0000     -10.382624      -282.5256
  10   2.0000     -10.382148      -282.5126
  11   2.0000     -10.381962      -282.5075
  12   2.0000     -10.381129      -282.4849
  13   2.0000     -10.375177      -282.3229
  14   2.0000     -10.368483      -282.1408
  15   2.0000     -10.367280      -282.1080
  16   2.0000     -10.357277      -281.8358
  17   2.0000      -9.553572      -259.9659
  18   2.0000      -9.538954      -259.5681
  19   2.0000      -9.521321      -259.0883
  20   2.0000      -7.239771      -197.0042
  21   2.0000      -7.234423      -196.8587
  22   2.0000      -7.234178      -196.8520
  23   2.0000      -7.225397      -196.6130
  24   2.0000      -7.219708      -196.4583
  25   2.0000      -7.219235      -196.4454
  26   2.0000      -7.206381      -196.0956
  27   2.0000      -7.203232      -196.0099
  28   2.0000      -7.202629      -195.9935
  29   2.0000      -3.510351       -95.5215
  30   2.0000      -2.159298       -58.7575
  31   2.0000      -2.151814       -58.5538
  32   2.0000      -2.121470       -57.7281
  33   2.0000      -0.994358       -27.0578
  34   2.0000      -0.897434       -24.4204
  35   2.0000      -0.856916       -23.3179
  36   2.0000      -0.823587       -22.4109
  37   2.0000      -0.789531       -21.4842
  38   2.0000      -0.755507       -20.5584
  39   2.0000      -0.735089       -20.0028
  40   2.0000      -0.681034       -18.5319
  41   2.0000      -0.663452       -18.0535
  42   2.0000      -0.655183       -17.8284
  43   2.0000      -0.650983       -17.7141
  44   2.0000      -0.639088       -17.3905
  45   2.0000      -0.620257       -16.8781
  46   2.0000      -0.587773       -15.9941
  47   2.0000      -0.539493       -14.6804
  48   2.0000      -0.527791       -14.3619
  49   2.0000      -0.504734       -13.7345
  50   2.0000      -0.471400       -12.8274
  51   2.0000      -0.470909       -12.8141
  52   2.0000      -0.441980       -12.0269
  53   2.0000      -0.422120       -11.4865
  54   2.0000      -0.416842       -11.3428
  55   2.0000      -0.406165       -11.0523
  56   2.0000      -0.400345       -10.8939
  57   2.0000      -0.390350       -10.6219
  58   2.0000      -0.371840       -10.1183
  59   2.0000      -0.355194        -9.6653
  60   2.0000      -0.348951        -9.4954
  61   2.0000      -0.327318        -8.9068
  62   2.0000      -0.312856        -8.5132
  63   2.0000      -0.301075        -8.1927
  64   2.0000      -0.280267        -7.6265
  65   2.0000      -0.274575        -7.4716
  66   2.0000      -0.253582        -6.9003
  67   2.0000      -0.251505        -6.8438
  68   2.0000      -0.237442        -6.4611
  69   2.0000      -0.221383        -6.0241
  70   2.0000      -0.220362        -5.9964
  71   2.0000      -0.211723        -5.7613
  72   2.0000      -0.197830        -5.3832
  73   2.0000      -0.179202        -4.8763
  74   2.0000      -0.167243        -4.5509
  75   2.0000      -0.159113        -4.3297
  76   2.0000      -0.155814        -4.2399
  77   2.0000      -0.144617        -3.9352
  78   2.0000      -0.141027        -3.8375
  79   2.0000      -0.135308        -3.6819
  80   2.0000      -0.133232        -3.6254
  81   2.0000      -0.123955        -3.3730
  82   0.0000       0.038730         1.0539
  83   0.0000       0.055785         1.5180
  84   0.0000       0.079374         2.1599
  85   0.0000       0.100255         2.7281
  86   0.0000       0.128199         3.4885

MULLIKEN ATOMIC CHARGES
-----------------------
   0 Pd:    0.113258
   1 Cl:   -0.322180
   2 Cl:   -0.507339
   3 Cl:   -0.380187
   4 N :   -0.546225
   5 C :    0.046405
   6 C :   -0.308481
   7 C :   -0.157879
   8 C :    0.370160
   9 C :    0.044976
  10 H :    0.212609
  11 H :    0.285301
  12 H :    0.222660
  13 C :    0.057608
  14 C :   -0.291629
  15 C :   -0.283905
  16 C :    0.136620
  17 H :    0.198715
  18 H :    0.199487
  19 C :   -0.257368
  20 C :   -0.308012
  21 C :   -0.227126
  22 C :   -0.203693
  23 H :    0.194348
  24 H :    0.202788
  25 H :    0.275666
  26 H :    0.233425
Sum of atomic charges:   -1.0000000

LOEWDIN ATOMIC CHARGES
----------------------
   0 Pd:   -0.904667
   1 Cl:   -0.065975
   2 Cl:   -0.353998
   3 Cl:   -0.100451
   4 N :    0.035827
   5 C :    0.021813
   6 C :   -0.160014
   7 C :   -0.082667
   8 C :    0.093722
   9 C :   -0.048006
  10 H :    0.136299
  11 H :    0.169502
  12 H :    0.142166
  13 C :   -0.022259
  14 C :   -0.133450
  15 C :   -0.117139
  16 C :   -0.027408
  17 H :    0.132130
  18 H :    0.133254
  19 C :   -0.077641
  20 C :   -0.140310
  21 C :   -0.135217
  22 C :   -0.131399
  23 H :    0.127658
  24 H :    0.129147
  25 H :    0.237771
  26 H :    0.141312

  Mayer bond orders larger than 0.100000
B(  0-Pd,  1-Cl) :   0.9546 B(  0-Pd,  2-Cl) :   0.6043 B(  0-Pd,  3-Cl) :   0.8767
B(  0-Pd,  4-N ) :   0.3471 B(  2-Cl, 25-H ) :   0.1110 B(  4-N ,  5-C ) :   1.4724
B(  4-N ,  8-C ) :   1.2258 B(  5-C ,  6-C ) :   1.3140 B(  5-C , 11-H ) :   0.8924
B(  6-C ,  7-C ) :   1.4670 B(  6-C , 12-H ) :   0.9184 B(  7-C ,  9-C ) :   1.2772
B(  7-C , 10-H ) :   0.9282 B(  8-C ,  9-C ) :   1.2329 B(  8-C , 13-C ) :   1.1116
B(  9-C , 14-C ) :   1.1621 B( 13-C , 16-C ) :   1.3104 B( 13-C , 19-C ) :   1.2469
B( 14-C , 15-C ) :   1.6509 B( 14-C , 17-H ) :   0.9291 B( 15-C , 16-C ) :   1.1550
B( 15-C , 18-H ) :   0.9276 B( 16-C , 20-C ) :   1.2720 B( 19-C , 21-C ) :   1.4765
B( 19-C , 25-H ) :   0.7891 B( 20-C , 22-C ) :   1.4961 B( 20-C , 23-H ) :   0.9310
B( 21-C , 22-C ) :   1.3495 B( 21-C , 26-H ) :   0.9133 B( 22-C , 24-H ) :   0.9222

Dispersion correction           -0.024612489
FINAL SINGLE POINT ENERGY     -2061.477528084544
Dispersion correction            ... done

DIPOLE MOMENT
-------------
                                X             Y             Z
Electronic contribution:    -93.47143     -61.71171      35.96494
Nuclear contribution   :     97.19446      65.57269     -36.08745
                        -----------------------------------------
Total Dipole Moment    :      3.72302       3.86098      -0.12251
                        -----------------------------------------
Magnitude (a.u.)       :      5.36498
Magnitude (Debye)      :     13.63671

Rotational constants in cm-1:     0.012367     0.007224     0.005941
Rotational constants in MHz :   370.751041   216.571540   178.102043

                             ****ORCA TERMINATED NORMALLY****
TOTAL RUN TIME: 0 days 0 hours 22 minutes 4 seconds 530 msec
