                         Program Version 5.0.3 -  RELEASE  -
|  1> ! EnGrad PBEh-3c
|  2> %output
|  3> xyzfile=True
|  4> end
|  5> %scf
|  6> maxiter 250
|  7> end
|  8> %output
|  9> Print[P_Hirshfeld] = 1
| 10> end
| 11> % maxcore
| 12> 4000
| 13> *xyz -1 1
| 14> Pd  -2.23469674  -1.83535096   0.82230340
| 15> Cl  -3.72987797  -3.22488955  -0.07308430
| 16> Cl  -1.00190963  -4.01571210   1.53244129
| 17> Cl  -3.74728549  -0.06390939   0.41149395
| 18> N   -0.93769573  -0.21021200   1.45586382
| 19> C   -1.24371050   0.35584520   2.60640262
| 20> C   -0.73691236   1.58826529   3.02731370
| 21> C    0.08072602   2.28009455   2.17599514
| 22> C   -0.06987753   0.40080641   0.62490972
| 23> C    0.42730518   1.70616203   0.94326155
| 24> H    0.46838361   3.25755243   2.44957674
| 25> H   -1.91989818  -0.19925773   3.23733689
| 26> H   -1.02831626   1.98607673   3.98856866
| 27> C    0.37665872  -0.31854783  -0.56250680
| 28> C    1.27754617   2.40652661   0.03582345
| 29> C    1.59644097   1.82442990  -1.13924354
| 30> C    1.15049888   0.48525829  -1.45967208
| 31> H    1.64410512   3.39798511   0.30261465
| 32> H    2.24251120   2.37307224  -1.83642172
| 33> C    0.14550578  -1.68423884  -0.85882404
| 34> C    1.62466103  -0.05514491  -2.67474802
| 35> C    0.48288736  -2.11613653  -2.12559627
| 36> C    1.23913414  -1.32923205  -3.00350787
| 37> H    2.27278920   0.52576973  -3.34266470
| 38> H    1.63026776  -1.77913280  -3.90780664
| 39> H   -0.20727197  -2.64579955  -0.19929893
| 40> H    0.20209116  -3.10947257  -2.42776942
| 41> *
| 42>
| 43>                          ****END OF INPUT****

CARTESIAN COORDINATES (ANGSTROEM)
---------------------------------
  Pd    -2.234697   -1.835351    0.822303
  Cl    -3.729878   -3.224890   -0.073084
  Cl    -1.001910   -4.015712    1.532441
  Cl    -3.747285   -0.063909    0.411494
  N     -0.937696   -0.210212    1.455864
  C     -1.243710    0.355845    2.606403
  C     -0.736912    1.588265    3.027314
  C      0.080726    2.280095    2.175995
  C     -0.069878    0.400806    0.624910
  C      0.427305    1.706162    0.943262
  H      0.468384    3.257552    2.449577
  H     -1.919898   -0.199258    3.237337
  H     -1.028316    1.986077    3.988569
  C      0.376659   -0.318548   -0.562507
  C      1.277546    2.406527    0.035823
  C      1.596441    1.824430   -1.139244
  C      1.150499    0.485258   -1.459672
  H      1.644105    3.397985    0.302615
  H      2.242511    2.373072   -1.836422
  C      0.145506   -1.684239   -0.858824
  C      1.624661   -0.055145   -2.674748
  C      0.482887   -2.116137   -2.125596
  C      1.239134   -1.329232   -3.003508
  H      2.272789    0.525770   -3.342665
  H      1.630268   -1.779133   -3.907807
  H     -0.207272   -2.645800   -0.199299
  H      0.202091   -3.109473   -2.427769

 Total Charge           Charge          ....   -1
 Multiplicity           Mult            ....    1
 Number of Electrons    NEL             ....  164
 Basis Dimension        Dim             ....  313

ORBITAL ENERGIES
----------------

  NO   OCC          E(Eh)            E(eV)
   0   2.0000    -102.083921     -2777.8447
   1   2.0000    -102.080732     -2777.7579
   2   2.0000    -102.064616     -2777.3194
   3   2.0000     -14.592763      -397.0893
   4   2.0000     -10.421954      -283.5958
   5   2.0000     -10.407982      -283.2156
   6   2.0000     -10.395394      -282.8731
   7   2.0000     -10.393225      -282.8140
   8   2.0000     -10.386367      -282.6274
   9   2.0000     -10.385845      -282.6132
  10   2.0000     -10.383274      -282.5432
  11   2.0000     -10.380909      -282.4789
  12   2.0000     -10.380272      -282.4616
  13   2.0000     -10.368975      -282.1542
  14   2.0000     -10.365194      -282.0513
  15   2.0000     -10.364670      -282.0370
  16   2.0000     -10.355348      -281.7834
  17   2.0000      -9.547318      -259.7957
  18   2.0000      -9.545788      -259.7541
  19   2.0000      -9.527057      -259.2444
  20   2.0000      -7.233402      -196.8309
  21   2.0000      -7.232401      -196.8036
  22   2.0000      -7.228338      -196.6931
  23   2.0000      -7.228029      -196.6847
  24   2.0000      -7.226380      -196.6398
  25   2.0000      -7.225834      -196.6249
  26   2.0000      -7.212320      -196.2572
  27   2.0000      -7.208781      -196.1609
  28   2.0000      -7.208276      -196.1472
  29   2.0000      -3.509343       -95.4941
  30   2.0000      -2.159044       -58.7506
  31   2.0000      -2.149849       -58.5004
  32   2.0000      -2.121008       -57.7156
  33   2.0000      -0.989435       -26.9239
  34   2.0000      -0.890955       -24.2441
  35   2.0000      -0.854090       -23.2410
  36   2.0000      -0.819952       -22.3120
  37   2.0000      -0.785301       -21.3691
  38   2.0000      -0.750588       -20.4245
  39   2.0000      -0.736082       -20.0298
  40   2.0000      -0.678867       -18.4729
  41   2.0000      -0.666251       -18.1296
  42   2.0000      -0.650982       -17.7141
  43   2.0000      -0.647031       -17.6066
  44   2.0000      -0.646521       -17.5927
  45   2.0000      -0.616287       -16.7700
  46   2.0000      -0.587115       -15.9762
  47   2.0000      -0.536588       -14.6013
  48   2.0000      -0.524865       -14.2823
  49   2.0000      -0.501751       -13.6533
  50   2.0000      -0.469947       -12.7879
  51   2.0000      -0.468522       -12.7491
  52   2.0000      -0.437609       -11.9079
  53   2.0000      -0.419467       -11.4143
  54   2.0000      -0.410723       -11.1763
  55   2.0000      -0.405394       -11.0313
  56   2.0000      -0.397228       -10.8091
  57   2.0000      -0.393278       -10.7016
  58   2.0000      -0.376344       -10.2409
  59   2.0000      -0.350159        -9.5283
  60   2.0000      -0.347524        -9.4566
  61   2.0000      -0.322803        -8.7839
  62   2.0000      -0.313113        -8.5202
  63   2.0000      -0.302868        -8.2415
  64   2.0000      -0.295744        -8.0476
  65   2.0000      -0.270881        -7.3711
  66   2.0000      -0.254254        -6.9186
  67   2.0000      -0.246123        -6.6973
  68   2.0000      -0.234997        -6.3946
  69   2.0000      -0.228481        -6.2173
  70   2.0000      -0.219613        -5.9760
  71   2.0000      -0.216191        -5.8828
  72   2.0000      -0.194407        -5.2901
  73   2.0000      -0.178197        -4.8490
  74   2.0000      -0.169738        -4.6188
  75   2.0000      -0.163376        -4.4457
  76   2.0000      -0.155790        -4.2392
  77   2.0000      -0.145635        -3.9629
  78   2.0000      -0.141424        -3.8483
  79   2.0000      -0.136876        -3.7246
  80   2.0000      -0.134928        -3.6716
  81   2.0000      -0.124979        -3.4008
  82   0.0000       0.044065         1.1991
  83   0.0000       0.056903         1.5484
  84   0.0000       0.076960         2.0942
  85   0.0000       0.099191         2.6991
  86   0.0000       0.129618         3.5271

MULLIKEN ATOMIC CHARGES
-----------------------
   0 Pd:    0.103575
   1 Cl:   -0.299439
   2 Cl:   -0.486666
   3 Cl:   -0.400033
   4 N :   -0.532355
   5 C :    0.048469
   6 C :   -0.313914
   7 C :   -0.155872
   8 C :    0.330242
   9 C :    0.038678
  10 H :    0.211567
  11 H :    0.277332
  12 H :    0.220839
  13 C :    0.078644
  14 C :   -0.292167
  15 C :   -0.271572
  16 C :    0.102620
  17 H :    0.199264
  18 H :    0.198338
  19 C :   -0.283216
  20 C :   -0.295845
  21 C :   -0.213911
  22 C :   -0.212968
  23 H :    0.196043
  24 H :    0.198056
  25 H :    0.313916
  26 H :    0.240374
Sum of atomic charges:   -1.0000000

LOEWDIN ATOMIC CHARGES
----------------------
   0 Pd:   -0.910211
   1 Cl:   -0.022141
   2 Cl:   -0.311765
   3 Cl:   -0.148194
   4 N :    0.027715
   5 C :    0.013800
   6 C :   -0.162707
   7 C :   -0.088810
   8 C :    0.090079
   9 C :   -0.048431
  10 H :    0.135767
  11 H :    0.164010
  12 H :    0.140986
  13 C :   -0.016975
  14 C :   -0.138829
  15 C :   -0.119493
  16 C :   -0.024146
  17 H :    0.131847
  18 H :    0.133257
  19 C :   -0.080604
  20 C :   -0.142543
  21 C :   -0.124179
  22 C :   -0.132154
  23 H :    0.128958
  24 H :    0.127764
  25 H :    0.231916
  26 H :    0.145082

  Mayer bond orders larger than 0.100000
B(  0-Pd,  1-Cl) :   0.9819 B(  0-Pd,  2-Cl) :   0.6408 B(  0-Pd,  3-Cl) :   0.8186
B(  0-Pd,  4-N ) :   0.3222 B(  2-Cl, 25-H ) :   0.1205 B(  4-N ,  5-C ) :   1.4782
B(  4-N ,  8-C ) :   1.2434 B(  5-C ,  6-C ) :   1.3208 B(  5-C , 11-H ) :   0.8962
B(  6-C ,  7-C ) :   1.4590 B(  6-C , 12-H ) :   0.9186 B(  7-C ,  9-C ) :   1.2837
B(  7-C , 10-H ) :   0.9281 B(  8-C ,  9-C ) :   1.2172 B(  8-C , 13-C ) :   1.0870
B(  9-C , 14-C ) :   1.1644 B( 13-C , 16-C ) :   1.3083 B( 13-C , 19-C ) :   1.2313
B( 14-C , 15-C ) :   1.6432 B( 14-C , 17-H ) :   0.9281 B( 15-C , 16-C ) :   1.1450
B( 15-C , 18-H ) :   0.9285 B( 16-C , 20-C ) :   1.2735 B( 19-C , 21-C ) :   1.4763
B( 19-C , 25-H ) :   0.7809 B( 20-C , 22-C ) :   1.4905 B( 20-C , 23-H ) :   0.9301
B( 21-C , 22-C ) :   1.3477 B( 21-C , 26-H ) :   0.9105 B( 22-C , 24-H ) :   0.9252

Dispersion correction           -0.024388622
FINAL SINGLE POINT ENERGY     -2061.500537495404
Dispersion correction            ... done

DIPOLE MOMENT
-------------
                                X             Y             Z
Electronic contribution:    -86.96865     -70.31338      35.93390
Nuclear contribution   :     90.46774      74.11121     -36.05339
                        -----------------------------------------
Total Dipole Moment    :      3.49910       3.79783      -0.11949
                        -----------------------------------------
Magnitude (a.u.)       :      5.16541
Magnitude (Debye)      :     13.12943

Rotational constants in cm-1:     0.012263     0.007389     0.005829
Rotational constants in MHz :   367.630406   221.514563   174.757974

                             ****ORCA TERMINATED NORMALLY****
TOTAL RUN TIME: 0 days 0 hours 13 minutes 2 seconds 673 msec
