                         Program Version 5.0.3 -  RELEASE  -
|  1> ! EnGrad PBEh-3c
|  2> %output
|  3> xyzfile=True
|  4> end
|  5> %scf
|  6> maxiter 250
|  7> end
|  8> %output
|  9> Print[P_Hirshfeld] = 1
| 10> end
| 11> % maxcore
| 12> 4000
| 13> *xyz -1 1
| 14> Pd  -2.22011402  -1.84370744   0.81807282
| 15> Cl  -3.70257226  -3.24368520  -0.09227388
| 16> Cl  -0.96455044  -4.03357553   1.48735324
| 17> Cl  -3.77028594  -0.09831840   0.46938431
| 18> N   -0.94007453  -0.20439894   1.45855706
| 19> C   -1.25259302   0.36849751   2.60383373
| 20> C   -0.74281745   1.60287941   3.02245823
| 21> C    0.07976375   2.28797716   2.17313855
| 22> C   -0.06934244   0.40292170   0.62849973
| 23> C    0.42939372   1.70995583   0.94250356
| 24> H    0.47178354   3.26619553   2.44560918
| 25> H   -1.93030766  -0.18260272   3.23605574
| 26> H   -1.03677839   2.00389132   3.98262372
| 27> C    0.38077116  -0.32209441  -0.55793006
| 28> C    1.28479051   2.40536143   0.03993382
| 29> C    1.60551550   1.81914907  -1.13554635
| 30> C    1.15394137   0.48377623  -1.45092515
| 31> H    1.65835619   3.39619102   0.30560828
| 32> H    2.25661950   2.36148421  -1.82883072
| 33> C    0.13652885  -1.67951795  -0.85487618
| 34> C    1.62570353  -0.05880652  -2.67275109
| 35> C    0.46937544  -2.11746224  -2.13238264
| 36> C    1.22897434  -1.32559825  -3.00202827
| 37> H    2.28087533   0.51881347  -3.33068284
| 38> H    1.61838272  -1.77944438  -3.90691080
| 39> H   -0.21891724  -2.63746071  -0.20594745
| 40> H    0.17139257  -3.10016643  -2.43890743
| 41> *
| 42>
| 43>                          ****END OF INPUT****

CARTESIAN COORDINATES (ANGSTROEM)
---------------------------------
  Pd    -2.220114   -1.843707    0.818073
  Cl    -3.702572   -3.243685   -0.092274
  Cl    -0.964550   -4.033576    1.487353
  Cl    -3.770286   -0.098318    0.469384
  N     -0.940075   -0.204399    1.458557
  C     -1.252593    0.368498    2.603834
  C     -0.742817    1.602879    3.022458
  C      0.079764    2.287977    2.173139
  C     -0.069342    0.402922    0.628500
  C      0.429394    1.709956    0.942504
  H      0.471784    3.266196    2.445609
  H     -1.930308   -0.182603    3.236056
  H     -1.036778    2.003891    3.982624
  C      0.380771   -0.322094   -0.557930
  C      1.284791    2.405361    0.039934
  C      1.605515    1.819149   -1.135546
  C      1.153941    0.483776   -1.450925
  H      1.658356    3.396191    0.305608
  H      2.256619    2.361484   -1.828831
  C      0.136529   -1.679518   -0.854876
  C      1.625704   -0.058807   -2.672751
  C      0.469375   -2.117462   -2.132383
  C      1.228974   -1.325598   -3.002028
  H      2.280875    0.518813   -3.330683
  H      1.618383   -1.779444   -3.906911
  H     -0.218917   -2.637461   -0.205947
  H      0.171393   -3.100166   -2.438907

 Total Charge           Charge          ....   -1
 Multiplicity           Mult            ....    1
 Number of Electrons    NEL             ....  164
 Basis Dimension        Dim             ....  313

ORBITAL ENERGIES
----------------

  NO   OCC          E(Eh)            E(eV)
   0   2.0000    -102.085004     -2777.8742
   1   2.0000    -102.081068     -2777.7671
   2   2.0000    -102.064036     -2777.3036
   3   2.0000     -14.592993      -397.0955
   4   2.0000     -10.422185      -283.6021
   5   2.0000     -10.408336      -283.2252
   6   2.0000     -10.395467      -282.8750
   7   2.0000     -10.393199      -282.8133
   8   2.0000     -10.385951      -282.6161
   9   2.0000     -10.385498      -282.6038
  10   2.0000     -10.383060      -282.5374
  11   2.0000     -10.381041      -282.4825
  12   2.0000     -10.380428      -282.4658
  13   2.0000     -10.368443      -282.1397
  14   2.0000     -10.364454      -282.0311
  15   2.0000     -10.363878      -282.0155
  16   2.0000     -10.355755      -281.7944
  17   2.0000      -9.548423      -259.8258
  18   2.0000      -9.546056      -259.7614
  19   2.0000      -9.526498      -259.2292
  20   2.0000      -7.234516      -196.8612
  21   2.0000      -7.232680      -196.8112
  22   2.0000      -7.229439      -196.7230
  23   2.0000      -7.229121      -196.7144
  24   2.0000      -7.226652      -196.6472
  25   2.0000      -7.226101      -196.6322
  26   2.0000      -7.211744      -196.2415
  27   2.0000      -7.208238      -196.1461
  28   2.0000      -7.207713      -196.1318
  29   2.0000      -3.509785       -95.5061
  30   2.0000      -2.159405       -58.7604
  31   2.0000      -2.150403       -58.5154
  32   2.0000      -2.121467       -57.7281
  33   2.0000      -0.989515       -26.9261
  34   2.0000      -0.890706       -24.2374
  35   2.0000      -0.853984       -23.2381
  36   2.0000      -0.819674       -22.3045
  37   2.0000      -0.784975       -21.3603
  38   2.0000      -0.750737       -20.4286
  39   2.0000      -0.735103       -20.0032
  40   2.0000      -0.679352       -18.4861
  41   2.0000      -0.667003       -18.1501
  42   2.0000      -0.650433       -17.6992
  43   2.0000      -0.647304       -17.6140
  44   2.0000      -0.646062       -17.5802
  45   2.0000      -0.616597       -16.7785
  46   2.0000      -0.586809       -15.9679
  47   2.0000      -0.536615       -14.6020
  48   2.0000      -0.524741       -14.2789
  49   2.0000      -0.501693       -13.6518
  50   2.0000      -0.470444       -12.8014
  51   2.0000      -0.468281       -12.7426
  52   2.0000      -0.437691       -11.9102
  53   2.0000      -0.419054       -11.4030
  54   2.0000      -0.410523       -11.1709
  55   2.0000      -0.405758       -11.0412
  56   2.0000      -0.397718       -10.8225
  57   2.0000      -0.392869       -10.6905
  58   2.0000      -0.376243       -10.2381
  59   2.0000      -0.349995        -9.5238
  60   2.0000      -0.347717        -9.4618
  61   2.0000      -0.324296        -8.8246
  62   2.0000      -0.313019        -8.5177
  63   2.0000      -0.301539        -8.2053
  64   2.0000      -0.295969        -8.0537
  65   2.0000      -0.270750        -7.3675
  66   2.0000      -0.254723        -6.9314
  67   2.0000      -0.246783        -6.7153
  68   2.0000      -0.234498        -6.3810
  69   2.0000      -0.228725        -6.2239
  70   2.0000      -0.219727        -5.9791
  71   2.0000      -0.216809        -5.8997
  72   2.0000      -0.194886        -5.3031
  73   2.0000      -0.177491        -4.8298
  74   2.0000      -0.169355        -4.6084
  75   2.0000      -0.163620        -4.4523
  76   2.0000      -0.156205        -4.2506
  77   2.0000      -0.146195        -3.9782
  78   2.0000      -0.140715        -3.8291
  79   2.0000      -0.137285        -3.7357
  80   2.0000      -0.135312        -3.6820
  81   2.0000      -0.124779        -3.3954
  82   0.0000       0.044112         1.2004
  83   0.0000       0.056959         1.5499
  84   0.0000       0.075954         2.0668
  85   0.0000       0.098502         2.6804
  86   0.0000       0.130034         3.5384

MULLIKEN ATOMIC CHARGES
-----------------------
   0 Pd:    0.106443
   1 Cl:   -0.299875
   2 Cl:   -0.488239
   3 Cl:   -0.397802
   4 N :   -0.531876
   5 C :    0.047948
   6 C :   -0.314707
   7 C :   -0.155815
   8 C :    0.324339
   9 C :    0.041554
  10 H :    0.211314
  11 H :    0.277312
  12 H :    0.220742
  13 C :    0.086629
  14 C :   -0.295295
  15 C :   -0.269575
  16 C :    0.097664
  17 H :    0.199091
  18 H :    0.198863
  19 C :   -0.286015
  20 C :   -0.292967
  21 C :   -0.216261
  22 C :   -0.213289
  23 H :    0.196352
  24 H :    0.196527
  25 H :    0.314042
  26 H :    0.242898
Sum of atomic charges:   -1.0000000

LOEWDIN ATOMIC CHARGES
----------------------
   0 Pd:   -0.906383
   1 Cl:   -0.023777
   2 Cl:   -0.315602
   3 Cl:   -0.143974
   4 N :    0.027008
   5 C :    0.013662
   6 C :   -0.163193
   7 C :   -0.088894
   8 C :    0.090354
   9 C :   -0.049080
  10 H :    0.135708
  11 H :    0.163801
  12 H :    0.140955
  13 C :   -0.018543
  14 C :   -0.139050
  15 C :   -0.119952
  16 C :   -0.023687
  17 H :    0.131783
  18 H :    0.133386
  19 C :   -0.080598
  20 C :   -0.142861
  21 C :   -0.122663
  22 C :   -0.132692
  23 H :    0.129017
  24 H :    0.127279
  25 H :    0.231984
  26 H :    0.146012

  Mayer bond orders larger than 0.100000
B(  0-Pd,  1-Cl) :   0.9800 B(  0-Pd,  2-Cl) :   0.6338 B(  0-Pd,  3-Cl) :   0.8198
B(  0-Pd,  4-N ) :   0.3224 B(  2-Cl, 25-H ) :   0.1253 B(  4-N ,  5-C ) :   1.4794
B(  4-N ,  8-C ) :   1.2430 B(  5-C ,  6-C ) :   1.3193 B(  5-C , 11-H ) :   0.8959
B(  6-C ,  7-C ) :   1.4603 B(  6-C , 12-H ) :   0.9186 B(  7-C ,  9-C ) :   1.2820
B(  7-C , 10-H ) :   0.9282 B(  8-C ,  9-C ) :   1.2174 B(  8-C , 13-C ) :   1.0863
B(  9-C , 14-C ) :   1.1651 B( 13-C , 16-C ) :   1.3039 B( 13-C , 19-C ) :   1.2271
B( 14-C , 15-C ) :   1.6396 B( 14-C , 17-H ) :   0.9283 B( 15-C , 16-C ) :   1.1477
B( 15-C , 18-H ) :   0.9284 B( 16-C , 20-C ) :   1.2742 B( 19-C , 21-C ) :   1.4733
B( 19-C , 25-H ) :   0.7763 B( 20-C , 22-C ) :   1.4904 B( 20-C , 23-H ) :   0.9298
B( 21-C , 22-C ) :   1.3493 B( 21-C , 26-H ) :   0.9095 B( 22-C , 24-H ) :   0.9257

Dispersion correction           -0.024397924
FINAL SINGLE POINT ENERGY     -2061.499220370134
Dispersion correction            ... done

DIPOLE MOMENT
-------------
                                X             Y             Z
Electronic contribution:    -86.38683     -70.50629      35.72746
Nuclear contribution   :     89.84082      74.34204     -35.84369
                        -----------------------------------------
Total Dipole Moment    :      3.45399       3.83575      -0.11623
                        -----------------------------------------
Magnitude (a.u.)       :      5.16299
Magnitude (Debye)      :     13.12329

Rotational constants in cm-1:     0.012242     0.007418     0.005815
Rotational constants in MHz :   367.009714   222.380401   174.336941

                             ****ORCA TERMINATED NORMALLY****
TOTAL RUN TIME: 0 days 0 hours 13 minutes 21 seconds 227 msec
