                         Program Version 5.0.3 -  RELEASE  -
|  1> ! EnGrad PBEh-3c
|  2> %output
|  3> xyzfile=True
|  4> end
|  5> %scf
|  6> maxiter 250
|  7> end
|  8> %output
|  9> Print[P_Hirshfeld] = 1
| 10> end
| 11> % maxcore
| 12> 4000
| 13> *xyz -1 1
| 14> Pd  -2.23151132  -1.83717633   0.82137928
| 15> Cl  -3.72391337  -3.22899523  -0.07727603
| 16> Cl  -0.99374897  -4.01961415   1.52259235
| 17> Cl  -3.75230966  -0.07142561   0.42413939
| 18> N   -0.93821535  -0.20894221   1.45645212
| 19> C   -1.24565078   0.35860894   2.60584148
| 20> C   -0.73820225   1.59145756   3.02625308
| 21> C    0.08051582   2.28181641   2.17537115
| 22> C   -0.06976064   0.40126847   0.62569391
| 23> C    0.42776140   1.70699074   0.94309597
| 24> H    0.46912628   3.25944041   2.44871007
| 25> H   -1.92217200  -0.19561965   3.23705704
| 26> H   -1.03016471   1.98996811   3.98727006
| 27> C    0.37755703  -0.31932253  -0.56150707
| 28> C    1.27912860   2.40627209   0.03672131
| 29> C    1.59842319   1.82327636  -1.13843594
| 30> C    1.15125085   0.48493455  -1.45776142
| 31> H    1.64721809   3.39759322   0.30326857
| 32> H    2.24559299   2.37054097  -1.83476356
| 33> C    0.14354488  -1.68320762  -0.85796168
| 34> C    1.62488875  -0.05594474  -2.67431181
| 35> C    0.47993585  -2.11642611  -2.12707867
| 36> C    1.23691485  -1.32843829  -3.00318467
| 37> H    2.27455552   0.52425022  -3.34004741
| 38> H    1.62767162  -1.77920086  -3.90761096
| 39> H   -0.20981574  -2.64397804  -0.20075122
| 40> H    0.19538542  -3.10743976  -2.43020238
| 41> *
| 42>
| 43>                          ****END OF INPUT****

CARTESIAN COORDINATES (ANGSTROEM)
---------------------------------
  Pd    -2.231511   -1.837176    0.821379
  Cl    -3.723913   -3.228995   -0.077276
  Cl    -0.993749   -4.019614    1.522592
  Cl    -3.752310   -0.071426    0.424139
  N     -0.938215   -0.208942    1.456452
  C     -1.245651    0.358609    2.605841
  C     -0.738202    1.591458    3.026253
  C      0.080516    2.281816    2.175371
  C     -0.069761    0.401268    0.625694
  C      0.427761    1.706991    0.943096
  H      0.469126    3.259440    2.448710
  H     -1.922172   -0.195620    3.237057
  H     -1.030165    1.989968    3.987270
  C      0.377557   -0.319323   -0.561507
  C      1.279129    2.406272    0.036721
  C      1.598423    1.823276   -1.138436
  C      1.151251    0.484935   -1.457761
  H      1.647218    3.397593    0.303269
  H      2.245593    2.370541   -1.834764
  C      0.143545   -1.683208   -0.857962
  C      1.624889   -0.055945   -2.674312
  C      0.479936   -2.116426   -2.127079
  C      1.236915   -1.328438   -3.003185
  H      2.274556    0.524250   -3.340047
  H      1.627672   -1.779201   -3.907611
  H     -0.209816   -2.643978   -0.200751
  H      0.195385   -3.107440   -2.430202

 Total Charge           Charge          ....   -1
 Multiplicity           Mult            ....    1
 Number of Electrons    NEL             ....  164
 Basis Dimension        Dim             ....  313

ORBITAL ENERGIES
----------------

  NO   OCC          E(Eh)            E(eV)
   0   2.0000    -102.084165     -2777.8514
   1   2.0000    -102.080797     -2777.7597
   2   2.0000    -102.064489     -2777.3159
   3   2.0000     -14.592810      -397.0906
   4   2.0000     -10.422002      -283.5971
   5   2.0000     -10.408056      -283.2176
   6   2.0000     -10.395408      -282.8734
   7   2.0000     -10.393217      -282.8138
   8   2.0000     -10.386263      -282.6246
   9   2.0000     -10.385775      -282.6113
  10   2.0000     -10.383224      -282.5419
  11   2.0000     -10.380936      -282.4796
  12   2.0000     -10.380304      -282.4624
  13   2.0000     -10.368854      -282.1509
  14   2.0000     -10.365026      -282.0467
  15   2.0000     -10.364491      -282.0321
  16   2.0000     -10.355430      -281.7856
  17   2.0000      -9.547568      -259.8025
  18   2.0000      -9.545839      -259.7555
  19   2.0000      -9.526934      -259.2411
  20   2.0000      -7.233654      -196.8377
  21   2.0000      -7.232453      -196.8051
  22   2.0000      -7.228588      -196.6999
  23   2.0000      -7.228276      -196.6914
  24   2.0000      -7.226431      -196.6412
  25   2.0000      -7.225884      -196.6263
  26   2.0000      -7.212194      -196.2538
  27   2.0000      -7.208662      -196.1577
  28   2.0000      -7.208153      -196.1438
  29   2.0000      -3.509432       -95.4965
  30   2.0000      -2.159114       -58.7525
  31   2.0000      -2.149966       -58.5036
  32   2.0000      -2.121101       -57.7181
  33   2.0000      -0.989453       -26.9244
  34   2.0000      -0.890899       -24.2426
  35   2.0000      -0.854066       -23.2403
  36   2.0000      -0.819891       -22.3104
  37   2.0000      -0.785226       -21.3671
  38   2.0000      -0.750616       -20.4253
  39   2.0000      -0.735867       -20.0240
  40   2.0000      -0.678973       -18.4758
  41   2.0000      -0.666425       -18.1343
  42   2.0000      -0.650851       -17.7106
  43   2.0000      -0.647095       -17.6083
  44   2.0000      -0.646423       -17.5901
  45   2.0000      -0.616354       -16.7718
  46   2.0000      -0.587046       -15.9743
  47   2.0000      -0.536595       -14.6015
  48   2.0000      -0.524838       -14.2816
  49   2.0000      -0.501738       -13.6530
  50   2.0000      -0.470053       -12.7908
  51   2.0000      -0.468469       -12.7477
  52   2.0000      -0.437622       -11.9083
  53   2.0000      -0.419372       -11.4117
  54   2.0000      -0.410679       -11.1751
  55   2.0000      -0.405468       -11.0334
  56   2.0000      -0.397340       -10.8122
  57   2.0000      -0.393185       -10.6991
  58   2.0000      -0.376327       -10.2404
  59   2.0000      -0.350116        -9.5271
  60   2.0000      -0.347571        -9.4579
  61   2.0000      -0.323104        -8.7921
  62   2.0000      -0.313104        -8.5200
  63   2.0000      -0.302569        -8.2333
  64   2.0000      -0.295819        -8.0496
  65   2.0000      -0.270854        -7.3703
  66   2.0000      -0.254359        -6.9215
  67   2.0000      -0.246285        -6.7018
  68   2.0000      -0.234885        -6.3915
  69   2.0000      -0.228529        -6.2186
  70   2.0000      -0.219633        -5.9765
  71   2.0000      -0.216335        -5.8868
  72   2.0000      -0.194510        -5.2929
  73   2.0000      -0.178035        -4.8446
  74   2.0000      -0.169657        -4.6166
  75   2.0000      -0.163432        -4.4472
  76   2.0000      -0.155882        -4.2418
  77   2.0000      -0.145752        -3.9661
  78   2.0000      -0.141268        -3.8441
  79   2.0000      -0.136959        -3.7268
  80   2.0000      -0.135006        -3.6737
  81   2.0000      -0.124932        -3.3996
  82   0.0000       0.044090         1.1998
  83   0.0000       0.056909         1.5486
  84   0.0000       0.076767         2.0889
  85   0.0000       0.099042         2.6951
  86   0.0000       0.129713         3.5297

MULLIKEN ATOMIC CHARGES
-----------------------
   0 Pd:    0.104142
   1 Cl:   -0.299542
   2 Cl:   -0.486999
   3 Cl:   -0.399479
   4 N :   -0.532248
   5 C :    0.048364
   6 C :   -0.314090
   7 C :   -0.155858
   8 C :    0.328957
   9 C :    0.039299
  10 H :    0.211511
  11 H :    0.277322
  12 H :    0.220817
  13 C :    0.080379
  14 C :   -0.292855
  15 C :   -0.271144
  16 C :    0.101557
  17 H :    0.199225
  18 H :    0.198453
  19 C :   -0.283827
  20 C :   -0.295230
  21 C :   -0.214452
  22 C :   -0.213031
  23 H :    0.196109
  24 H :    0.197720
  25 H :    0.313966
  26 H :    0.240933
Sum of atomic charges:   -1.0000000

LOEWDIN ATOMIC CHARGES
----------------------
   0 Pd:   -0.909502
   1 Cl:   -0.022504
   2 Cl:   -0.312582
   3 Cl:   -0.147150
   4 N :    0.027567
   5 C :    0.013772
   6 C :   -0.162812
   7 C :   -0.088830
   8 C :    0.090141
   9 C :   -0.048573
  10 H :    0.135754
  11 H :    0.163961
  12 H :    0.140979
  13 C :   -0.017323
  14 C :   -0.138878
  15 C :   -0.119593
  16 C :   -0.024046
  17 H :    0.131832
  18 H :    0.133286
  19 C :   -0.080606
  20 C :   -0.142616
  21 C :   -0.123853
  22 C :   -0.132271
  23 H :    0.128970
  24 H :    0.127657
  25 H :    0.231936
  26 H :    0.145285

  Mayer bond orders larger than 0.100000
B(  0-Pd,  1-Cl) :   0.9815 B(  0-Pd,  2-Cl) :   0.6393 B(  0-Pd,  3-Cl) :   0.8189
B(  0-Pd,  4-N ) :   0.3222 B(  2-Cl, 25-H ) :   0.1215 B(  4-N ,  5-C ) :   1.4784
B(  4-N ,  8-C ) :   1.2433 B(  5-C ,  6-C ) :   1.3205 B(  5-C , 11-H ) :   0.8962
B(  6-C ,  7-C ) :   1.4593 B(  6-C , 12-H ) :   0.9186 B(  7-C ,  9-C ) :   1.2834
B(  7-C , 10-H ) :   0.9281 B(  8-C ,  9-C ) :   1.2173 B(  8-C , 13-C ) :   1.0868
B(  9-C , 14-C ) :   1.1646 B( 13-C , 16-C ) :   1.3074 B( 13-C , 19-C ) :   1.2304
B( 14-C , 15-C ) :   1.6424 B( 14-C , 17-H ) :   0.9281 B( 15-C , 16-C ) :   1.1456
B( 15-C , 18-H ) :   0.9285 B( 16-C , 20-C ) :   1.2736 B( 19-C , 21-C ) :   1.4757
B( 19-C , 25-H ) :   0.7799 B( 20-C , 22-C ) :   1.4905 B( 20-C , 23-H ) :   0.9301
B( 21-C , 22-C ) :   1.3480 B( 21-C , 26-H ) :   0.9103 B( 22-C , 24-H ) :   0.9253

Dispersion correction           -0.024390824
FINAL SINGLE POINT ENERGY     -2061.500317577330
Dispersion correction            ... done

DIPOLE MOMENT
-------------
                                X             Y             Z
Electronic contribution:    -86.84169     -70.35542      35.88880
Nuclear contribution   :     90.33080      74.16163     -36.00758
                        -----------------------------------------
Total Dipole Moment    :      3.48911       3.80621      -0.11878
                        -----------------------------------------
Magnitude (a.u.)       :      5.16481
Magnitude (Debye)      :     13.12790

Rotational constants in cm-1:     0.012259     0.007395     0.005826
Rotational constants in MHz :   367.503280   221.706895   174.669310

                             ****ORCA TERMINATED NORMALLY****
TOTAL RUN TIME: 0 days 0 hours 13 minutes 32 seconds 614 msec
