                         Program Version 5.0.3 -  RELEASE  -
|  1> ! EnGrad PBEh-3c
|  2> %output
|  3> xyzfile=True
|  4> end
|  5> %scf
|  6> maxiter 250
|  7> end
|  8> %output
|  9> Print[P_Hirshfeld] = 1
| 10> end
| 11> % maxcore
| 12> 4000
| 13> *xyz -1 1
| 14> Pd  -2.22398910  -1.84148686   0.81919701
| 15> Cl  -3.70982824  -3.23869061  -0.08717461
| 16> Cl  -0.97447794  -4.02882866   1.49933454
| 17> Cl  -3.76417401  -0.08917485   0.45400104
| 18> N   -0.93944241  -0.20594365   1.45784138
| 19> C   -1.25023266   0.36513540   2.60451637
| 20> C   -0.74124828   1.59899598   3.02374848
| 21> C    0.08001945   2.28588251   2.17389763
| 22> C   -0.06948463   0.40235960   0.62754575
| 23> C    0.42883873   1.70894770   0.94270498
| 24> H    0.47088007   3.26389879   2.44666348
| 25> H   -1.92754154  -0.18702848   3.23639618
| 26> H   -1.03452974   1.99915743   3.98420348
| 27> C    0.37967836  -0.32115197  -0.55914624
| 28> C    1.28286546   2.40567106   0.03884156
| 29> C    1.60310411   1.82055235  -1.13652881
| 30> C    1.15302659   0.48417006  -1.45324948
| 31> H    1.65456923   3.39666777   0.30481278
| 32> H    2.25287048   2.36456351  -1.83084788
| 33> C    0.13891430  -1.68077244  -0.85592525
| 34> C    1.62542650  -0.05783352  -2.67328174
| 35> C    0.47296598  -2.11710996  -2.13057929
| 36> C    1.23167412  -1.32656386  -3.00242145
| 37> H    2.27872660   0.52066197  -3.33386679
| 38> H    1.62154094  -1.77936159  -3.90714885
| 39> H   -0.21582273  -2.63967660  -0.20418073
| 40> H    0.17955014  -3.10263936  -2.43594771
| 41> *
| 42>
| 43>                          ****END OF INPUT****

CARTESIAN COORDINATES (ANGSTROEM)
---------------------------------
  Pd    -2.223989   -1.841487    0.819197
  Cl    -3.709828   -3.238691   -0.087175
  Cl    -0.974478   -4.028829    1.499335
  Cl    -3.764174   -0.089175    0.454001
  N     -0.939442   -0.205944    1.457841
  C     -1.250233    0.365135    2.604516
  C     -0.741248    1.598996    3.023748
  C      0.080019    2.285883    2.173898
  C     -0.069485    0.402360    0.627546
  C      0.428839    1.708948    0.942705
  H      0.470880    3.263899    2.446663
  H     -1.927542   -0.187028    3.236396
  H     -1.034530    1.999157    3.984203
  C      0.379678   -0.321152   -0.559146
  C      1.282865    2.405671    0.038842
  C      1.603104    1.820552   -1.136529
  C      1.153027    0.484170   -1.453249
  H      1.654569    3.396668    0.304813
  H      2.252870    2.364564   -1.830848
  C      0.138914   -1.680772   -0.855925
  C      1.625427   -0.057834   -2.673282
  C      0.472966   -2.117110   -2.130579
  C      1.231674   -1.326564   -3.002421
  H      2.278727    0.520662   -3.333867
  H      1.621541   -1.779362   -3.907149
  H     -0.215823   -2.639677   -0.204181
  H      0.179550   -3.102639   -2.435948

 Total Charge           Charge          ....   -1
 Multiplicity           Mult            ....    1
 Number of Electrons    NEL             ....  164
 Basis Dimension        Dim             ....  313

ORBITAL ENERGIES
----------------

  NO   OCC          E(Eh)            E(eV)
   0   2.0000    -102.084725     -2777.8666
   1   2.0000    -102.080969     -2777.7644
   2   2.0000    -102.064190     -2777.3078
   3   2.0000     -14.592929      -397.0938
   4   2.0000     -10.422120      -283.6003
   5   2.0000     -10.408239      -283.2226
   6   2.0000     -10.395445      -282.8744
   7   2.0000     -10.393204      -282.8134
   8   2.0000     -10.386046      -282.6187
   9   2.0000     -10.385597      -282.6065
  10   2.0000     -10.383114      -282.5389
  11   2.0000     -10.381004      -282.4815
  12   2.0000     -10.380384      -282.4646
  13   2.0000     -10.368579      -282.1434
  14   2.0000     -10.364644      -282.0363
  15   2.0000     -10.364082      -282.0210
  16   2.0000     -10.355638      -281.7912
  17   2.0000      -9.548139      -259.8181
  18   2.0000      -9.545976      -259.7592
  19   2.0000      -9.526646      -259.2332
  20   2.0000      -7.234230      -196.8534
  21   2.0000      -7.232596      -196.8090
  22   2.0000      -7.229157      -196.7154
  23   2.0000      -7.228841      -196.7068
  24   2.0000      -7.226570      -196.6450
  25   2.0000      -7.226021      -196.6300
  26   2.0000      -7.211896      -196.2457
  27   2.0000      -7.208382      -196.1501
  28   2.0000      -7.207862      -196.1359
  29   2.0000      -3.509659       -95.5027
  30   2.0000      -2.159299       -58.7575
  31   2.0000      -2.150252       -58.5113
  32   2.0000      -2.121337       -57.7245
  33   2.0000      -0.989495       -26.9255
  34   2.0000      -0.890770       -24.2391
  35   2.0000      -0.854011       -23.2388
  36   2.0000      -0.819747       -22.3064
  37   2.0000      -0.785057       -21.3625
  38   2.0000      -0.750693       -20.4274
  39   2.0000      -0.735362       -20.0102
  40   2.0000      -0.679224       -18.4826
  41   2.0000      -0.666814       -18.1449
  42   2.0000      -0.650566       -17.7028
  43   2.0000      -0.647237       -17.6122
  44   2.0000      -0.646186       -17.5836
  45   2.0000      -0.616514       -16.7762
  46   2.0000      -0.586888       -15.9700
  47   2.0000      -0.536609       -14.6019
  48   2.0000      -0.524774       -14.2798
  49   2.0000      -0.501708       -13.6522
  50   2.0000      -0.470309       -12.7978
  51   2.0000      -0.468345       -12.7443
  52   2.0000      -0.437664       -11.9094
  53   2.0000      -0.419158       -11.4059
  54   2.0000      -0.410576       -11.1723
  55   2.0000      -0.405656       -11.0385
  56   2.0000      -0.397593       -10.8191
  57   2.0000      -0.392973       -10.6933
  58   2.0000      -0.376275       -10.2390
  59   2.0000      -0.350029        -9.5248
  60   2.0000      -0.347672        -9.4606
  61   2.0000      -0.323874        -8.8131
  62   2.0000      -0.313056        -8.5187
  63   2.0000      -0.301880        -8.2146
  64   2.0000      -0.295941        -8.0530
  65   2.0000      -0.270786        -7.3685
  66   2.0000      -0.254601        -6.9281
  67   2.0000      -0.246628        -6.7111
  68   2.0000      -0.234627        -6.3845
  69   2.0000      -0.228654        -6.2220
  70   2.0000      -0.219691        -5.9781
  71   2.0000      -0.216656        -5.8955
  72   2.0000      -0.194757        -5.2996
  73   2.0000      -0.177669        -4.8346
  74   2.0000      -0.169460        -4.6112
  75   2.0000      -0.163558        -4.4506
  76   2.0000      -0.156096        -4.2476
  77   2.0000      -0.146040        -3.9740
  78   2.0000      -0.140902        -3.8341
  79   2.0000      -0.137168        -3.7325
  80   2.0000      -0.135204        -3.6791
  81   2.0000      -0.124829        -3.3968
  82   0.0000       0.044116         1.2005
  83   0.0000       0.056937         1.5493
  84   0.0000       0.076252         2.0749
  85   0.0000       0.098687         2.6854
  86   0.0000       0.129928         3.5355

MULLIKEN ATOMIC CHARGES
-----------------------
   0 Pd:    0.105614
   1 Cl:   -0.299769
   2 Cl:   -0.487809
   3 Cl:   -0.398318
   4 N :   -0.532000
   5 C :    0.048096
   6 C :   -0.314491
   7 C :   -0.155834
   8 C :    0.325911
   9 C :    0.040781
  10 H :    0.211381
  11 H :    0.277311
  12 H :    0.220765
  13 C :    0.084500
  14 C :   -0.294470
  15 C :   -0.270114
  16 C :    0.099004
  17 H :    0.199135
  18 H :    0.198724
  19 C :   -0.285271
  20 C :   -0.293749
  21 C :   -0.215669
  22 C :   -0.213196
  23 H :    0.196270
  24 H :    0.196931
  25 H :    0.314033
  26 H :    0.242236
Sum of atomic charges:   -1.0000000

LOEWDIN ATOMIC CHARGES
----------------------
   0 Pd:   -0.907545
   1 Cl:   -0.023349
   2 Cl:   -0.314559
   3 Cl:   -0.144955
   4 N :    0.027203
   5 C :    0.013702
   6 C :   -0.163062
   7 C :   -0.088874
   8 C :    0.090283
   9 C :   -0.048908
  10 H :    0.135724
  11 H :    0.163853
  12 H :    0.140962
  13 C :   -0.018133
  14 C :   -0.138993
  15 C :   -0.119830
  16 C :   -0.023809
  17 H :    0.131799
  18 H :    0.133352
  19 C :   -0.080603
  20 C :   -0.142781
  21 C :   -0.123072
  22 C :   -0.132549
  23 H :    0.129001
  24 H :    0.127407
  25 H :    0.231972
  26 H :    0.145764

  Mayer bond orders larger than 0.100000
B(  0-Pd,  1-Cl) :   0.9805 B(  0-Pd,  2-Cl) :   0.6357 B(  0-Pd,  3-Cl) :   0.8196
B(  0-Pd,  4-N ) :   0.3223 B(  2-Cl, 25-H ) :   0.1240 B(  4-N ,  5-C ) :   1.4791
B(  4-N ,  8-C ) :   1.2431 B(  5-C ,  6-C ) :   1.3197 B(  5-C , 11-H ) :   0.8960
B(  6-C ,  7-C ) :   1.4599 B(  6-C , 12-H ) :   0.9186 B(  7-C ,  9-C ) :   1.2824
B(  7-C , 10-H ) :   0.9282 B(  8-C ,  9-C ) :   1.2173 B(  8-C , 13-C ) :   1.0865
B(  9-C , 14-C ) :   1.1649 B( 13-C , 16-C ) :   1.3051 B( 13-C , 19-C ) :   1.2283
B( 14-C , 15-C ) :   1.6406 B( 14-C , 17-H ) :   0.9282 B( 15-C , 16-C ) :   1.1470
B( 15-C , 18-H ) :   0.9284 B( 16-C , 20-C ) :   1.2740 B( 19-C , 21-C ) :   1.4741
B( 19-C , 25-H ) :   0.7775 B( 20-C , 22-C ) :   1.4905 B( 20-C , 23-H ) :   0.9299
B( 21-C , 22-C ) :   1.3489 B( 21-C , 26-H ) :   0.9098 B( 22-C , 24-H ) :   0.9256

Dispersion correction           -0.024395649
FINAL SINGLE POINT ENERGY     -2061.499647218944
Dispersion correction            ... done

DIPOLE MOMENT
-------------
                                X             Y             Z
Electronic contribution:    -86.54160     -70.45491      35.78231
Nuclear contribution   :     90.00741      74.28070     -35.89941
                        -----------------------------------------
Total Dipole Moment    :      3.46582       3.82578      -0.11710
                        -----------------------------------------
Magnitude (a.u.)       :      5.16355
Magnitude (Debye)      :     13.12469

Rotational constants in cm-1:     0.012248     0.007410     0.005819
Rotational constants in MHz :   367.184337   222.153989   174.452585

                             ****ORCA TERMINATED NORMALLY****
TOTAL RUN TIME: 0 days 0 hours 13 minutes 13 seconds 710 msec
