                         Program Version 5.0.3 -  RELEASE  -
|  1> ! EnGrad PBEh-3c
|  2> %output
|  3> xyzfile=True
|  4> end
|  5> %scf
|  6> maxiter 250
|  7> end
|  8> %output
|  9> Print[P_Hirshfeld] = 1
| 10> end
| 11> % maxcore
| 12> 4000
| 13> *xyz -1 1
| 14> Pd  -2.32411102  -1.75569517   0.82544939
| 15> Cl  -3.86076801  -3.13022975   0.01798993
| 16> Cl  -1.15308773  -3.93299771   1.73211869
| 17> Cl  -3.63334392   0.08834565   0.14382367
| 18> N   -0.92494530  -0.23726574   1.44531520
| 19> C   -1.20145329   0.28742243   2.61998714
| 20> C   -0.70914340   1.51677088   3.04219206
| 21> C    0.07628746   2.23034296   2.19316178
| 22> C   -0.06161758   0.39007719   0.61338473
| 23> C    0.42408753   1.69115409   0.94461101
| 24> H    0.45135919   3.21248817   2.46474547
| 25> H   -1.87073797  -0.27743874   3.24049105
| 26> H   -0.98659542   1.89892393   4.01825092
| 27> C    0.35736670  -0.24671832  -0.59224627
| 28> C    1.23414564   2.40406019   0.02160137
| 29> C    1.56155090   1.85944509  -1.16285484
| 30> C    1.16704723   0.52506656  -1.51268066
| 31> H    1.57058065   3.39649169   0.28450202
| 32> H    2.16159591   2.41515139  -1.86717082
| 33> C    0.10992968  -1.84998098  -0.77937670
| 34> C    1.62323012  -0.05010449  -2.70780889
| 35> C    0.55811251  -2.09922094  -2.13101128
| 36> C    1.30784781  -1.34268265  -3.00440072
| 37> H    2.21348516   0.54330583  -3.37998235
| 38> H    1.68473141  -1.78239851  -3.92523290
| 39> H   -0.12995201  -2.61719289  -0.18934286
| 40> H    0.35706080  -3.13524101  -2.35646909
| 41> *
| 42>
| 43>                          ****END OF INPUT****

CARTESIAN COORDINATES (ANGSTROEM)
---------------------------------
  Pd    -2.324111   -1.755695    0.825449
  Cl    -3.860768   -3.130230    0.017990
  Cl    -1.153088   -3.932998    1.732119
  Cl    -3.633344    0.088346    0.143824
  N     -0.924945   -0.237266    1.445315
  C     -1.201453    0.287422    2.619987
  C     -0.709143    1.516771    3.042192
  C      0.076287    2.230343    2.193162
  C     -0.061618    0.390077    0.613385
  C      0.424088    1.691154    0.944611
  H      0.451359    3.212488    2.464745
  H     -1.870738   -0.277439    3.240491
  H     -0.986595    1.898924    4.018251
  C      0.357367   -0.246718   -0.592246
  C      1.234146    2.404060    0.021601
  C      1.561551    1.859445   -1.162855
  C      1.167047    0.525067   -1.512681
  H      1.570581    3.396492    0.284502
  H      2.161596    2.415151   -1.867171
  C      0.109930   -1.849981   -0.779377
  C      1.623230   -0.050104   -2.707809
  C      0.558113   -2.099221   -2.131011
  C      1.307848   -1.342683   -3.004401
  H      2.213485    0.543306   -3.379982
  H      1.684731   -1.782399   -3.925233
  H     -0.129952   -2.617193   -0.189343
  H      0.357061   -3.135241   -2.356469

 Total Charge           Charge          ....   -1
 Multiplicity           Mult            ....    1
 Number of Electrons    NEL             ....  164
 Basis Dimension        Dim             ....  313

ORBITAL ENERGIES
----------------

  NO   OCC          E(Eh)            E(eV)
   0   2.0000    -102.084002     -2777.8469
   1   2.0000    -102.081003     -2777.7653
   2   2.0000    -102.060596     -2777.2100
   3   2.0000     -14.592960      -397.0946
   4   2.0000     -10.417625      -283.4780
   5   2.0000     -10.408414      -283.2273
   6   2.0000     -10.401161      -283.0300
   7   2.0000     -10.394906      -282.8598
   8   2.0000     -10.391451      -282.7658
   9   2.0000     -10.389654      -282.7169
  10   2.0000     -10.383508      -282.5496
  11   2.0000     -10.381972      -282.5078
  12   2.0000     -10.380043      -282.4553
  13   2.0000     -10.379733      -282.4469
  14   2.0000     -10.369695      -282.1737
  15   2.0000     -10.368718      -282.1471
  16   2.0000     -10.360543      -281.9247
  17   2.0000      -9.547414      -259.7983
  18   2.0000      -9.546306      -259.7682
  19   2.0000      -9.522887      -259.1309
  20   2.0000      -7.233543      -196.8347
  21   2.0000      -7.232865      -196.8163
  22   2.0000      -7.228374      -196.6940
  23   2.0000      -7.228133      -196.6875
  24   2.0000      -7.226905      -196.6541
  25   2.0000      -7.226352      -196.6390
  26   2.0000      -7.208213      -196.1455
  27   2.0000      -7.204516      -196.0449
  28   2.0000      -7.204211      -196.0365
  29   2.0000      -3.510946       -95.5377
  30   2.0000      -2.160837       -58.7994
  31   2.0000      -2.150767       -58.5253
  32   2.0000      -2.122882       -57.7666
  33   2.0000      -0.990229       -26.9455
  34   2.0000      -0.888808       -24.1857
  35   2.0000      -0.851617       -23.1737
  36   2.0000      -0.822931       -22.3931
  37   2.0000      -0.784740       -21.3539
  38   2.0000      -0.749442       -20.3934
  39   2.0000      -0.734200       -19.9786
  40   2.0000      -0.679204       -18.4821
  41   2.0000      -0.667059       -18.1516
  42   2.0000      -0.657721       -17.8975
  43   2.0000      -0.647417       -17.6171
  44   2.0000      -0.641751       -17.4629
  45   2.0000      -0.610743       -16.6191
  46   2.0000      -0.599692       -16.3185
  47   2.0000      -0.540910       -14.7189
  48   2.0000      -0.522239       -14.2109
  49   2.0000      -0.507597       -13.8124
  50   2.0000      -0.479816       -13.0565
  51   2.0000      -0.469225       -12.7683
  52   2.0000      -0.435497       -11.8505
  53   2.0000      -0.431281       -11.7358
  54   2.0000      -0.418521       -11.3885
  55   2.0000      -0.411640       -11.2013
  56   2.0000      -0.402099       -10.9417
  57   2.0000      -0.388230       -10.5643
  58   2.0000      -0.373544       -10.1646
  59   2.0000      -0.359281        -9.7765
  60   2.0000      -0.348337        -9.4787
  61   2.0000      -0.331266        -9.0142
  62   2.0000      -0.314128        -8.5478
  63   2.0000      -0.303282        -8.2527
  64   2.0000      -0.282921        -7.6987
  65   2.0000      -0.272196        -7.4068
  66   2.0000      -0.253266        -6.8917
  67   2.0000      -0.245603        -6.6832
  68   2.0000      -0.235314        -6.4032
  69   2.0000      -0.228322        -6.2129
  70   2.0000      -0.220581        -6.0023
  71   2.0000      -0.217527        -5.9192
  72   2.0000      -0.192137        -5.2283
  73   2.0000      -0.179153        -4.8750
  74   2.0000      -0.169309        -4.6071
  75   2.0000      -0.160959        -4.3799
  76   2.0000      -0.155199        -4.2232
  77   2.0000      -0.145244        -3.9523
  78   2.0000      -0.142350        -3.8735
  79   2.0000      -0.136440        -3.7127
  80   2.0000      -0.133765        -3.6399
  81   2.0000      -0.125454        -3.4138
  82   0.0000       0.038025         1.0347
  83   0.0000       0.052063         1.4167
  84   0.0000       0.077410         2.1064
  85   0.0000       0.099799         2.7157
  86   0.0000       0.121099         3.2953

MULLIKEN ATOMIC CHARGES
-----------------------
   0 Pd:    0.093660
   1 Cl:   -0.294421
   2 Cl:   -0.502459
   3 Cl:   -0.401250
   4 N :   -0.537350
   5 C :    0.052319
   6 C :   -0.314363
   7 C :   -0.150238
   8 C :    0.388662
   9 C :    0.036266
  10 H :    0.210095
  11 H :    0.281445
  12 H :    0.220503
  13 C :   -0.096615
  14 C :   -0.282451
  15 C :   -0.278007
  16 C :    0.155852
  17 H :    0.198386
  18 H :    0.199719
  19 C :   -0.185203
  20 C :   -0.301559
  21 C :   -0.267152
  22 C :   -0.164722
  23 H :    0.197688
  24 H :    0.206585
  25 H :    0.317489
  26 H :    0.217122
Sum of atomic charges:   -1.0000000

LOEWDIN ATOMIC CHARGES
----------------------
   0 Pd:   -0.907524
   1 Cl:   -0.013920
   2 Cl:   -0.333255
   3 Cl:   -0.147338
   4 N :    0.029708
   5 C :    0.017989
   6 C :   -0.162160
   7 C :   -0.084992
   8 C :    0.076683
   9 C :   -0.046971
  10 H :    0.135234
  11 H :    0.165967
  12 H :    0.141563
  13 C :    0.007740
  14 C :   -0.135091
  15 C :   -0.120451
  16 C :   -0.033776
  17 H :    0.132106
  18 H :    0.133487
  19 C :   -0.040298
  20 C :   -0.137769
  21 C :   -0.131959
  22 C :   -0.136379
  23 H :    0.128376
  24 H :    0.134083
  25 H :    0.191375
  26 H :    0.137571

  Mayer bond orders larger than 0.100000
B(  0-Pd,  1-Cl) :   0.9889 B(  0-Pd,  2-Cl) :   0.6545 B(  0-Pd,  3-Cl) :   0.8281
B(  0-Pd,  4-N ) :   0.3284 B(  4-N ,  5-C ) :   1.4927 B(  4-N ,  8-C ) :   1.2075
B(  5-C ,  6-C ) :   1.3033 B(  5-C , 11-H ) :   0.8950 B(  6-C ,  7-C ) :   1.4730
B(  6-C , 12-H ) :   0.9188 B(  7-C ,  9-C ) :   1.2736 B(  7-C , 10-H ) :   0.9284
B(  8-C ,  9-C ) :   1.2217 B(  8-C , 13-C ) :   1.1373 B(  9-C , 14-C ) :   1.1829
B( 13-C , 16-C ) :   1.3134 B( 13-C , 19-C ) :   1.2059 B( 14-C , 15-C ) :   1.6282
B( 14-C , 17-H ) :   0.9287 B( 15-C , 16-C ) :   1.1692 B( 15-C , 18-H ) :   0.9269
B( 16-C , 20-C ) :   1.2506 B( 19-C , 20-C ) :   0.1145 B( 19-C , 21-C ) :   1.5200
B( 19-C , 25-H ) :   0.8171 B( 20-C , 22-C ) :   1.5099 B( 20-C , 23-H ) :   0.9262
B( 21-C , 22-C ) :   1.3089 B( 21-C , 26-H ) :   0.9196 B( 22-C , 24-H ) :   0.9240

Dispersion correction           -0.024333465
FINAL SINGLE POINT ENERGY     -2061.464559996639
Dispersion correction            ... done

DIPOLE MOMENT
-------------
                                X             Y             Z
Electronic contribution:    -90.93177     -67.13783      36.04597
Nuclear contribution   :     94.55805      70.90499     -36.19182
                        -----------------------------------------
Total Dipole Moment    :      3.62628       3.76716      -0.14585
                        -----------------------------------------
Magnitude (a.u.)       :      5.23094
Magnitude (Debye)      :     13.29598

Rotational constants in cm-1:     0.012285     0.007250     0.005884
Rotational constants in MHz :   368.303252   217.357107   176.395754

                             ****ORCA TERMINATED NORMALLY****
TOTAL RUN TIME: 0 days 0 hours 17 minutes 18 seconds 275 msec
