                         Program Version 5.0.3 -  RELEASE  -
|  1> ! EnGrad PBEh-3c
|  2> %output
|  3> xyzfile=True
|  4> end
|  5> %scf
|  6> maxiter 250
|  7> end
|  8> %output
|  9> Print[P_Hirshfeld] = 1
| 10> end
| 11> % maxcore
| 12> 4000
| 13> *xyz -1 1
| 14> Pd  -2.29206739  -1.80383292   0.82998018
| 15> Cl  -3.81474012  -3.15633006  -0.00920045
| 16> Cl  -1.11429057  -3.95607075   1.67250992
| 17> Cl  -3.67247101   0.04856606   0.22298403
| 18> N   -0.93373254  -0.22858199   1.45104031
| 19> C   -1.21262274   0.30842138   2.61226201
| 20> C   -0.72003645   1.53977752   3.04415703
| 21> C    0.08179856   2.25030787   2.18498629
| 22> C   -0.06287294   0.40721041   0.61959297
| 23> C    0.42522966   1.69810875   0.94577188
| 24> H    0.45625656   3.22585225   2.46030193
| 25> H   -1.88548890  -0.25216264   3.23888845
| 26> H   -0.99948963   1.92589137   4.00613009
| 27> C    0.34617055  -0.30563340  -0.57750222
| 28> C    1.24787991   2.40840298   0.03018582
| 29> C    1.57600381   1.84964036  -1.15914585
| 30> C    1.15705287   0.51237423  -1.49539500
| 31> H    1.59423770   3.39748585   0.29039924
| 32> H    2.19008611   2.40574226  -1.85819704
| 33> C    0.16142500  -1.77155184  -0.86057378
| 34> C    1.62787207  -0.05276937  -2.70207873
| 35> C    0.49914390  -2.12709876  -2.07702898
| 36> C    1.29407692  -1.32089583  -3.01383549
| 37> H    2.23439346   0.54040516  -3.37092540
| 38> H    1.66990227  -1.77996236  -3.91863714
| 39> H   -0.16032566  -2.64545567  -0.18692798
| 40> H    0.31047192  -3.11547226  -2.38011051
| 41> *
| 42>
| 43>                          ****END OF INPUT****

CARTESIAN COORDINATES (ANGSTROEM)
---------------------------------
  Pd    -2.292067   -1.803833    0.829980
  Cl    -3.814740   -3.156330   -0.009200
  Cl    -1.114291   -3.956071    1.672510
  Cl    -3.672471    0.048566    0.222984
  N     -0.933733   -0.228582    1.451040
  C     -1.212623    0.308421    2.612262
  C     -0.720036    1.539778    3.044157
  C      0.081799    2.250308    2.184986
  C     -0.062873    0.407210    0.619593
  C      0.425230    1.698109    0.945772
  H      0.456257    3.225852    2.460302
  H     -1.885489   -0.252163    3.238888
  H     -0.999490    1.925891    4.006130
  C      0.346171   -0.305633   -0.577502
  C      1.247880    2.408403    0.030186
  C      1.576004    1.849640   -1.159146
  C      1.157053    0.512374   -1.495395
  H      1.594238    3.397486    0.290399
  H      2.190086    2.405742   -1.858197
  C      0.161425   -1.771552   -0.860574
  C      1.627872   -0.052769   -2.702079
  C      0.499144   -2.127099   -2.077029
  C      1.294077   -1.320896   -3.013835
  H      2.234393    0.540405   -3.370925
  H      1.669902   -1.779962   -3.918637
  H     -0.160326   -2.645456   -0.186928
  H      0.310472   -3.115472   -2.380111

 Total Charge           Charge          ....   -1
 Multiplicity           Mult            ....    1
 Number of Electrons    NEL             ....  164
 Basis Dimension        Dim             ....  313

ORBITAL ENERGIES
----------------

  NO   OCC          E(Eh)            E(eV)
   0   2.0000    -102.081019     -2777.7658
   1   2.0000    -102.080533     -2777.7525
   2   2.0000    -102.064260     -2777.3097
   3   2.0000     -14.591422      -397.0528
   4   2.0000     -10.420147      -283.5466
   5   2.0000     -10.406603      -283.1781
   6   2.0000     -10.396801      -282.9113
   7   2.0000     -10.395571      -282.8779
   8   2.0000     -10.391811      -282.7755
   9   2.0000     -10.390216      -282.7322
  10   2.0000     -10.382900      -282.5331
  11   2.0000     -10.380821      -282.4765
  12   2.0000     -10.379917      -282.4519
  13   2.0000     -10.371100      -282.2120
  14   2.0000     -10.367131      -282.1040
  15   2.0000     -10.363255      -281.9985
  16   2.0000     -10.351550      -281.6800
  17   2.0000      -9.546487      -259.7731
  18   2.0000      -9.543783      -259.6995
  19   2.0000      -9.526633      -259.2329
  20   2.0000      -7.233073      -196.8219
  21   2.0000      -7.229856      -196.7344
  22   2.0000      -7.227045      -196.6579
  23   2.0000      -7.226499      -196.6430
  24   2.0000      -7.224807      -196.5970
  25   2.0000      -7.224548      -196.5899
  26   2.0000      -7.211972      -196.2477
  27   2.0000      -7.208263      -196.1468
  28   2.0000      -7.207899      -196.1369
  29   2.0000      -3.508501       -95.4712
  30   2.0000      -2.158846       -58.7452
  31   2.0000      -2.148319       -58.4587
  32   2.0000      -2.120225       -57.6943
  33   2.0000      -0.988748       -26.9052
  34   2.0000      -0.887050       -24.1379
  35   2.0000      -0.853521       -23.2255
  36   2.0000      -0.819161       -22.2905
  37   2.0000      -0.788168       -21.4472
  38   2.0000      -0.746448       -20.3119
  39   2.0000      -0.742750       -20.2113
  40   2.0000      -0.679073       -18.4785
  41   2.0000      -0.663892       -18.0654
  42   2.0000      -0.654310       -17.8047
  43   2.0000      -0.645986       -17.5782
  44   2.0000      -0.644079       -17.5263
  45   2.0000      -0.615771       -16.7560
  46   2.0000      -0.587177       -15.9779
  47   2.0000      -0.536558       -14.6005
  48   2.0000      -0.525177       -14.2908
  49   2.0000      -0.503750       -13.7077
  50   2.0000      -0.471886       -12.8407
  51   2.0000      -0.470777       -12.8105
  52   2.0000      -0.437467       -11.9041
  53   2.0000      -0.418986       -11.4012
  54   2.0000      -0.410833       -11.1793
  55   2.0000      -0.409210       -11.1352
  56   2.0000      -0.397443       -10.8150
  57   2.0000      -0.394244       -10.7279
  58   2.0000      -0.381898       -10.3920
  59   2.0000      -0.348806        -9.4915
  60   2.0000      -0.347085        -9.4447
  61   2.0000      -0.322778        -8.7832
  62   2.0000      -0.312287        -8.4978
  63   2.0000      -0.308739        -8.4012
  64   2.0000      -0.294420        -8.0116
  65   2.0000      -0.270322        -7.3558
  66   2.0000      -0.252681        -6.8758
  67   2.0000      -0.243467        -6.6251
  68   2.0000      -0.238291        -6.4842
  69   2.0000      -0.229790        -6.2529
  70   2.0000      -0.221358        -6.0235
  71   2.0000      -0.214515        -5.8373
  72   2.0000      -0.187805        -5.1104
  73   2.0000      -0.183742        -4.9999
  74   2.0000      -0.169865        -4.6223
  75   2.0000      -0.161730        -4.4009
  76   2.0000      -0.154446        -4.2027
  77   2.0000      -0.145386        -3.9561
  78   2.0000      -0.142707        -3.8833
  79   2.0000      -0.135637        -3.6909
  80   2.0000      -0.133660        -3.6371
  81   2.0000      -0.125539        -3.4161
  82   0.0000       0.039047         1.0625
  83   0.0000       0.060546         1.6475
  84   0.0000       0.078754         2.1430
  85   0.0000       0.101408         2.7595
  86   0.0000       0.127084         3.4581

MULLIKEN ATOMIC CHARGES
-----------------------
   0 Pd:    0.094331
   1 Cl:   -0.292584
   2 Cl:   -0.488740
   3 Cl:   -0.410452
   4 N :   -0.529200
   5 C :    0.053449
   6 C :   -0.314077
   7 C :   -0.158147
   8 C :    0.338070
   9 C :    0.064655
  10 H :    0.211741
  11 H :    0.277588
  12 H :    0.221823
  13 C :   -0.006873
  14 C :   -0.299134
  15 C :   -0.264903
  16 C :    0.100475
  17 H :    0.199334
  18 H :    0.199830
  19 C :   -0.243445
  20 C :   -0.272406
  21 C :   -0.206082
  22 C :   -0.221766
  23 H :    0.195546
  24 H :    0.203362
  25 H :    0.318862
  26 H :    0.228742
Sum of atomic charges:   -1.0000000

LOEWDIN ATOMIC CHARGES
----------------------
   0 Pd:   -0.914465
   1 Cl:   -0.006708
   2 Cl:   -0.309765
   3 Cl:   -0.165941
   4 N :    0.028055
   5 C :    0.014688
   6 C :   -0.162621
   7 C :   -0.084274
   8 C :    0.083117
   9 C :   -0.049917
  10 H :    0.135747
  11 H :    0.163931
  12 H :    0.141397
  13 C :    0.007152
  14 C :   -0.134579
  15 C :   -0.123995
  16 C :   -0.025086
  17 H :    0.131873
  18 H :    0.133491
  19 C :   -0.080968
  20 C :   -0.143837
  21 C :   -0.126847
  22 C :   -0.127261
  23 H :    0.127997
  24 H :    0.130105
  25 H :    0.218907
  26 H :    0.139806

  Mayer bond orders larger than 0.100000
B(  0-Pd,  1-Cl) :   0.9952 B(  0-Pd,  2-Cl) :   0.6617 B(  0-Pd,  3-Cl) :   0.8110
B(  0-Pd,  4-N ) :   0.3198 B(  2-Cl, 25-H ) :   0.1004 B(  4-N ,  5-C ) :   1.5041
B(  4-N ,  8-C ) :   1.2158 B(  5-C ,  6-C ) :   1.2979 B(  5-C , 11-H ) :   0.8964
B(  6-C ,  7-C ) :   1.4801 B(  6-C , 12-H ) :   0.9187 B(  7-C ,  9-C ) :   1.2657
B(  7-C , 10-H ) :   0.9283 B(  8-C ,  9-C ) :   1.2137 B(  8-C , 13-C ) :   1.1232
B(  9-C , 14-C ) :   1.1853 B( 13-C , 16-C ) :   1.3374 B( 13-C , 19-C ) :   1.1899
B( 14-C , 15-C ) :   1.6179 B( 14-C , 17-H ) :   0.9283 B( 15-C , 16-C ) :   1.1745
B( 15-C , 18-H ) :   0.9272 B( 16-C , 20-C ) :   1.2241 B( 19-C , 21-C ) :   1.5757
B( 19-C , 25-H ) :   0.8039 B( 20-C , 22-C ) :   1.5735 B( 20-C , 23-H ) :   0.9284
B( 21-C , 22-C ) :   1.2556 B( 21-C , 26-H ) :   0.9137 B( 22-C , 24-H ) :   0.9242

Dispersion correction           -0.024339055
FINAL SINGLE POINT ENERGY     -2061.495395944199
Dispersion correction            ... done

DIPOLE MOMENT
-------------
                                X             Y             Z
Electronic contribution:    -89.41950     -69.44345      36.29108
Nuclear contribution   :     93.04879      73.13845     -36.43314
                        -----------------------------------------
Total Dipole Moment    :      3.62929       3.69500      -0.14206
                        -----------------------------------------
Magnitude (a.u.)       :      5.18121
Magnitude (Debye)      :     13.16959

Rotational constants in cm-1:     0.012291     0.007284     0.005863
Rotational constants in MHz :   368.461074   218.366640   175.767216

                             ****ORCA TERMINATED NORMALLY****
TOTAL RUN TIME: 0 days 0 hours 16 minutes 19 seconds 344 msec
