                         Program Version 5.0.3 -  RELEASE  -
|  1> ! EnGrad PBEh-3c
|  2> %output
|  3> xyzfile=True
|  4> end
|  5> %scf
|  6> maxiter 250
|  7> end
|  8> %output
|  9> Print[P_Hirshfeld] = 1
| 10> end
| 11> % maxcore
| 12> 4000
| 13> *xyz -1 1
| 14> Pd  -2.28459625  -1.79980545   0.82903284
| 15> Cl  -3.80885672  -3.16742852  -0.01745617
| 16> Cl  -1.10086728  -3.96037277   1.65578259
| 17> Cl  -3.67858560   0.03208143   0.24637758
| 18> N   -0.93185289  -0.22780552   1.45099460
| 19> C   -1.21767788   0.31306542   2.61154182
| 20> C   -0.72017505   1.54690652   3.04088770
| 21> C    0.08077695   2.25321140   2.18512865
| 22> C   -0.06639314   0.40162098   0.61917991
| 23> C    0.42528982   1.69812067   0.94437399
| 24> H    0.45772379   3.22991163   2.45919344
| 25> H   -1.89006276  -0.24688007   3.23972894
| 26> H   -1.00295131   1.93288760   4.00512571
| 27> C    0.35872648  -0.31465435  -0.57998194
| 28> C    1.25074123   2.40703312   0.03060204
| 29> C    1.57548546   1.84283328  -1.15653006
| 30> C    1.14883938   0.50302997  -1.48112655
| 31> H    1.60026592   3.39871386   0.29219020
| 32> H    2.19668114   2.40248612  -1.85679867
| 33> C    0.16314231  -1.71034027  -0.86618135
| 34> C    1.62710959  -0.05156869  -2.69777581
| 35> C    0.50877784  -2.12982182  -2.09734832
| 36> C    1.28080012  -1.32779533  -3.00705757
| 37> H    2.24044096   0.53953103  -3.36906746
| 38> H    1.66419527  -1.78058155  -3.91698519
| 39> H   -0.17106743  -2.66064992  -0.17468379
| 40> H    0.29779697  -3.12180805  -2.38881264
| 41> *
| 42>
| 43>                          ****END OF INPUT****

CARTESIAN COORDINATES (ANGSTROEM)
---------------------------------
  Pd    -2.284596   -1.799805    0.829033
  Cl    -3.808857   -3.167429   -0.017456
  Cl    -1.100867   -3.960373    1.655783
  Cl    -3.678586    0.032081    0.246378
  N     -0.931853   -0.227806    1.450995
  C     -1.217678    0.313065    2.611542
  C     -0.720175    1.546907    3.040888
  C      0.080777    2.253211    2.185129
  C     -0.066393    0.401621    0.619180
  C      0.425290    1.698121    0.944374
  H      0.457724    3.229912    2.459193
  H     -1.890063   -0.246880    3.239729
  H     -1.002951    1.932888    4.005126
  C      0.358726   -0.314654   -0.579982
  C      1.250741    2.407033    0.030602
  C      1.575485    1.842833   -1.156530
  C      1.148839    0.503030   -1.481127
  H      1.600266    3.398714    0.292190
  H      2.196681    2.402486   -1.856799
  C      0.163142   -1.710340   -0.866181
  C      1.627110   -0.051569   -2.697776
  C      0.508778   -2.129822   -2.097348
  C      1.280800   -1.327795   -3.007058
  H      2.240441    0.539531   -3.369067
  H      1.664195   -1.780582   -3.916985
  H     -0.171067   -2.660650   -0.174684
  H      0.297797   -3.121808   -2.388813

 Total Charge           Charge          ....   -1
 Multiplicity           Mult            ....    1
 Number of Electrons    NEL             ....  164
 Basis Dimension        Dim             ....  313

ORBITAL ENERGIES
----------------

  NO   OCC          E(Eh)            E(eV)
   0   2.0000    -102.081873     -2777.7890
   1   2.0000    -102.080205     -2777.7436
   2   2.0000    -102.064610     -2777.3192
   3   2.0000     -14.592201      -397.0740
   4   2.0000     -10.421413      -283.5811
   5   2.0000     -10.407432      -283.2006
   6   2.0000     -10.395296      -282.8704
   7   2.0000     -10.392398      -282.7915
   8   2.0000     -10.390603      -282.7427
   9   2.0000     -10.388476      -282.6848
  10   2.0000     -10.383383      -282.5462
  11   2.0000     -10.380816      -282.4764
  12   2.0000     -10.380130      -282.4577
  13   2.0000     -10.368746      -282.1479
  14   2.0000     -10.367893      -282.1247
  15   2.0000     -10.365212      -282.0518
  16   2.0000     -10.353814      -281.7416
  17   2.0000      -9.545477      -259.7456
  18   2.0000      -9.545225      -259.7388
  19   2.0000      -9.526991      -259.2426
  20   2.0000      -7.232057      -196.7943
  21   2.0000      -7.231315      -196.7741
  22   2.0000      -7.226231      -196.6357
  23   2.0000      -7.226059      -196.6311
  24   2.0000      -7.225962      -196.6284
  25   2.0000      -7.225523      -196.6165
  26   2.0000      -7.212279      -196.2561
  27   2.0000      -7.208676      -196.1580
  28   2.0000      -7.208243      -196.1463
  29   2.0000      -3.508597       -95.4738
  30   2.0000      -2.158647       -58.7398
  31   2.0000      -2.148735       -58.4700
  32   2.0000      -2.120215       -57.6940
  33   2.0000      -0.989581       -26.9279
  34   2.0000      -0.889295       -24.1989
  35   2.0000      -0.854400       -23.2494
  36   2.0000      -0.819562       -22.3014
  37   2.0000      -0.786775       -21.4092
  38   2.0000      -0.747503       -20.3406
  39   2.0000      -0.740618       -20.1532
  40   2.0000      -0.678232       -18.4556
  41   2.0000      -0.664934       -18.0938
  42   2.0000      -0.651905       -17.7392
  43   2.0000      -0.646520       -17.5927
  44   2.0000      -0.645978       -17.5780
  45   2.0000      -0.617669       -16.8076
  46   2.0000      -0.586448       -15.9581
  47   2.0000      -0.537400       -14.6234
  48   2.0000      -0.525350       -14.2955
  49   2.0000      -0.502898       -13.6846
  50   2.0000      -0.471817       -12.8388
  51   2.0000      -0.469289       -12.7700
  52   2.0000      -0.438512       -11.9325
  53   2.0000      -0.418103       -11.3772
  54   2.0000      -0.410999       -11.1839
  55   2.0000      -0.405995       -11.0477
  56   2.0000      -0.396710       -10.7950
  57   2.0000      -0.394123       -10.7246
  58   2.0000      -0.379606       -10.3296
  59   2.0000      -0.349121        -9.5001
  60   2.0000      -0.348379        -9.4799
  61   2.0000      -0.324292        -8.8244
  62   2.0000      -0.312927        -8.5152
  63   2.0000      -0.303345        -8.2544
  64   2.0000      -0.295127        -8.0308
  65   2.0000      -0.270760        -7.3677
  66   2.0000      -0.252899        -6.8817
  67   2.0000      -0.244531        -6.6540
  68   2.0000      -0.236955        -6.4479
  69   2.0000      -0.228265        -6.2114
  70   2.0000      -0.219976        -5.9859
  71   2.0000      -0.215013        -5.8508
  72   2.0000      -0.191769        -5.2183
  73   2.0000      -0.180289        -4.9059
  74   2.0000      -0.170000        -4.6259
  75   2.0000      -0.162129        -4.4118
  76   2.0000      -0.154989        -4.2175
  77   2.0000      -0.144523        -3.9327
  78   2.0000      -0.142860        -3.8874
  79   2.0000      -0.135906        -3.6982
  80   2.0000      -0.133953        -3.6450
  81   2.0000      -0.125460        -3.4139
  82   0.0000       0.041857         1.1390
  83   0.0000       0.058536         1.5928
  84   0.0000       0.078935         2.1479
  85   0.0000       0.099647         2.7115
  86   0.0000       0.128771         3.5040

MULLIKEN ATOMIC CHARGES
-----------------------
   0 Pd:    0.097877
   1 Cl:   -0.297085
   2 Cl:   -0.487548
   3 Cl:   -0.405300
   4 N :   -0.530651
   5 C :    0.051153
   6 C :   -0.313642
   7 C :   -0.156141
   8 C :    0.327198
   9 C :    0.059215
  10 H :    0.211526
  11 H :    0.278244
  12 H :    0.221402
  13 C :    0.052535
  14 C :   -0.299581
  15 C :   -0.265159
  16 C :    0.090246
  17 H :    0.199219
  18 H :    0.199777
  19 C :   -0.272982
  20 C :   -0.280343
  21 C :   -0.201643
  22 C :   -0.223346
  23 H :    0.196363
  24 H :    0.199524
  25 H :    0.313815
  26 H :    0.235327
Sum of atomic charges:   -1.0000000

LOEWDIN ATOMIC CHARGES
----------------------
   0 Pd:   -0.916023
   1 Cl:   -0.016001
   2 Cl:   -0.310762
   3 Cl:   -0.156511
   4 N :    0.029264
   5 C :    0.015249
   6 C :   -0.162092
   7 C :   -0.086119
   8 C :    0.089046
   9 C :   -0.049697
  10 H :    0.135721
  11 H :    0.164323
  12 H :    0.141305
  13 C :   -0.006548
  14 C :   -0.136181
  15 C :   -0.121951
  16 C :   -0.023021
  17 H :    0.131700
  18 H :    0.133769
  19 C :   -0.084066
  20 C :   -0.143792
  21 C :   -0.126103
  22 C :   -0.129467
  23 H :    0.128620
  24 H :    0.128185
  25 H :    0.229199
  26 H :    0.141950

  Mayer bond orders larger than 0.100000
B(  0-Pd,  1-Cl) :   0.9883 B(  0-Pd,  2-Cl) :   0.6526 B(  0-Pd,  3-Cl) :   0.8186
B(  0-Pd,  4-N ) :   0.3221 B(  2-Cl, 25-H ) :   0.1084 B(  4-N ,  5-C ) :   1.4937
B(  4-N ,  8-C ) :   1.2304 B(  5-C ,  6-C ) :   1.3055 B(  5-C , 11-H ) :   0.8960
B(  6-C ,  7-C ) :   1.4739 B(  6-C , 12-H ) :   0.9187 B(  7-C ,  9-C ) :   1.2716
B(  7-C , 10-H ) :   0.9282 B(  8-C ,  9-C ) :   1.2176 B(  8-C , 13-C ) :   1.1010
B(  9-C , 14-C ) :   1.1756 B( 13-C , 16-C ) :   1.3235 B( 13-C , 19-C ) :   1.2187
B( 14-C , 15-C ) :   1.6291 B( 14-C , 17-H ) :   0.9282 B( 15-C , 16-C ) :   1.1599
B( 15-C , 18-H ) :   0.9278 B( 16-C , 20-C ) :   1.2490 B( 19-C , 21-C ) :   1.5208
B( 19-C , 25-H ) :   0.7936 B( 20-C , 22-C ) :   1.5341 B( 20-C , 23-H ) :   0.9291
B( 21-C , 22-C ) :   1.3039 B( 21-C , 26-H ) :   0.9119 B( 22-C , 24-H ) :   0.9249

Dispersion correction           -0.024360894
FINAL SINGLE POINT ENERGY     -2061.500564194626
Dispersion correction            ... done

DIPOLE MOMENT
-------------
                                X             Y             Z
Electronic contribution:    -89.10429     -69.14473      36.26884
Nuclear contribution   :     92.70924      72.86201     -36.39399
                        -----------------------------------------
Total Dipole Moment    :      3.60495       3.71727      -0.12516
                        -----------------------------------------
Magnitude (a.u.)       :      5.17971
Magnitude (Debye)      :     13.16578

Rotational constants in cm-1:     0.012299     0.007306     0.005865
Rotational constants in MHz :   368.728603   219.043267   175.821270

                             ****ORCA TERMINATED NORMALLY****
TOTAL RUN TIME: 0 days 0 hours 16 minutes 2 seconds 633 msec
