                         Program Version 5.0.3 -  RELEASE  -
|  1> ! EnGrad PBEh-3c
|  2> %output
|  3> xyzfile=True
|  4> end
|  5> %scf
|  6> maxiter 250
|  7> end
|  8> %output
|  9> Print[P_Hirshfeld] = 1
| 10> end
| 11> % maxcore
| 12> 4000
| 13> *xyz -1 1
| 14> Pd  -2.22653309  -1.84830670   0.82575771
| 15> Cl  -3.72356979  -3.22901797  -0.07636819
| 16> Cl  -1.00212569  -4.02097923   1.52901386
| 17> Cl  -3.75393020  -0.06620544   0.41965770
| 18> N   -0.93813734  -0.20754097   1.45527030
| 19> C   -1.24660261   0.35933360   2.60699658
| 20> C   -0.73458043   1.59379478   3.02460034
| 21> C    0.07982124   2.28314526   2.17908033
| 22> C   -0.07498559   0.39610192   0.62277734
| 23> C    0.42870517   1.70991184   0.94174238
| 24> H    0.46949238   3.26055852   2.44978551
| 25> H   -1.92097275  -0.19598562   3.23708390
| 26> H   -1.03073024   1.99040876   3.98814588
| 27> C    0.38100220  -0.33263369  -0.56821483
| 28> C    1.28100807   2.40755526   0.03489018
| 29> C    1.59585112   1.82046520  -1.13642896
| 30> C    1.13696803   0.47469101  -1.44696039
| 31> H    1.64838215   3.40073915   0.30442208
| 32> H    2.24991636   2.37582447  -1.83707417
| 33> C    0.15310577  -1.64887000  -0.84800751
| 34> C    1.62787779  -0.05043510  -2.67267265
| 35> C    0.49070665  -2.11297066  -2.14715322
| 36> C    1.22315711  -1.33740754  -2.99534088
| 37> H    2.27993120   0.52885890  -3.34592856
| 38> H    1.63005851  -1.77817892  -3.90538657
| 39> H   -0.21221996  -2.65660153  -0.20334422
| 40> H    0.19301097  -3.11501117  -2.43365173
| 41> *
| 42>
| 43>                          ****END OF INPUT****

CARTESIAN COORDINATES (ANGSTROEM)
---------------------------------
  Pd    -2.226533   -1.848307    0.825758
  Cl    -3.723570   -3.229018   -0.076368
  Cl    -1.002126   -4.020979    1.529014
  Cl    -3.753930   -0.066205    0.419658
  N     -0.938137   -0.207541    1.455270
  C     -1.246603    0.359334    2.606997
  C     -0.734580    1.593795    3.024600
  C      0.079821    2.283145    2.179080
  C     -0.074986    0.396102    0.622777
  C      0.428705    1.709912    0.941742
  H      0.469492    3.260559    2.449786
  H     -1.920973   -0.195986    3.237084
  H     -1.030730    1.990409    3.988146
  C      0.381002   -0.332634   -0.568215
  C      1.281008    2.407555    0.034890
  C      1.595851    1.820465   -1.136429
  C      1.136968    0.474691   -1.446960
  H      1.648382    3.400739    0.304422
  H      2.249916    2.375824   -1.837074
  C      0.153106   -1.648870   -0.848008
  C      1.627878   -0.050435   -2.672673
  C      0.490707   -2.112971   -2.147153
  C      1.223157   -1.337408   -2.995341
  H      2.279931    0.528859   -3.345929
  H      1.630059   -1.778179   -3.905387
  H     -0.212220   -2.656602   -0.203344
  H      0.193011   -3.115011   -2.433652

 Total Charge           Charge          ....   -1
 Multiplicity           Mult            ....    1
 Number of Electrons    NEL             ....  164
 Basis Dimension        Dim             ....  313

ORBITAL ENERGIES
----------------

  NO   OCC          E(Eh)            E(eV)
   0   2.0000    -102.082855     -2777.8157
   1   2.0000    -102.081354     -2777.7749
   2   2.0000    -102.066882     -2777.3810
   3   2.0000     -14.592499      -397.0821
   4   2.0000     -10.422725      -283.6168
   5   2.0000     -10.407711      -283.2082
   6   2.0000     -10.394353      -282.8447
   7   2.0000     -10.393681      -282.8264
   8   2.0000     -10.385538      -282.6049
   9   2.0000     -10.384411      -282.5742
  10   2.0000     -10.380740      -282.4743
  11   2.0000     -10.380233      -282.4605
  12   2.0000     -10.379746      -282.4473
  13   2.0000     -10.371276      -282.2168
  14   2.0000     -10.365848      -282.0691
  15   2.0000     -10.362846      -281.9874
  16   2.0000     -10.356926      -281.8263
  17   2.0000      -9.546425      -259.7714
  18   2.0000      -9.546127      -259.7633
  19   2.0000      -9.529340      -259.3065
  20   2.0000      -7.233047      -196.8212
  21   2.0000      -7.232195      -196.7980
  22   2.0000      -7.227173      -196.6614
  23   2.0000      -7.227009      -196.6569
  24   2.0000      -7.226861      -196.6529
  25   2.0000      -7.226463      -196.6421
  26   2.0000      -7.214614      -196.3196
  27   2.0000      -7.211068      -196.2231
  28   2.0000      -7.210525      -196.2084
  29   2.0000      -3.509398       -95.4956
  30   2.0000      -2.159183       -58.7544
  31   2.0000      -2.149757       -58.4978
  32   2.0000      -2.121093       -57.7179
  33   2.0000      -0.989139       -26.9158
  34   2.0000      -0.892865       -24.2961
  35   2.0000      -0.854395       -23.2493
  36   2.0000      -0.820208       -22.3190
  37   2.0000      -0.784157       -21.3380
  38   2.0000      -0.754574       -20.5330
  39   2.0000      -0.732016       -19.9192
  40   2.0000      -0.678809       -18.4713
  41   2.0000      -0.665317       -18.1042
  42   2.0000      -0.650032       -17.6883
  43   2.0000      -0.648562       -17.6483
  44   2.0000      -0.646823       -17.6009
  45   2.0000      -0.616376       -16.7725
  46   2.0000      -0.586460       -15.9584
  47   2.0000      -0.536523       -14.5995
  48   2.0000      -0.524658       -14.2767
  49   2.0000      -0.500370       -13.6158
  50   2.0000      -0.469903       -12.7867
  51   2.0000      -0.466653       -12.6983
  52   2.0000      -0.437833       -11.9140
  53   2.0000      -0.419864       -11.4251
  54   2.0000      -0.410436       -11.1685
  55   2.0000      -0.405362       -11.0305
  56   2.0000      -0.397338       -10.8121
  57   2.0000      -0.391404       -10.6507
  58   2.0000      -0.373698       -10.1688
  59   2.0000      -0.351179        -9.5561
  60   2.0000      -0.347345        -9.4517
  61   2.0000      -0.322961        -8.7882
  62   2.0000      -0.312526        -8.5043
  63   2.0000      -0.298460        -8.1215
  64   2.0000      -0.293593        -7.9891
  65   2.0000      -0.271037        -7.3753
  66   2.0000      -0.254494        -6.9251
  67   2.0000      -0.244871        -6.6633
  68   2.0000      -0.233817        -6.3625
  69   2.0000      -0.228535        -6.2187
  70   2.0000      -0.219742        -5.9795
  71   2.0000      -0.215277        -5.8580
  72   2.0000      -0.199093        -5.4176
  73   2.0000      -0.175515        -4.7760
  74   2.0000      -0.170009        -4.6262
  75   2.0000      -0.163677        -4.4539
  76   2.0000      -0.155719        -4.2373
  77   2.0000      -0.146346        -3.9823
  78   2.0000      -0.141057        -3.8383
  79   2.0000      -0.137420        -3.7394
  80   2.0000      -0.135527        -3.6879
  81   2.0000      -0.125691        -3.4202
  82   0.0000       0.046041         1.2528
  83   0.0000       0.056211         1.5296
  84   0.0000       0.076145         2.0720
  85   0.0000       0.097848         2.6626
  86   0.0000       0.131272         3.5721

MULLIKEN ATOMIC CHARGES
-----------------------
   0 Pd:    0.105169
   1 Cl:   -0.298840
   2 Cl:   -0.481513
   3 Cl:   -0.404615
   4 N :   -0.529683
   5 C :    0.046228
   6 C :   -0.313389
   7 C :   -0.153096
   8 C :    0.313305
   9 C :    0.033780
  10 H :    0.210898
  11 H :    0.277421
  12 H :    0.219905
  13 C :    0.144560
  14 C :   -0.290645
  15 C :   -0.267603
  16 C :    0.078843
  17 H :    0.199070
  18 H :    0.198076
  19 C :   -0.311142
  20 C :   -0.299660
  21 C :   -0.210457
  22 C :   -0.211619
  23 H :    0.198596
  24 H :    0.193700
  25 H :    0.310100
  26 H :    0.242611
Sum of atomic charges:   -1.0000000

LOEWDIN ATOMIC CHARGES
----------------------
   0 Pd:   -0.909308
   1 Cl:   -0.020539
   2 Cl:   -0.303246
   3 Cl:   -0.158132
   4 N :    0.027852
   5 C :    0.013042
   6 C :   -0.161945
   7 C :   -0.091731
   8 C :    0.094931
   9 C :   -0.047858
  10 H :    0.135529
  11 H :    0.163876
  12 H :    0.140727
  13 C :   -0.029665
  14 C :   -0.141522
  15 C :   -0.117520
  16 C :   -0.021677
  17 H :    0.131469
  18 H :    0.133642
  19 C :   -0.078056
  20 C :   -0.141592
  21 C :   -0.122600
  22 C :   -0.135616
  23 H :    0.130241
  24 H :    0.125958
  25 H :    0.237241
  26 H :    0.146498

  Mayer bond orders larger than 0.100000
B(  0-Pd,  1-Cl) :   0.9826 B(  0-Pd,  2-Cl) :   0.6440 B(  0-Pd,  3-Cl) :   0.8099
B(  0-Pd,  4-N ) :   0.3198 B(  2-Cl, 25-H ) :   0.1221 B(  4-N ,  5-C ) :   1.4688
B(  4-N ,  8-C ) :   1.2611 B(  5-C ,  6-C ) :   1.3281 B(  5-C , 11-H ) :   0.8960
B(  6-C ,  7-C ) :   1.4530 B(  6-C , 12-H ) :   0.9187 B(  7-C ,  9-C ) :   1.2906
B(  7-C , 10-H ) :   0.9280 B(  8-C ,  9-C ) :   1.2209 B(  8-C , 13-C ) :   1.0630
B(  9-C , 14-C ) :   1.1557 B( 13-C , 16-C ) :   1.2804 B( 13-C , 19-C ) :   1.2516
B( 14-C , 15-C ) :   1.6533 B( 14-C , 17-H ) :   0.9276 B( 15-C , 16-C ) :   1.1310
B( 15-C , 18-H ) :   0.9291 B( 16-C , 20-C ) :   1.3082 B( 19-C , 20-C ) :   0.1008
B( 19-C , 21-C ) :   1.4168 B( 19-C , 25-H ) :   0.7783 B( 20-C , 22-C ) :   1.4426
B( 20-C , 23-H ) :   0.9294 B( 21-C , 22-C ) :   1.4046 B( 21-C , 26-H ) :   0.9104
B( 22-C , 24-H ) :   0.9259

Dispersion correction           -0.024381526
FINAL SINGLE POINT ENERGY     -2061.488668874228
Dispersion correction            ... done

DIPOLE MOMENT
-------------
                                X             Y             Z
Electronic contribution:    -86.54252     -71.00847      36.10945
Nuclear contribution   :     90.04517      74.74934     -36.22007
                        -----------------------------------------
Total Dipole Moment    :      3.50265       3.74087      -0.11062
                        -----------------------------------------
Magnitude (a.u.)       :      5.12591
Magnitude (Debye)      :     13.02902

Rotational constants in cm-1:     0.012260     0.007389     0.005825
Rotational constants in MHz :   367.539232   221.504600   174.635196

                             ****ORCA TERMINATED NORMALLY****
TOTAL RUN TIME: 0 days 0 hours 13 minutes 16 seconds 106 msec
