                         Program Version 5.0.3 -  RELEASE  -
|  1> ! EnGrad PBEh-3c
|  2> %output
|  3> xyzfile=True
|  4> end
|  5> %scf
|  6> maxiter 250
|  7> end
|  8> %output
|  9> Print[P_Hirshfeld] = 1
| 10> end
| 11> % maxcore
| 12> 4000
| 13> *xyz -1 1
| 14> Pd  -2.26757792  -1.81402118   0.82807290
| 15> Cl  -3.78385910  -3.18548040  -0.03472330
| 16> Cl  -1.07192610  -3.97813654   1.61862665
| 17> Cl  -3.70066912   0.00327353   0.29716602
| 18> N   -0.93369487  -0.22186597   1.45224781
| 19> C   -1.22615572   0.32662664   2.61020961
| 20> C   -0.72439727   1.56064948   3.03611387
| 21> C    0.08049683   2.26198502   2.18335589
| 22> C   -0.06891159   0.40000334   0.62023432
| 23> C    0.42629086   1.70157666   0.94360266
| 24> H    0.46117317   3.23889424   2.45643598
| 25> H   -1.89912249  -0.23196289   3.23895368
| 26> H   -1.01109332   1.94974706   4.00014892
| 27> C    0.36525550  -0.31992410  -0.57653300
| 28> C    1.25961245   2.40718616   0.03185889
| 29> C    1.58145464   1.83627719  -1.15063842
| 30> C    1.14535988   0.49472382  -1.47111244
| 31> H    1.61436880   3.39930747   0.29577537
| 32> H    2.21228440   2.39467159  -1.85101742
| 33> C    0.16020060  -1.69232332  -0.86085460
| 34> C    1.62733475  -0.05123643  -2.69041807
| 35> C    0.50348117  -2.12488274  -2.11194615
| 36> C    1.26390494  -1.33061267  -3.00362340
| 37> H    2.25201556   0.53640303  -3.36228544
| 38> H    1.65418978  -1.77987733  -3.91358563
| 39> H   -0.18312925  -2.65946334  -0.18308417
| 40> H    0.26708417  -3.11981588  -2.40195499
| 41> *
| 42>
| 43>                          ****END OF INPUT****

CARTESIAN COORDINATES (ANGSTROEM)
---------------------------------
  Pd    -2.267578   -1.814021    0.828073
  Cl    -3.783859   -3.185480   -0.034723
  Cl    -1.071926   -3.978137    1.618627
  Cl    -3.700669    0.003274    0.297166
  N     -0.933695   -0.221866    1.452248
  C     -1.226156    0.326627    2.610210
  C     -0.724397    1.560649    3.036114
  C      0.080497    2.261985    2.183356
  C     -0.068912    0.400003    0.620234
  C      0.426291    1.701577    0.943603
  H      0.461173    3.238894    2.456436
  H     -1.899122   -0.231963    3.238954
  H     -1.011093    1.949747    4.000149
  C      0.365255   -0.319924   -0.576533
  C      1.259612    2.407186    0.031859
  C      1.581455    1.836277   -1.150638
  C      1.145360    0.494724   -1.471112
  H      1.614369    3.399307    0.295775
  H      2.212284    2.394672   -1.851017
  C      0.160201   -1.692323   -0.860855
  C      1.627335   -0.051236   -2.690418
  C      0.503481   -2.124883   -2.111946
  C      1.263905   -1.330613   -3.003623
  H      2.252016    0.536403   -3.362285
  H      1.654190   -1.779877   -3.913586
  H     -0.183129   -2.659463   -0.183084
  H      0.267084   -3.119816   -2.401955

 Total Charge           Charge          ....   -1
 Multiplicity           Mult            ....    1
 Number of Electrons    NEL             ....  164
 Basis Dimension        Dim             ....  313

ORBITAL ENERGIES
----------------

  NO   OCC          E(Eh)            E(eV)
   0   2.0000    -102.082199     -2777.7979
   1   2.0000    -102.080430     -2777.7497
   2   2.0000    -102.065186     -2777.3349
   3   2.0000     -14.592302      -397.0767
   4   2.0000     -10.421828      -283.5924
   5   2.0000     -10.407522      -283.2031
   6   2.0000     -10.395004      -282.8624
   7   2.0000     -10.392803      -282.8026
   8   2.0000     -10.387971      -282.6711
   9   2.0000     -10.387468      -282.6574
  10   2.0000     -10.383674      -282.5541
  11   2.0000     -10.380657      -282.4720
  12   2.0000     -10.380011      -282.4545
  13   2.0000     -10.369051      -282.1562
  14   2.0000     -10.366943      -282.0989
  15   2.0000     -10.365654      -282.0638
  16   2.0000     -10.354988      -281.7736
  17   2.0000      -9.545647      -259.7503
  18   2.0000      -9.545552      -259.7477
  19   2.0000      -9.527590      -259.2589
  20   2.0000      -7.232238      -196.7992
  21   2.0000      -7.231637      -196.7828
  22   2.0000      -7.226566      -196.6449
  23   2.0000      -7.226283      -196.6372
  24   2.0000      -7.226229      -196.6357
  25   2.0000      -7.225691      -196.6210
  26   2.0000      -7.212873      -196.2722
  27   2.0000      -7.209288      -196.1747
  28   2.0000      -7.208826      -196.1621
  29   2.0000      -3.508757       -95.4781
  30   2.0000      -2.158710       -58.7415
  31   2.0000      -2.148993       -58.4771
  32   2.0000      -2.120391       -57.6988
  33   2.0000      -0.989478       -26.9251
  34   2.0000      -0.890184       -24.2231
  35   2.0000      -0.854407       -23.2496
  36   2.0000      -0.819705       -22.3053
  37   2.0000      -0.785842       -21.3839
  38   2.0000      -0.749452       -20.3936
  39   2.0000      -0.737936       -20.0803
  40   2.0000      -0.678406       -18.4604
  41   2.0000      -0.665107       -18.0985
  42   2.0000      -0.650784       -17.7087
  43   2.0000      -0.647174       -17.6105
  44   2.0000      -0.646663       -17.5966
  45   2.0000      -0.617370       -16.7995
  46   2.0000      -0.586710       -15.9652
  47   2.0000      -0.537210       -14.6182
  48   2.0000      -0.525205       -14.2916
  49   2.0000      -0.502217       -13.6660
  50   2.0000      -0.471262       -12.8237
  51   2.0000      -0.468530       -12.7493
  52   2.0000      -0.438270       -11.9259
  53   2.0000      -0.418711       -11.3937
  54   2.0000      -0.410864       -11.1802
  55   2.0000      -0.405666       -11.0387
  56   2.0000      -0.396910       -10.8005
  57   2.0000      -0.393294       -10.7021
  58   2.0000      -0.377734       -10.2787
  59   2.0000      -0.349628        -9.5139
  60   2.0000      -0.348266        -9.4768
  61   2.0000      -0.323758        -8.8099
  62   2.0000      -0.313137        -8.5209
  63   2.0000      -0.301714        -8.2101
  64   2.0000      -0.295675        -8.0457
  65   2.0000      -0.270844        -7.3700
  66   2.0000      -0.253358        -6.8942
  67   2.0000      -0.244814        -6.6617
  68   2.0000      -0.235973        -6.4212
  69   2.0000      -0.228281        -6.2118
  70   2.0000      -0.219869        -5.9830
  71   2.0000      -0.215158        -5.8547
  72   2.0000      -0.193713        -5.2712
  73   2.0000      -0.178638        -4.8610
  74   2.0000      -0.170108        -4.6289
  75   2.0000      -0.162651        -4.4260
  76   2.0000      -0.155203        -4.2233
  77   2.0000      -0.144714        -3.9379
  78   2.0000      -0.142588        -3.8800
  79   2.0000      -0.136255        -3.7077
  80   2.0000      -0.134318        -3.6550
  81   2.0000      -0.125450        -3.4137
  82   0.0000       0.043436         1.1819
  83   0.0000       0.057458         1.5635
  84   0.0000       0.078463         2.1351
  85   0.0000       0.099061         2.6956
  86   0.0000       0.129235         3.5167

MULLIKEN ATOMIC CHARGES
-----------------------
   0 Pd:    0.099316
   1 Cl:   -0.297676
   2 Cl:   -0.485818
   3 Cl:   -0.404425
   4 N :   -0.530583
   5 C :    0.049839
   6 C :   -0.313675
   7 C :   -0.155026
   8 C :    0.323793
   9 C :    0.051419
  10 H :    0.211362
  11 H :    0.277965
  12 H :    0.220975
  13 C :    0.076218
  14 C :   -0.297100
  15 C :   -0.266289
  16 C :    0.089011
  17 H :    0.199180
  18 H :    0.199314
  19 C :   -0.282275
  20 C :   -0.286962
  21 C :   -0.204850
  22 C :   -0.219665
  23 H :    0.196982
  24 H :    0.197982
  25 H :    0.313142
  26 H :    0.237845
Sum of atomic charges:   -1.0000000

LOEWDIN ATOMIC CHARGES
----------------------
   0 Pd:   -0.915378
   1 Cl:   -0.017406
   2 Cl:   -0.308484
   3 Cl:   -0.155767
   4 N :    0.028918
   5 C :    0.014691
   6 C :   -0.162046
   7 C :   -0.087738
   8 C :    0.090847
   9 C :   -0.049162
  10 H :    0.135668
  11 H :    0.164173
  12 H :    0.141139
  13 C :   -0.013151
  14 C :   -0.137713
  15 C :   -0.120642
  16 C :   -0.022739
  17 H :    0.131637
  18 H :    0.133754
  19 C :   -0.082515
  20 C :   -0.143229
  21 C :   -0.125076
  22 C :   -0.131154
  23 H :    0.129057
  24 H :    0.127559
  25 H :    0.231482
  26 H :    0.143275

  Mayer bond orders larger than 0.100000
B(  0-Pd,  1-Cl) :   0.9866 B(  0-Pd,  2-Cl) :   0.6505 B(  0-Pd,  3-Cl) :   0.8171
B(  0-Pd,  4-N ) :   0.3215 B(  2-Cl, 25-H ) :   0.1123 B(  4-N ,  5-C ) :   1.4866
B(  4-N ,  8-C ) :   1.2392 B(  5-C ,  6-C ) :   1.3121 B(  5-C , 11-H ) :   0.8960
B(  6-C ,  7-C ) :   1.4678 B(  6-C , 12-H ) :   0.9187 B(  7-C ,  9-C ) :   1.2771
B(  7-C , 10-H ) :   0.9282 B(  8-C ,  9-C ) :   1.2187 B(  8-C , 13-C ) :   1.0894
B(  9-C , 14-C ) :   1.1698 B( 13-C , 16-C ) :   1.3130 B( 13-C , 19-C ) :   1.2306
B( 14-C , 15-C ) :   1.6367 B( 14-C , 17-H ) :   0.9281 B( 15-C , 16-C ) :   1.1507
B( 15-C , 18-H ) :   0.9282 B( 16-C , 20-C ) :   1.2650 B( 19-C , 21-C ) :   1.4904
B( 19-C , 25-H ) :   0.7893 B( 20-C , 22-C ) :   1.5081 B( 20-C , 23-H ) :   0.9293
B( 21-C , 22-C ) :   1.3324 B( 21-C , 26-H ) :   0.9114 B( 22-C , 24-H ) :   0.9253

Dispersion correction           -0.024369763
FINAL SINGLE POINT ENERGY     -2061.500587476462
Dispersion correction            ... done

DIPOLE MOMENT
-------------
                                X             Y             Z
Electronic contribution:    -88.35475     -69.68820      36.22230
Nuclear contribution   :     91.92840      73.41518     -36.34302
                        -----------------------------------------
Total Dipole Moment    :      3.57365       3.72698      -0.12071
                        -----------------------------------------
Magnitude (a.u.)       :      5.16487
Magnitude (Debye)      :     13.12807

Rotational constants in cm-1:     0.012291     0.007332     0.005854
Rotational constants in MHz :   368.474402   219.805538   175.511375

                             ****ORCA TERMINATED NORMALLY****
TOTAL RUN TIME: 0 days 0 hours 13 minutes 19 seconds 606 msec
