                         Program Version 5.0.3 -  RELEASE  -
|  1> ! EnGrad PBEh-3c
|  2> %output
|  3> xyzfile=True
|  4> end
|  5> %scf
|  6> maxiter 250
|  7> end
|  8> %output
|  9> Print[P_Hirshfeld] = 1
| 10> end
| 11> % maxcore
| 12> 4000
| 13> *xyz -1 1
| 14> Pd  -2.17548852  -1.87551624   0.81457755
| 15> Cl  -3.63803630  -3.29375328  -0.13869268
| 16> Cl  -0.88587982  -4.08146378   1.38818547
| 17> Cl  -3.82752073  -0.17753457   0.60591368
| 18> N   -0.94393712  -0.19025374   1.46063946
| 19> C   -1.27357339   0.40894573   2.60095006
| 20> C   -0.75888294   1.63422242   3.01298495
| 21> C    0.08283346   2.31294108   2.16209113
| 22> C   -0.07315165   0.39945029   0.63091290
| 23> C    0.42652130   1.71161486   0.94361374
| 24> H    0.48104527   3.29056310   2.43869978
| 25> H   -1.95540395  -0.14379187   3.23532418
| 26> H   -1.05801684   2.04878257   3.96900531
| 27> C    0.39869728  -0.30944779  -0.53463166
| 28> C    1.31096865   2.40672909   0.03921555
| 29> C    1.61955853   1.80313915  -1.11656443
| 30> C    1.15789935   0.46388773  -1.44492293
| 31> H    1.69595703   3.39752766   0.31499297
| 32> H    2.29582025   2.33737877  -1.81192033
| 33> C    0.12296359  -1.67149007  -0.86002188
| 34> C    1.61629700  -0.05911123  -2.63864201
| 35> C    0.45277961  -2.09209677  -2.14900868
| 36> C    1.19321430  -1.33155911  -3.00557513
| 37> H    2.31199082   0.51019154  -3.31255922
| 38> H    1.58922420  -1.77676981  -3.89474493
| 39> H   -0.24925086  -2.62482588  -0.22936084
| 40> H    0.08804583  -3.09836464  -2.47474756
| 41> *
| 42>
| 43>                          ****END OF INPUT****

CARTESIAN COORDINATES (ANGSTROEM)
---------------------------------
  Pd    -2.175489   -1.875516    0.814578
  Cl    -3.638036   -3.293753   -0.138693
  Cl    -0.885880   -4.081464    1.388185
  Cl    -3.827521   -0.177535    0.605914
  N     -0.943937   -0.190254    1.460639
  C     -1.273573    0.408946    2.600950
  C     -0.758883    1.634222    3.012985
  C      0.082833    2.312941    2.162091
  C     -0.073152    0.399450    0.630913
  C      0.426521    1.711615    0.943614
  H      0.481045    3.290563    2.438700
  H     -1.955404   -0.143792    3.235324
  H     -1.058017    2.048783    3.969005
  C      0.398697   -0.309448   -0.534632
  C      1.310969    2.406729    0.039216
  C      1.619559    1.803139   -1.116564
  C      1.157899    0.463888   -1.444923
  H      1.695957    3.397528    0.314993
  H      2.295820    2.337379   -1.811920
  C      0.122964   -1.671490   -0.860022
  C      1.616297   -0.059111   -2.638642
  C      0.452780   -2.092097   -2.149009
  C      1.193214   -1.331559   -3.005575
  H      2.311991    0.510192   -3.312559
  H      1.589224   -1.776770   -3.894745
  H     -0.249251   -2.624826   -0.229361
  H      0.088046   -3.098365   -2.474748

 Total Charge           Charge          ....   -1
 Multiplicity           Mult            ....    1
 Number of Electrons    NEL             ....  164
 Basis Dimension        Dim             ....  313

ORBITAL ENERGIES
----------------

  NO   OCC          E(Eh)            E(eV)
   0   2.0000    -102.085637     -2777.8914
   1   2.0000    -102.082155     -2777.7966
   2   2.0000    -102.064307     -2777.3110
   3   2.0000     -14.593757      -397.1163
   4   2.0000     -10.422336      -283.6062
   5   2.0000     -10.408783      -283.2374
   6   2.0000     -10.396494      -282.9030
   7   2.0000     -10.394491      -282.8485
   8   2.0000     -10.383761      -282.5565
   9   2.0000     -10.382967      -282.5349
  10   2.0000     -10.382432      -282.5203
  11   2.0000     -10.381540      -282.4961
  12   2.0000     -10.380843      -282.4771
  13   2.0000     -10.370062      -282.1837
  14   2.0000     -10.364589      -282.0348
  15   2.0000     -10.362194      -281.9696
  16   2.0000     -10.356313      -281.8096
  17   2.0000      -9.548898      -259.8387
  18   2.0000      -9.546883      -259.7839
  19   2.0000      -9.526834      -259.2383
  20   2.0000      -7.235021      -196.8749
  21   2.0000      -7.233543      -196.8347
  22   2.0000      -7.229911      -196.7359
  23   2.0000      -7.229597      -196.7273
  24   2.0000      -7.227491      -196.6700
  25   2.0000      -7.226930      -196.6548
  26   2.0000      -7.212094      -196.2510
  27   2.0000      -7.208567      -196.1551
  28   2.0000      -7.208012      -196.1400
  29   2.0000      -3.511017       -95.5396
  30   2.0000      -2.160503       -58.7903
  31   2.0000      -2.151531       -58.5461
  32   2.0000      -2.122837       -57.7653
  33   2.0000      -0.989109       -26.9150
  34   2.0000      -0.893637       -24.3171
  35   2.0000      -0.853458       -23.2238
  36   2.0000      -0.821249       -22.3473
  37   2.0000      -0.784698       -21.3527
  38   2.0000      -0.753757       -20.5108
  39   2.0000      -0.733160       -19.9503
  40   2.0000      -0.679009       -18.4768
  41   2.0000      -0.666918       -18.1478
  42   2.0000      -0.653294       -17.7770
  43   2.0000      -0.646883       -17.6026
  44   2.0000      -0.645643       -17.5688
  45   2.0000      -0.612868       -16.6770
  46   2.0000      -0.588773       -16.0213
  47   2.0000      -0.535445       -14.5702
  48   2.0000      -0.523833       -14.2542
  49   2.0000      -0.500643       -13.6232
  50   2.0000      -0.469833       -12.7848
  51   2.0000      -0.465206       -12.6589
  52   2.0000      -0.436029       -11.8649
  53   2.0000      -0.422407       -11.4943
  54   2.0000      -0.410608       -11.1732
  55   2.0000      -0.404345       -11.0028
  56   2.0000      -0.398176       -10.8349
  57   2.0000      -0.393243       -10.7007
  58   2.0000      -0.373080       -10.1520
  59   2.0000      -0.351912        -9.5760
  60   2.0000      -0.345131        -9.3915
  61   2.0000      -0.317625        -8.6430
  62   2.0000      -0.313734        -8.5371
  63   2.0000      -0.307225        -8.3600
  64   2.0000      -0.294559        -8.0153
  65   2.0000      -0.271020        -7.3748
  66   2.0000      -0.255314        -6.9474
  67   2.0000      -0.245882        -6.6908
  68   2.0000      -0.233609        -6.3568
  69   2.0000      -0.229419        -6.2428
  70   2.0000      -0.219263        -5.9664
  71   2.0000      -0.216667        -5.8958
  72   2.0000      -0.196207        -5.3391
  73   2.0000      -0.178606        -4.8601
  74   2.0000      -0.169239        -4.6052
  75   2.0000      -0.164648        -4.4803
  76   2.0000      -0.156513        -4.2589
  77   2.0000      -0.147874        -4.0239
  78   2.0000      -0.139992        -3.8094
  79   2.0000      -0.138618        -3.7720
  80   2.0000      -0.136636        -3.7181
  81   2.0000      -0.124709        -3.3935
  82   0.0000       0.044727         1.2171
  83   0.0000       0.055583         1.5125
  84   0.0000       0.071167         1.9365
  85   0.0000       0.100515         2.7352
  86   0.0000       0.129293         3.5182

MULLIKEN ATOMIC CHARGES
-----------------------
   0 Pd:    0.117225
   1 Cl:   -0.302071
   2 Cl:   -0.487519
   3 Cl:   -0.401112
   4 N :   -0.537079
   5 C :    0.045088
   6 C :   -0.312831
   7 C :   -0.158837
   8 C :    0.355049
   9 C :    0.004187
  10 H :    0.212421
  11 H :    0.276393
  12 H :    0.220740
  13 C :    0.069148
  14 C :   -0.274104
  15 C :   -0.285725
  16 C :    0.141210
  17 H :    0.199909
  18 H :    0.195165
  19 C :   -0.281171
  20 C :   -0.319251
  21 C :   -0.226524
  22 C :   -0.198768
  23 H :    0.193227
  24 H :    0.201028
  25 H :    0.314075
  26 H :    0.240127
Sum of atomic charges:   -1.0000000

LOEWDIN ATOMIC CHARGES
----------------------
   0 Pd:   -0.887138
   1 Cl:   -0.030306
   2 Cl:   -0.316371
   3 Cl:   -0.151685
   4 N :    0.024801
   5 C :    0.011455
   6 C :   -0.163877
   7 C :   -0.091278
   8 C :    0.087724
   9 C :   -0.045749
  10 H :    0.136159
  11 H :    0.164284
  12 H :    0.140703
  13 C :   -0.023729
  14 C :   -0.140899
  15 C :   -0.116044
  16 C :   -0.028507
  17 H :    0.132586
  18 H :    0.131749
  19 C :   -0.074445
  20 C :   -0.139798
  21 C :   -0.123609
  22 C :   -0.133961
  23 H :    0.128506
  24 H :    0.129220
  25 H :    0.232358
  26 H :    0.147852

  Mayer bond orders larger than 0.100000
B(  0-Pd,  1-Cl) :   0.9731 B(  0-Pd,  2-Cl) :   0.6252 B(  0-Pd,  3-Cl) :   0.8073
B(  0-Pd,  4-N ) :   0.3241 B(  2-Cl, 25-H ) :   0.1332 B(  4-N ,  5-C ) :   1.4530
B(  4-N ,  8-C ) :   1.2546 B(  5-C ,  6-C ) :   1.3455 B(  5-C , 11-H ) :   0.8964
B(  6-C ,  7-C ) :   1.4344 B(  6-C , 12-H ) :   0.9181 B(  7-C ,  9-C ) :   1.3043
B(  7-C , 10-H ) :   0.9277 B(  8-C ,  9-C ) :   1.2125 B(  8-C , 13-C ) :   1.0856
B(  9-C , 14-C ) :   1.1480 B( 13-C , 16-C ) :   1.2976 B( 13-C , 19-C ) :   1.2421
B( 14-C , 15-C ) :   1.6644 B( 14-C , 17-H ) :   0.9276 B( 15-C , 16-C ) :   1.1274
B( 15-C , 18-H ) :   0.9293 B( 16-C , 20-C ) :   1.2947 B( 19-C , 21-C ) :   1.4454
B( 19-C , 25-H ) :   0.7650 B( 20-C , 22-C ) :   1.4459 B( 20-C , 23-H ) :   0.9328
B( 21-C , 22-C ) :   1.3825 B( 21-C , 26-H ) :   0.9106 B( 22-C , 24-H ) :   0.9240

Dispersion correction           -0.024395877
FINAL SINGLE POINT ENERGY     -2061.491615940003
Dispersion correction            ... done

DIPOLE MOMENT
-------------
                                X             Y             Z
Electronic contribution:    -84.40203     -71.59149      35.53787
Nuclear contribution   :     87.80434      75.48855     -35.66131
                        -----------------------------------------
Total Dipole Moment    :      3.40232       3.89706      -0.12345
                        -----------------------------------------
Magnitude (a.u.)       :      5.17476
Magnitude (Debye)      :     13.15319

Rotational constants in cm-1:     0.012188     0.007471     0.005774
Rotational constants in MHz :   365.386591   223.965975   173.109315

                             ****ORCA TERMINATED NORMALLY****
TOTAL RUN TIME: 0 days 0 hours 14 minutes 6 seconds 821 msec
