                         Program Version 5.0.3 -  RELEASE  -
|  1> ! EnGrad PBEh-3c
|  2> %output
|  3> xyzfile=True
|  4> end
|  5> %scf
|  6> maxiter 250
|  7> end
|  8> %output
|  9> Print[P_Hirshfeld] = 1
| 10> end
| 11> % maxcore
| 12> 4000
| 13> *xyz -1 1
| 14> Pd  -2.24132023  -1.83155543   0.82422494
| 15> Cl  -3.74228027  -3.21635253  -0.06436836
| 16> Cl  -1.01887824  -4.00759850   1.55292036
| 17> Cl  -3.73683865  -0.04828075   0.38520004
| 18> N   -0.93661527  -0.21285230   1.45464054
| 19> C   -1.23967605   0.35009849   2.60756941
| 20> C   -0.73423026   1.58162753   3.02951906
| 21> C    0.08116308   2.27651425   2.17729261
| 22> C   -0.07012057   0.39984565   0.62327913
| 23> C    0.42635657   1.70443888   0.94360582
| 24> H    0.46683935   3.25362672   2.45137881
| 25> H   -1.91517017  -0.20682246   3.23791879
| 26> H   -1.02447274   1.97798531   3.99126886
| 27> C    0.37479084  -0.31693696  -0.56458556
| 28> C    1.27425577   2.40705583   0.03395652
| 29> C    1.59231930   1.82682846  -1.14092282
| 30> C    1.14893529   0.48593144  -1.46364496
| 31> H    1.63763226   3.39879999   0.30125493
| 32> H    2.23610319   2.37833554  -1.83986956
| 33> C    0.14958311  -1.68638308  -0.86061716
| 34> C    1.62418753  -0.05348180  -2.67565503
| 35> C    0.48902450  -2.11553439  -2.12251389
| 36> C    1.24374873  -1.33088253  -3.00417990
| 37> H    2.26911646   0.52892928  -3.34810688
| 38> H    1.63566597  -1.77899128  -3.90821354
| 39> H   -0.20198267  -2.64958707  -0.19627916
| 40> H    0.21603451  -3.11369943  -2.42271052
| 41> *
| 42>
| 43>                          ****END OF INPUT****

CARTESIAN COORDINATES (ANGSTROEM)
---------------------------------
  Pd    -2.241320   -1.831555    0.824225
  Cl    -3.742280   -3.216353   -0.064368
  Cl    -1.018878   -4.007599    1.552920
  Cl    -3.736839   -0.048281    0.385200
  N     -0.936615   -0.212852    1.454641
  C     -1.239676    0.350098    2.607569
  C     -0.734230    1.581628    3.029519
  C      0.081163    2.276514    2.177293
  C     -0.070121    0.399846    0.623279
  C      0.426357    1.704439    0.943606
  H      0.466839    3.253627    2.451379
  H     -1.915170   -0.206822    3.237919
  H     -1.024473    1.977985    3.991269
  C      0.374791   -0.316937   -0.564586
  C      1.274256    2.407056    0.033957
  C      1.592319    1.826828   -1.140923
  C      1.148935    0.485931   -1.463645
  H      1.637632    3.398800    0.301255
  H      2.236103    2.378336   -1.839870
  C      0.149583   -1.686383   -0.860617
  C      1.624188   -0.053482   -2.675655
  C      0.489024   -2.115534   -2.122514
  C      1.243749   -1.330883   -3.004180
  H      2.269116    0.528929   -3.348107
  H      1.635666   -1.778991   -3.908214
  H     -0.201983   -2.649587   -0.196279
  H      0.216035   -3.113699   -2.422711

 Total Charge           Charge          ....   -1
 Multiplicity           Mult            ....    1
 Number of Electrons    NEL             ....  164
 Basis Dimension        Dim             ....  313

ORBITAL ENERGIES
----------------

  NO   OCC          E(Eh)            E(eV)
   0   2.0000    -102.083403     -2777.8306
   1   2.0000    -102.080612     -2777.7547
   2   2.0000    -102.064881     -2777.3266
   3   2.0000     -14.592670      -397.0867
   4   2.0000     -10.421861      -283.5932
   5   2.0000     -10.407831      -283.2115
   6   2.0000     -10.395371      -282.8724
   7   2.0000     -10.393245      -282.8146
   8   2.0000     -10.386601      -282.6338
   9   2.0000     -10.385985      -282.6170
  10   2.0000     -10.383380      -282.5461
  11   2.0000     -10.380856      -282.4775
  12   2.0000     -10.380210      -282.4599
  13   2.0000     -10.369235      -282.1612
  14   2.0000     -10.365551      -282.0610
  15   2.0000     -10.365049      -282.0473
  16   2.0000     -10.355192      -281.7791
  17   2.0000      -9.546784      -259.7812
  18   2.0000      -9.545699      -259.7517
  19   2.0000      -9.527314      -259.2514
  20   2.0000      -7.232866      -196.8163
  21   2.0000      -7.232306      -196.8011
  22   2.0000      -7.227805      -196.6786
  23   2.0000      -7.227501      -196.6703
  24   2.0000      -7.226289      -196.6373
  25   2.0000      -7.225745      -196.6225
  26   2.0000      -7.212585      -196.2644
  27   2.0000      -7.209029      -196.1676
  28   2.0000      -7.208535      -196.1542
  29   2.0000      -3.509169       -95.4894
  30   2.0000      -2.158915       -58.7471
  31   2.0000      -2.149610       -58.4939
  32   2.0000      -2.120829       -57.7107
  33   2.0000      -0.989397       -26.9229
  34   2.0000      -0.891076       -24.2474
  35   2.0000      -0.854142       -23.2424
  36   2.0000      -0.820082       -22.3156
  37   2.0000      -0.785463       -21.3735
  38   2.0000      -0.750535       -20.4231
  39   2.0000      -0.736527       -20.0419
  40   2.0000      -0.678648       -18.4669
  41   2.0000      -0.665868       -18.1192
  42   2.0000      -0.651271       -17.7220
  43   2.0000      -0.646894       -17.6029
  44   2.0000      -0.646725       -17.5983
  45   2.0000      -0.616150       -16.7663
  46   2.0000      -0.587260       -15.9801
  47   2.0000      -0.536570       -14.6008
  48   2.0000      -0.524922       -14.2839
  49   2.0000      -0.501781       -13.6541
  50   2.0000      -0.469731       -12.7820
  51   2.0000      -0.468633       -12.7522
  52   2.0000      -0.437589       -11.9074
  53   2.0000      -0.419674       -11.4199
  54   2.0000      -0.410813       -11.1788
  55   2.0000      -0.405248       -11.0274
  56   2.0000      -0.396990       -10.8027
  57   2.0000      -0.393476       -10.7070
  58   2.0000      -0.376374       -10.2416
  59   2.0000      -0.350260        -9.5311
  60   2.0000      -0.347418        -9.4537
  61   2.0000      -0.322232        -8.7684
  62   2.0000      -0.313100        -8.5199
  63   2.0000      -0.303491        -8.2584
  64   2.0000      -0.295552        -8.0424
  65   2.0000      -0.270936        -7.3725
  66   2.0000      -0.254033        -6.9126
  67   2.0000      -0.245756        -6.6874
  68   2.0000      -0.235232        -6.4010
  69   2.0000      -0.228392        -6.2149
  70   2.0000      -0.219583        -5.9752
  71   2.0000      -0.215874        -5.8742
  72   2.0000      -0.194199        -5.2844
  73   2.0000      -0.178547        -4.8585
  74   2.0000      -0.169900        -4.6232
  75   2.0000      -0.163255        -4.4424
  76   2.0000      -0.155596        -4.2340
  77   2.0000      -0.145403        -3.9566
  78   2.0000      -0.141748        -3.8571
  79   2.0000      -0.136717        -3.7203
  80   2.0000      -0.134775        -3.6674
  81   2.0000      -0.125081        -3.4036
  82   0.0000       0.043986         1.1969
  83   0.0000       0.056903         1.5484
  84   0.0000       0.077312         2.1038
  85   0.0000       0.099499         2.7075
  86   0.0000       0.129413         3.5215

MULLIKEN ATOMIC CHARGES
-----------------------
   0 Pd:    0.102511
   1 Cl:   -0.299215
   2 Cl:   -0.485994
   3 Cl:   -0.401305
   4 N :   -0.532580
   5 C :    0.048676
   6 C :   -0.313546
   7 C :   -0.155904
   8 C :    0.332904
   9 C :    0.037393
  10 H :    0.211685
  11 H :    0.277362
  12 H :    0.220888
  13 C :    0.075038
  14 C :   -0.290726
  15 C :   -0.272451
  16 C :    0.104796
  17 H :    0.199348
  18 H :    0.198102
  19 C :   -0.281938
  20 C :   -0.297101
  21 C :   -0.212740
  22 C :   -0.212847
  23 H :    0.195911
  24 H :    0.198755
  25 H :    0.313778
  26 H :    0.239198
Sum of atomic charges:   -1.0000000

LOEWDIN ATOMIC CHARGES
----------------------
   0 Pd:   -0.911459
   1 Cl:   -0.021374
   2 Cl:   -0.310101
   3 Cl:   -0.150581
   4 N :    0.028011
   5 C :    0.013851
   6 C :   -0.162490
   7 C :   -0.088765
   8 C :    0.089947
   9 C :   -0.048136
  10 H :    0.135794
  11 H :    0.164116
  12 H :    0.141004
  13 C :   -0.016241
  14 C :   -0.138724
  15 C :   -0.119285
  16 C :   -0.024355
  17 H :    0.131878
  18 H :    0.133198
  19 C :   -0.080595
  20 C :   -0.142384
  21 C :   -0.124846
  22 C :   -0.131911
  23 H :    0.128934
  24 H :    0.127988
  25 H :    0.231863
  26 H :    0.144662

  Mayer bond orders larger than 0.100000
B(  0-Pd,  1-Cl) :   0.9827 B(  0-Pd,  2-Cl) :   0.6440 B(  0-Pd,  3-Cl) :   0.8177
B(  0-Pd,  4-N ) :   0.3221 B(  2-Cl, 25-H ) :   0.1183 B(  4-N ,  5-C ) :   1.4775
B(  4-N ,  8-C ) :   1.2436 B(  5-C ,  6-C ) :   1.3215 B(  5-C , 11-H ) :   0.8963
B(  6-C ,  7-C ) :   1.4584 B(  6-C , 12-H ) :   0.9186 B(  7-C ,  9-C ) :   1.2845
B(  7-C , 10-H ) :   0.9280 B(  8-C ,  9-C ) :   1.2172 B(  8-C , 13-C ) :   1.0873
B(  9-C , 14-C ) :   1.1640 B( 13-C , 16-C ) :   1.3102 B( 13-C , 19-C ) :   1.2331
B( 14-C , 15-C ) :   1.6448 B( 14-C , 17-H ) :   0.9280 B( 15-C , 16-C ) :   1.1438
B( 15-C , 18-H ) :   0.9286 B( 16-C , 20-C ) :   1.2731 B( 19-C , 21-C ) :   1.4777
B( 19-C , 25-H ) :   0.7829 B( 20-C , 22-C ) :   1.4906 B( 20-C , 23-H ) :   0.9303
B( 21-C , 22-C ) :   1.3469 B( 21-C , 26-H ) :   0.9110 B( 22-C , 24-H ) :   0.9250

Dispersion correction           -0.024383744
FINAL SINGLE POINT ENERGY     -2061.500870495012
Dispersion correction            ... done

DIPOLE MOMENT
-------------
                                X             Y             Z
Electronic contribution:    -87.23240     -70.22616      36.02770
Nuclear contribution   :     90.75250      74.00637     -36.14864
                        -----------------------------------------
Total Dipole Moment    :      3.52009       3.78021      -0.12094
                        -----------------------------------------
Magnitude (a.u.)       :      5.16679
Magnitude (Debye)      :     13.13293

Rotational constants in cm-1:     0.012271     0.007375     0.005835
Rotational constants in MHz :   367.879706   221.108965   174.936355

                             ****ORCA TERMINATED NORMALLY****
TOTAL RUN TIME: 0 days 0 hours 13 minutes 23 seconds 127 msec
