                         Program Version 5.0.3 -  RELEASE  -
|  1> ! EnGrad PBEh-3c
|  2> %output
|  3> xyzfile=True
|  4> end
|  5> %scf
|  6> maxiter 250
|  7> end
|  8> %output
|  9> Print[P_Hirshfeld] = 1
| 10> end
| 11> % maxcore
| 12> 4000
| 13> *xyz -1 1
| 14> Pd  -2.12600941  -1.89763316   0.79077219
| 15> Cl  -3.52636415  -3.36497656  -0.21610736
| 16> Cl  -0.72346559  -4.14885110   1.19639282
| 17> Cl  -3.91871154  -0.32036528   0.84296013
| 18> N   -0.95542536  -0.16688637   1.47593699
| 19> C   -1.30991333   0.45014492   2.58725631
| 20> C   -0.78092392   1.69718670   2.99112511
| 21> C    0.07355409   2.33884492   2.15470447
| 22> C   -0.06588940   0.41657196   0.65166663
| 23> C    0.44287139   1.73443784   0.93761220
| 24> H    0.49372385   3.32197084   2.42000588
| 25> H   -1.99748177  -0.07512529   3.22778829
| 26> H   -1.09138588   2.11885171   3.94426008
| 27> C    0.40730943  -0.34498104  -0.52839565
| 28> C    1.33153940   2.39784236   0.06645866
| 29> C    1.66407489   1.78507104  -1.11168776
| 30> C    1.17615630   0.47421225  -1.39447976
| 31> H    1.75032061   3.38461349   0.32492666
| 32> H    2.34766258   2.28670482  -1.77984478
| 33> C    0.07859928  -1.64905327  -0.82940001
| 34> C    1.63243093  -0.08243551  -2.65986460
| 35> C    0.38218087  -2.12601725  -2.17617621
| 36> C    1.16341156  -1.30214873  -2.99248019
| 37> H    2.33305645   0.47392362  -3.25336202
| 38> H    1.54168660  -1.78145508  -3.90112979
| 39> H   -0.29406602  -2.58364882  -0.24885143
| 40> H   -0.02671034  -3.04011246  -2.51078276
| 41> *
| 42>
| 43>                          ****END OF INPUT****

CARTESIAN COORDINATES (ANGSTROEM)
---------------------------------
  Pd    -2.126009   -1.897633    0.790772
  Cl    -3.526364   -3.364977   -0.216107
  Cl    -0.723466   -4.148851    1.196393
  Cl    -3.918712   -0.320365    0.842960
  N     -0.955425   -0.166886    1.475937
  C     -1.309913    0.450145    2.587256
  C     -0.780924    1.697187    2.991125
  C      0.073554    2.338845    2.154704
  C     -0.065889    0.416572    0.651667
  C      0.442871    1.734438    0.937612
  H      0.493724    3.321971    2.420006
  H     -1.997482   -0.075125    3.227788
  H     -1.091386    2.118852    3.944260
  C      0.407309   -0.344981   -0.528396
  C      1.331539    2.397842    0.066459
  C      1.664075    1.785071   -1.111688
  C      1.176156    0.474212   -1.394480
  H      1.750321    3.384613    0.324927
  H      2.347663    2.286705   -1.779845
  C      0.078599   -1.649053   -0.829400
  C      1.632431   -0.082436   -2.659865
  C      0.382181   -2.126017   -2.176176
  C      1.163412   -1.302149   -2.992480
  H      2.333056    0.473924   -3.253362
  H      1.541687   -1.781455   -3.901130
  H     -0.294066   -2.583649   -0.248851
  H     -0.026710   -3.040112   -2.510783

 Total Charge           Charge          ....   -1
 Multiplicity           Mult            ....    1
 Number of Electrons    NEL             ....  164
 Basis Dimension        Dim             ....  313

ORBITAL ENERGIES
----------------

  NO   OCC          E(Eh)            E(eV)
   0   2.0000    -102.089561     -2777.9982
   1   2.0000    -102.085627     -2777.8911
   2   2.0000    -102.059724     -2777.1863
   3   2.0000     -14.595409      -397.1613
   4   2.0000     -10.424604      -283.6679
   5   2.0000     -10.411304      -283.3060
   6   2.0000     -10.396748      -282.9099
   7   2.0000     -10.393810      -282.8300
   8   2.0000     -10.385393      -282.6009
   9   2.0000     -10.383725      -282.5555
  10   2.0000     -10.383001      -282.5358
  11   2.0000     -10.382194      -282.5139
  12   2.0000     -10.382154      -282.5128
  13   2.0000     -10.366662      -282.0912
  14   2.0000     -10.361617      -281.9539
  15   2.0000     -10.361036      -281.9381
  16   2.0000     -10.360598      -281.9262
  17   2.0000      -9.552733      -259.9431
  18   2.0000      -9.550096      -259.8713
  19   2.0000      -9.522439      -259.1187
  20   2.0000      -7.238889      -196.9802
  21   2.0000      -7.236827      -196.9241
  22   2.0000      -7.233721      -196.8396
  23   2.0000      -7.233424      -196.8315
  24   2.0000      -7.230697      -196.7573
  25   2.0000      -7.230122      -196.7416
  26   2.0000      -7.207580      -196.1282
  27   2.0000      -7.204224      -196.0369
  28   2.0000      -7.203640      -196.0210
  29   2.0000      -3.514477       -95.6338
  30   2.0000      -2.164280       -58.8930
  31   2.0000      -2.154707       -58.6326
  32   2.0000      -2.126485       -57.8646
  33   2.0000      -0.990012       -26.9396
  34   2.0000      -0.889894       -24.2153
  35   2.0000      -0.853765       -23.2321
  36   2.0000      -0.818275       -22.2664
  37   2.0000      -0.784024       -21.3344
  38   2.0000      -0.752629       -20.4801
  39   2.0000      -0.729562       -19.8524
  40   2.0000      -0.680845       -18.5267
  41   2.0000      -0.670119       -18.2349
  42   2.0000      -0.650904       -17.7120
  43   2.0000      -0.646843       -17.6015
  44   2.0000      -0.642517       -17.4838
  45   2.0000      -0.618862       -16.8401
  46   2.0000      -0.585789       -15.9401
  47   2.0000      -0.536679       -14.6038
  48   2.0000      -0.524078       -14.2609
  49   2.0000      -0.501827       -13.6554
  50   2.0000      -0.474312       -12.9067
  51   2.0000      -0.466978       -12.7071
  52   2.0000      -0.440259       -11.9801
  53   2.0000      -0.418393       -11.3850
  54   2.0000      -0.409870       -11.1531
  55   2.0000      -0.407960       -11.1011
  56   2.0000      -0.399800       -10.8791
  57   2.0000      -0.392108       -10.6698
  58   2.0000      -0.374540       -10.1917
  59   2.0000      -0.351793        -9.5728
  60   2.0000      -0.347516        -9.4564
  61   2.0000      -0.335691        -9.1346
  62   2.0000      -0.311626        -8.4798
  63   2.0000      -0.300101        -8.1662
  64   2.0000      -0.287772        -7.8307
  65   2.0000      -0.269704        -7.3390
  66   2.0000      -0.256878        -6.9900
  67   2.0000      -0.245500        -6.6804
  68   2.0000      -0.232882        -6.3370
  69   2.0000      -0.231481        -6.2989
  70   2.0000      -0.220527        -6.0008
  71   2.0000      -0.218525        -5.9464
  72   2.0000      -0.198502        -5.4015
  73   2.0000      -0.175937        -4.7875
  74   2.0000      -0.167250        -4.5511
  75   2.0000      -0.164287        -4.4705
  76   2.0000      -0.157953        -4.2981
  77   2.0000      -0.150455        -4.0941
  78   2.0000      -0.142293        -3.8720
  79   2.0000      -0.138484        -3.7683
  80   2.0000      -0.136027        -3.7015
  81   2.0000      -0.123969        -3.3734
  82   0.0000       0.040826         1.1109
  83   0.0000       0.058151         1.5824
  84   0.0000       0.062383         1.6975
  85   0.0000       0.093642         2.5481
  86   0.0000       0.131179         3.5696

MULLIKEN ATOMIC CHARGES
-----------------------
   0 Pd:    0.139997
   1 Cl:   -0.300318
   2 Cl:   -0.501862
   3 Cl:   -0.401927
   4 N :   -0.529374
   5 C :    0.043679
   6 C :   -0.319125
   7 C :   -0.155689
   8 C :    0.287533
   9 C :    0.061079
  10 H :    0.209931
  11 H :    0.278161
  12 H :    0.220679
  13 C :    0.136919
  14 C :   -0.313479
  15 C :   -0.255546
  16 C :    0.061064
  17 H :    0.198312
  18 H :    0.202376
  19 C :   -0.305110
  20 C :   -0.270744
  21 C :   -0.223136
  22 C :   -0.217355
  23 H :    0.199089
  24 H :    0.187641
  25 H :    0.310262
  26 H :    0.256942
Sum of atomic charges:   -1.0000000

LOEWDIN ATOMIC CHARGES
----------------------
   0 Pd:   -0.848549
   1 Cl:   -0.032207
   2 Cl:   -0.346581
   3 Cl:   -0.151862
   4 N :    0.021072
   5 C :    0.012486
   6 C :   -0.166339
   7 C :   -0.088918
   8 C :    0.091602
   9 C :   -0.053169
  10 H :    0.135434
  11 H :    0.163175
  12 H :    0.141032
  13 C :   -0.026862
  14 C :   -0.140026
  15 C :   -0.122996
  16 C :   -0.020797
  17 H :    0.131599
  18 H :    0.134224
  19 C :   -0.079241
  20 C :   -0.143756
  21 C :   -0.111393
  22 C :   -0.136291
  23 H :    0.129706
  24 H :    0.124623
  25 H :    0.231547
  26 H :    0.152488

  Mayer bond orders larger than 0.100000
B(  0-Pd,  1-Cl) :   0.9680 B(  0-Pd,  2-Cl) :   0.5820 B(  0-Pd,  3-Cl) :   0.8004
B(  0-Pd,  4-N ) :   0.3243 B(  2-Cl, 25-H ) :   0.1574 B(  4-N ,  5-C ) :   1.4841
B(  4-N ,  8-C ) :   1.2396 B(  5-C ,  6-C ) :   1.3102 B(  5-C , 11-H ) :   0.8928
B(  6-C ,  7-C ) :   1.4678 B(  6-C , 12-H ) :   0.9186 B(  7-C ,  9-C ) :   1.2713
B(  7-C , 10-H ) :   0.9288 B(  8-C ,  9-C ) :   1.2188 B(  8-C , 13-C ) :   1.0849
B(  9-C , 14-C ) :   1.1689 B( 13-C , 16-C ) :   1.2698 B( 13-C , 19-C ) :   1.1993
B( 14-C , 15-C ) :   1.6163 B( 14-C , 17-H ) :   0.9294 B( 15-C , 16-C ) :   1.1662
B( 15-C , 18-H ) :   0.9270 B( 16-C , 20-C ) :   1.2746 B( 19-C , 21-C ) :   1.4513
B( 19-C , 25-H ) :   0.7425 B( 20-C , 22-C ) :   1.4909 B( 20-C , 23-H ) :   0.9270
B( 21-C , 22-C ) :   1.3555 B( 21-C , 26-H ) :   0.9034 B( 22-C , 24-H ) :   0.9275

Dispersion correction           -0.024402071
FINAL SINGLE POINT ENERGY     -2061.472524576218
Dispersion correction            ... done

DIPOLE MOMENT
-------------
                                X             Y             Z
Electronic contribution:    -82.58110     -71.76562      34.37995
Nuclear contribution   :     85.79516      75.83159     -34.49042
                        -----------------------------------------
Total Dipole Moment    :      3.21407       4.06596      -0.11047
                        -----------------------------------------
Magnitude (a.u.)       :      5.18406
Magnitude (Debye)      :     13.17684

Rotational constants in cm-1:     0.012027     0.007573     0.005695
Rotational constants in MHz :   360.572858   227.034534   170.742214

                             ****ORCA TERMINATED NORMALLY****
TOTAL RUN TIME: 0 days 0 hours 11 minutes 52 seconds 86 msec
