                         Program Version 5.0.3 -  RELEASE  -
|  1> ! EnGrad PBEh-3c
|  2> %output
|  3> xyzfile=True
|  4> end
|  5> %scf
|  6> maxiter 250
|  7> end
|  8> %output
|  9> Print[P_Hirshfeld] = 1
| 10> end
| 11> % maxcore
| 12> 4000
| 13> *xyz -1 1
| 14> Pd  -2.21260171  -1.84801229   0.81589342
| 15> Cl  -3.68850569  -3.25336781  -0.10215943
| 16> Cl  -0.94530480  -4.04277790   1.46412606
| 17> Cl  -3.78213466  -0.11604425   0.49920662
| 18> N   -0.94129998  -0.20140434   1.45994449
| 19> C   -1.25716886   0.37501537   2.60251037
| 20> C   -0.74585946   1.61040790   3.01995693
| 21> C    0.07926804   2.29203790   2.17166697
| 22> C   -0.06906678   0.40401139   0.63034912
| 23> C    0.43046963   1.71191022   0.94211309
| 24> H    0.47353502   3.27064803   2.44356529
| 25> H   -1.93567013  -0.17402287   3.23539576
| 26> H   -1.04113767   2.01306853   3.97956118
| 27> C    0.38288970  -0.32392143  -0.55557235
| 28> C    1.28852244   2.40476119   0.04205128
| 29> C    1.61019025   1.81642864  -1.13364173
| 30> C    1.15571477   0.48301274  -1.44641915
| 31> H    1.66569765   3.39526680   0.30715045
| 32> H    2.26388741   2.35551462  -1.82492020
| 33> C    0.13190437  -1.67708598  -0.85284243
| 34> C    1.62624057  -0.06069281  -2.67172237
| 35> C    0.46241476  -2.11814518  -2.13587866
| 36> C    1.22374051  -1.32372629  -3.00126605
| 37> H    2.28504092   0.51522995  -3.32451037
| 38> H    1.61226012  -1.77960490  -3.90644931
| 39> H   -0.22491632  -2.63316494  -0.20937245
| 40> H    0.15557814  -3.09537237  -2.44464519
| 41> *
| 42>
| 43>                          ****END OF INPUT****

CARTESIAN COORDINATES (ANGSTROEM)
---------------------------------
  Pd    -2.212602   -1.848012    0.815893
  Cl    -3.688506   -3.253368   -0.102159
  Cl    -0.945305   -4.042778    1.464126
  Cl    -3.782135   -0.116044    0.499207
  N     -0.941300   -0.201404    1.459944
  C     -1.257169    0.375015    2.602510
  C     -0.745859    1.610408    3.019957
  C      0.079268    2.292038    2.171667
  C     -0.069067    0.404011    0.630349
  C      0.430470    1.711910    0.942113
  H      0.473535    3.270648    2.443565
  H     -1.935670   -0.174023    3.235396
  H     -1.041138    2.013069    3.979561
  C      0.382890   -0.323921   -0.555572
  C      1.288522    2.404761    0.042051
  C      1.610190    1.816429   -1.133642
  C      1.155715    0.483013   -1.446419
  H      1.665698    3.395267    0.307150
  H      2.263887    2.355515   -1.824920
  C      0.131904   -1.677086   -0.852842
  C      1.626241   -0.060693   -2.671722
  C      0.462415   -2.118145   -2.135879
  C      1.223741   -1.323726   -3.001266
  H      2.285041    0.515230   -3.324510
  H      1.612260   -1.779605   -3.906449
  H     -0.224916   -2.633165   -0.209372
  H      0.155578   -3.095372   -2.444645

 Total Charge           Charge          ....   -1
 Multiplicity           Mult            ....    1
 Number of Electrons    NEL             ....  164
 Basis Dimension        Dim             ....  313

ORBITAL ENERGIES
----------------

  NO   OCC          E(Eh)            E(eV)
   0   2.0000    -102.085526     -2777.8884
   1   2.0000    -102.081280     -2777.7728
   2   2.0000    -102.063736     -2777.2954
   3   2.0000     -14.593125      -397.0991
   4   2.0000     -10.422317      -283.6057
   5   2.0000     -10.408530      -283.2305
   6   2.0000     -10.395517      -282.8764
   7   2.0000     -10.393196      -282.8132
   8   2.0000     -10.385795      -282.6119
   9   2.0000     -10.385294      -282.5982
  10   2.0000     -10.382961      -282.5347
  11   2.0000     -10.381117      -282.4846
  12   2.0000     -10.380519      -282.4683
  13   2.0000     -10.368191      -282.1328
  14   2.0000     -10.364101      -282.0215
  15   2.0000     -10.363496      -282.0051
  16   2.0000     -10.355999      -281.8011
  17   2.0000      -9.548950      -259.8401
  18   2.0000      -9.546232      -259.7662
  19   2.0000      -9.526210      -259.2214
  20   2.0000      -7.235051      -196.8757
  21   2.0000      -7.232862      -196.8162
  22   2.0000      -7.229961      -196.7372
  23   2.0000      -7.229641      -196.7285
  24   2.0000      -7.226829      -196.6520
  25   2.0000      -7.226275      -196.6369
  26   2.0000      -7.211448      -196.2335
  27   2.0000      -7.207958      -196.1385
  28   2.0000      -7.207423      -196.1239
  29   2.0000      -3.510044       -95.5131
  30   2.0000      -2.159633       -58.7666
  31   2.0000      -2.150703       -58.5236
  32   2.0000      -2.121739       -57.7354
  33   2.0000      -0.989555       -26.9272
  34   2.0000      -0.890589       -24.2341
  35   2.0000      -0.853935       -23.2367
  36   2.0000      -0.819534       -22.3007
  37   2.0000      -0.784824       -21.3561
  38   2.0000      -0.750831       -20.4311
  39   2.0000      -0.734604       -19.9896
  40   2.0000      -0.679593       -18.4927
  41   2.0000      -0.667350       -18.1595
  42   2.0000      -0.650206       -17.6930
  43   2.0000      -0.647420       -17.6172
  44   2.0000      -0.645817       -17.5736
  45   2.0000      -0.616761       -16.7829
  46   2.0000      -0.586661       -15.9639
  47   2.0000      -0.536624       -14.6023
  48   2.0000      -0.524678       -14.2772
  49   2.0000      -0.501668       -13.6511
  50   2.0000      -0.470710       -12.8087
  51   2.0000      -0.468159       -12.7393
  52   2.0000      -0.437757       -11.9120
  53   2.0000      -0.418866       -11.3979
  54   2.0000      -0.410420       -11.1681
  55   2.0000      -0.405964       -11.0469
  56   2.0000      -0.397948       -10.8287
  57   2.0000      -0.392680       -10.6854
  58   2.0000      -0.376170       -10.2361
  59   2.0000      -0.349949        -9.5226
  60   2.0000      -0.347788        -9.4638
  61   2.0000      -0.325157        -8.8480
  62   2.0000      -0.312929        -8.5152
  63   2.0000      -0.300931        -8.1887
  64   2.0000      -0.295939        -8.0529
  65   2.0000      -0.270677        -7.3655
  66   2.0000      -0.254952        -6.9376
  67   2.0000      -0.247038        -6.7222
  68   2.0000      -0.234256        -6.3744
  69   2.0000      -0.228875        -6.2280
  70   2.0000      -0.219806        -5.9812
  71   2.0000      -0.217084        -5.9072
  72   2.0000      -0.195142        -5.3101
  73   2.0000      -0.177167        -4.8210
  74   2.0000      -0.169147        -4.6027
  75   2.0000      -0.163732        -4.4554
  76   2.0000      -0.156413        -4.2562
  77   2.0000      -0.146506        -3.9866
  78   2.0000      -0.140358        -3.8193
  79   2.0000      -0.137525        -3.7423
  80   2.0000      -0.135532        -3.6880
  81   2.0000      -0.124690        -3.3930
  82   0.0000       0.044069         1.1992
  83   0.0000       0.057015         1.5515
  84   0.0000       0.075313         2.0494
  85   0.0000       0.098142         2.6706
  86   0.0000       0.130229         3.5437

MULLIKEN ATOMIC CHARGES
-----------------------
   0 Pd:    0.108191
   1 Cl:   -0.300065
   2 Cl:   -0.489100
   3 Cl:   -0.396958
   4 N :   -0.531641
   5 C :    0.047649
   6 C :   -0.315109
   7 C :   -0.155792
   8 C :    0.321285
   9 C :    0.043058
  10 H :    0.211187
  11 H :    0.277326
  12 H :    0.220702
  13 C :    0.090760
  14 C :   -0.296879
  15 C :   -0.268514
  16 C :    0.095029
  17 H :    0.199006
  18 H :    0.199130
  19 C :   -0.287459
  20 C :   -0.291427
  21 C :   -0.217341
  22 C :   -0.213490
  23 H :    0.196525
  24 H :    0.195746
  25 H :    0.314017
  26 H :    0.244163
Sum of atomic charges:   -1.0000000

LOEWDIN ATOMIC CHARGES
----------------------
   0 Pd:   -0.903837
   1 Cl:   -0.024590
   2 Cl:   -0.317674
   3 Cl:   -0.142364
   4 N :    0.026616
   5 C :    0.013580
   6 C :   -0.163447
   7 C :   -0.088928
   8 C :    0.090487
   9 C :   -0.049415
  10 H :    0.135680
  11 H :    0.163706
  12 H :    0.140942
  13 C :   -0.019325
  14 C :   -0.139158
  15 C :   -0.120190
  16 C :   -0.023452
  17 H :    0.131753
  18 H :    0.133452
  19 C :   -0.080579
  20 C :   -0.143009
  21 C :   -0.121857
  22 C :   -0.132971
  23 H :    0.129052
  24 H :    0.127035
  25 H :    0.231997
  26 H :    0.146494

  Mayer bond orders larger than 0.100000
B(  0-Pd,  1-Cl) :   0.9790 B(  0-Pd,  2-Cl) :   0.6300 B(  0-Pd,  3-Cl) :   0.8199
B(  0-Pd,  4-N ) :   0.3225 B(  2-Cl, 25-H ) :   0.1278 B(  4-N ,  5-C ) :   1.4799
B(  4-N ,  8-C ) :   1.2427 B(  5-C ,  6-C ) :   1.3186 B(  5-C , 11-H ) :   0.8958
B(  6-C ,  7-C ) :   1.4609 B(  6-C , 12-H ) :   0.9186 B(  7-C ,  9-C ) :   1.2811
B(  7-C , 10-H ) :   0.9283 B(  8-C ,  9-C ) :   1.2175 B(  8-C , 13-C ) :   1.0860
B(  9-C , 14-C ) :   1.1655 B( 13-C , 16-C ) :   1.3015 B( 13-C , 19-C ) :   1.2249
B( 14-C , 15-C ) :   1.6378 B( 14-C , 17-H ) :   0.9284 B( 15-C , 16-C ) :   1.1491
B( 15-C , 18-H ) :   0.9283 B( 16-C , 20-C ) :   1.2745 B( 19-C , 21-C ) :   1.4717
B( 19-C , 25-H ) :   0.7739 B( 20-C , 22-C ) :   1.4904 B( 20-C , 23-H ) :   0.9296
B( 21-C , 22-C ) :   1.3500 B( 21-C , 26-H ) :   0.9090 B( 22-C , 24-H ) :   0.9259

Dispersion correction           -0.024401915
FINAL SINGLE POINT ENERGY     -2061.498237718395
Dispersion correction            ... done

DIPOLE MOMENT
-------------
                                X             Y             Z
Electronic contribution:    -86.08645     -70.60609      35.62108
Nuclear contribution   :     89.51786      74.46095     -35.73566
                        -----------------------------------------
Total Dipole Moment    :      3.43140       3.85486      -0.11457
                        -----------------------------------------
Magnitude (a.u.)       :      5.16213
Magnitude (Debye)      :     13.12109

Rotational constants in cm-1:     0.012230     0.007432     0.005808
Rotational constants in MHz :   366.651095   222.811702   174.105085

                             ****ORCA TERMINATED NORMALLY****
TOTAL RUN TIME: 0 days 0 hours 12 minutes 46 seconds 779 msec
