                         Program Version 5.0.3 -  RELEASE  -
|  1> ! EnGrad PBEh-3c
|  2> %output
|  3> xyzfile=True
|  4> end
|  5> %scf
|  6> maxiter 250
|  7> end
|  8> %output
|  9> Print[P_Hirshfeld] = 1
| 10> end
| 11> % maxcore
| 12> 4000
| 13> *xyz -1 1
| 14> Pd  -2.04858456  -1.51770177   0.55548141
| 15> Cl  -3.12379475  -3.30398875  -0.49813376
| 16> Cl   0.11659979  -5.17056627   0.56856797
| 17> Cl  -3.98172007  -1.21690800   1.75787514
| 18> N   -1.06072036   0.12145394   1.37045112
| 19> C   -1.41840081   0.71351134   2.49568286
| 20> C   -0.86582747   1.92231749   2.92698360
| 21> C    0.09639036   2.52119402   2.14990525
| 22> C   -0.10087346   0.67711792   0.59914571
| 23> C    0.49964973   1.89964722   0.96009146
| 24> H    0.53835532   3.46189872   2.45786196
| 25> H   -2.13680152   0.18066852   3.10409485
| 26> H   -1.19507716   2.37059185   3.85337771
| 27> C    0.29556724  -0.02520272  -0.57973441
| 28> C    1.49186033   2.45677561   0.09246238
| 29> C    1.84979981   1.81505482  -1.04576735
| 30> C    1.27469246   0.55560996  -1.41259979
| 31> H    1.95119471   3.40166441   0.35597828
| 32> H    2.60048602   2.25836311  -1.69011164
| 33> C   -0.29144101  -1.27345130  -0.87860640
| 34> C    1.66754994  -0.12772337  -2.57222814
| 35> C    0.10292091  -1.90165180  -2.04687599
| 36> C    1.09768202  -1.34775858  -2.86240343
| 37> H    2.41596471   0.29987966  -3.22820215
| 38> H    1.41384145  -1.86901335  -3.75602734
| 39> H   -0.78789330  -4.10362024  -0.31183246
| 40> H   -0.40142261  -2.79816246  -2.36543915
| 41> *
| 42>
| 43>                          ****END OF INPUT****

CARTESIAN COORDINATES (ANGSTROEM)
---------------------------------
  Pd    -2.048585   -1.517702    0.555481
  Cl    -3.123795   -3.303989   -0.498134
  Cl     0.116600   -5.170566    0.568568
  Cl    -3.981720   -1.216908    1.757875
  N     -1.060720    0.121454    1.370451
  C     -1.418401    0.713511    2.495683
  C     -0.865827    1.922317    2.926984
  C      0.096390    2.521194    2.149905
  C     -0.100873    0.677118    0.599146
  C      0.499650    1.899647    0.960091
  H      0.538355    3.461899    2.457862
  H     -2.136802    0.180669    3.104095
  H     -1.195077    2.370592    3.853378
  C      0.295567   -0.025203   -0.579734
  C      1.491860    2.456776    0.092462
  C      1.849800    1.815055   -1.045767
  C      1.274692    0.555610   -1.412600
  H      1.951195    3.401664    0.355978
  H      2.600486    2.258363   -1.690112
  C     -0.291441   -1.273451   -0.878606
  C      1.667550   -0.127723   -2.572228
  C      0.102921   -1.901652   -2.046876
  C      1.097682   -1.347759   -2.862403
  H      2.415965    0.299880   -3.228202
  H      1.413841   -1.869013   -3.756027
  H     -0.787893   -4.103620   -0.311832
  H     -0.401423   -2.798162   -2.365439

 Total Charge           Charge          ....   -1
 Multiplicity           Mult            ....    1
 Number of Electrons    NEL             ....  164
 Basis Dimension        Dim             ....  313

ORBITAL ENERGIES
----------------

  NO   OCC          E(Eh)            E(eV)
   0   2.0000    -102.151123     -2779.6734
   1   2.0000    -102.096827     -2778.1959
   2   2.0000    -102.079355     -2777.7205
   3   2.0000     -14.596094      -397.1799
   4   2.0000     -10.407901      -283.2134
   5   2.0000     -10.403540      -283.0947
   6   2.0000     -10.393084      -282.8102
   7   2.0000     -10.385124      -282.5936
   8   2.0000     -10.377916      -282.3975
   9   2.0000     -10.373872      -282.2874
  10   2.0000     -10.372930      -282.2618
  11   2.0000     -10.366445      -282.0853
  12   2.0000     -10.353407      -281.7305
  13   2.0000     -10.351897      -281.6894
  14   2.0000     -10.350252      -281.6447
  15   2.0000     -10.334478      -281.2154
  16   2.0000     -10.333437      -281.1871
  17   2.0000      -9.613905      -261.6077
  18   2.0000      -9.560118      -260.1440
  19   2.0000      -9.543962      -259.7044
  20   2.0000      -7.301767      -198.6912
  21   2.0000      -7.293758      -198.4732
  22   2.0000      -7.293714      -198.4720
  23   2.0000      -7.245524      -197.1607
  24   2.0000      -7.241825      -197.0601
  25   2.0000      -7.240786      -197.0318
  26   2.0000      -7.229440      -196.7231
  27   2.0000      -7.225204      -196.6078
  28   2.0000      -7.224915      -196.5999
  29   2.0000      -3.511119       -95.5424
  30   2.0000      -2.157755       -58.7155
  31   2.0000      -2.152574       -58.5745
  32   2.0000      -2.122641       -57.7600
  33   2.0000      -0.989154       -26.9163
  34   2.0000      -0.881140       -23.9770
  35   2.0000      -0.844937       -22.9919
  36   2.0000      -0.811611       -22.0851
  37   2.0000      -0.776497       -21.1296
  38   2.0000      -0.738823       -20.1044
  39   2.0000      -0.731878       -19.9154
  40   2.0000      -0.715541       -19.4709
  41   2.0000      -0.685450       -18.6520
  42   2.0000      -0.671064       -18.2606
  43   2.0000      -0.645023       -17.5520
  44   2.0000      -0.638545       -17.3757
  45   2.0000      -0.608139       -16.5483
  46   2.0000      -0.569961       -15.5094
  47   2.0000      -0.526069       -14.3151
  48   2.0000      -0.513729       -13.9793
  49   2.0000      -0.493018       -13.4157
  50   2.0000      -0.457974       -12.4621
  51   2.0000      -0.456120       -12.4117
  52   2.0000      -0.428596       -11.6627
  53   2.0000      -0.409816       -11.1517
  54   2.0000      -0.405449       -11.0328
  55   2.0000      -0.402275       -10.9465
  56   2.0000      -0.382547       -10.4096
  57   2.0000      -0.373956       -10.1759
  58   2.0000      -0.353805        -9.6275
  59   2.0000      -0.339434        -9.2365
  60   2.0000      -0.334798        -9.1103
  61   2.0000      -0.317152        -8.6302
  62   2.0000      -0.312971        -8.5164
  63   2.0000      -0.300979        -8.1901
  64   2.0000      -0.291704        -7.9377
  65   2.0000      -0.262310        -7.1378
  66   2.0000      -0.258167        -7.0251
  67   2.0000      -0.250847        -6.8259
  68   2.0000      -0.234346        -6.3769
  69   2.0000      -0.222190        -6.0461
  70   2.0000      -0.221100        -6.0164
  71   2.0000      -0.218339        -5.9413
  72   2.0000      -0.217490        -5.9182
  73   2.0000      -0.210406        -5.7255
  74   2.0000      -0.182589        -4.9685
  75   2.0000      -0.176664        -4.8073
  76   2.0000      -0.166291        -4.5250
  77   2.0000      -0.155946        -4.2435
  78   2.0000      -0.151850        -4.1320
  79   2.0000      -0.148645        -4.0448
  80   2.0000      -0.145170        -3.9503
  81   2.0000      -0.133141        -3.6230
  82   0.0000       0.047164         1.2834
  83   0.0000       0.070080         1.9070
  84   0.0000       0.095653         2.6029
  85   0.0000       0.109071         2.9680
  86   0.0000       0.115418         3.1407

MULLIKEN ATOMIC CHARGES
-----------------------
   0 Pd:    0.170257
   1 Cl:   -0.372760
   2 Cl:   -0.375098
   3 Cl:   -0.417474
   4 N :   -0.576357
   5 C :    0.034084
   6 C :   -0.329738
   7 C :   -0.158553
   8 C :    0.409459
   9 C :    0.031419
  10 H :    0.209929
  11 H :    0.283201
  12 H :    0.219613
  13 C :    0.009710
  14 C :   -0.305451
  15 C :   -0.293643
  16 C :    0.133011
  17 H :    0.192903
  18 H :    0.194115
  19 C :   -0.078159
  20 C :   -0.324627
  21 C :   -0.354901
  22 C :   -0.193560
  23 H :    0.184919
  24 H :    0.191834
  25 H :    0.293908
  26 H :    0.221960
Sum of atomic charges:   -1.0000000

LOEWDIN ATOMIC CHARGES
----------------------
   0 Pd:   -0.805933
   1 Cl:   -0.106611
   2 Cl:   -0.307479
   3 Cl:   -0.148421
   4 N :    0.040629
   5 C :    0.002938
   6 C :   -0.172433
   7 C :   -0.089657
   8 C :    0.090189
   9 C :   -0.057358
  10 H :    0.134354
  11 H :    0.168245
  12 H :    0.139895
  13 C :   -0.038664
  14 C :   -0.145065
  15 C :   -0.116082
  16 C :   -0.035023
  17 H :    0.129095
  18 H :    0.129788
  19 C :   -0.037939
  20 C :   -0.159784
  21 C :   -0.142245
  22 C :   -0.124453
  23 H :    0.123435
  24 H :    0.125134
  25 H :    0.262816
  26 H :    0.140629

  Mayer bond orders larger than 0.100000
B(  0-Pd,  1-Cl) :   0.7764 B(  0-Pd,  3-Cl) :   0.7737 B(  0-Pd,  4-N ) :   0.4124
B(  0-Pd, 19-C ) :   0.6356 B(  1-Cl, 25-H ) :   0.1193 B(  2-Cl, 25-H ) :   0.7725
B(  3-Cl, 19-C ) :   0.1026 B(  4-N ,  5-C ) :   1.4774 B(  4-N ,  8-C ) :   1.1406
B(  5-C ,  6-C ) :   1.3122 B(  5-C , 11-H ) :   0.8711 B(  6-C ,  7-C ) :   1.4575
B(  6-C , 12-H ) :   0.9201 B(  7-C ,  9-C ) :   1.2777 B(  7-C , 10-H ) :   0.9293
B(  8-C ,  9-C ) :   1.2244 B(  8-C , 13-C ) :   1.1344 B(  9-C , 14-C ) :   1.1644
B( 13-C , 16-C ) :   1.2661 B( 13-C , 19-C ) :   1.2517 B( 14-C , 15-C ) :   1.6525
B( 14-C , 17-H ) :   0.9305 B( 15-C , 16-C ) :   1.1527 B( 15-C , 18-H ) :   0.9288
B( 16-C , 20-C ) :   1.2825 B( 19-C , 21-C ) :   1.4792 B( 20-C , 22-C ) :   1.4905
B( 20-C , 23-H ) :   0.9322 B( 21-C , 22-C ) :   1.3506 B( 21-C , 26-H ) :   0.9084
B( 22-C , 24-H ) :   0.9246

Dispersion correction           -0.023709081
FINAL SINGLE POINT ENERGY     -2061.468660597992
Dispersion correction            ... done

DIPOLE MOMENT
-------------
                                X             Y             Z
Electronic contribution:    -82.33476     -49.00690      22.58598
Nuclear contribution   :     85.08891      52.69643     -22.57133
                        -----------------------------------------
Total Dipole Moment    :      2.75415       3.68953       0.01465
                        -----------------------------------------
Magnitude (a.u.)       :      4.60415
Magnitude (Debye)      :     11.70281

Rotational constants in cm-1:     0.010612     0.007424     0.005216
Rotational constants in MHz :   318.145448   222.556865   156.382307

                             ****ORCA TERMINATED NORMALLY****
TOTAL RUN TIME: 0 days 0 hours 7 minutes 23 seconds 87 msec
