                         Program Version 5.0.3 -  RELEASE  -
|  1> ! EnGrad PBEh-3c
|  2> %output
|  3> xyzfile=True
|  4> end
|  5> %scf
|  6> maxiter 250
|  7> end
|  8> %output
|  9> Print[P_Hirshfeld] = 1
| 10> end
| 11> % maxcore
| 12> 4000
| 13> *xyz -1 1
| 14> Pd  -1.96581868  -1.51084010   0.46744162
| 15> Cl  -3.08830119  -3.30397240  -0.48853449
| 16> Cl  -0.03184593  -5.02046003   0.51256228
| 17> Cl  -4.00935078  -1.16071130   1.74218903
| 18> N   -1.07201008   0.10506086   1.37501209
| 19> C   -1.40470146   0.69003571   2.51342403
| 20> C   -0.85464699   1.90786664   2.92227289
| 21> C    0.08847232   2.50792721   2.14995626
| 22> C   -0.09746524   0.67184525   0.60308345
| 23> C    0.50460654   1.90426969   0.95846087
| 24> H    0.53889021   3.45507123   2.45335275
| 25> H   -2.13510866   0.17013531   3.10232484
| 26> H   -1.19056197   2.35459272   3.85985255
| 27> C    0.30904158  -0.04064818  -0.58923106
| 28> C    1.48400361   2.44862364   0.08415538
| 29> C    1.84049785   1.82176079  -1.04351144
| 30> C    1.28228688   0.56631405  -1.41758040
| 31> H    1.94030894   3.40317972   0.35545255
| 32> H    2.58949296   2.26273281  -1.69757012
| 33> C   -0.37498104  -1.28810624  -0.81551708
| 34> C    1.66594869  -0.13145317  -2.56950975
| 35> C    0.10987007  -1.88824054  -2.03547559
| 36> C    1.10716461  -1.33964429  -2.87459223
| 37> H    2.41452468   0.31080393  -3.23199928
| 38> H    1.42346622  -1.86751118  -3.76761537
| 39> H   -0.68714233  -4.20573098  -0.19312778
| 40> H   -0.38371479  -2.81981670  -2.37523068
| 41> *
| 42>
| 43>                          ****END OF INPUT****

CARTESIAN COORDINATES (ANGSTROEM)
---------------------------------
  Pd    -1.965819   -1.510840    0.467442
  Cl    -3.088301   -3.303972   -0.488534
  Cl    -0.031846   -5.020460    0.512562
  Cl    -4.009351   -1.160711    1.742189
  N     -1.072010    0.105061    1.375012
  C     -1.404701    0.690036    2.513424
  C     -0.854647    1.907867    2.922273
  C      0.088472    2.507927    2.149956
  C     -0.097465    0.671845    0.603083
  C      0.504607    1.904270    0.958461
  H      0.538890    3.455071    2.453353
  H     -2.135109    0.170135    3.102325
  H     -1.190562    2.354593    3.859853
  C      0.309042   -0.040648   -0.589231
  C      1.484004    2.448624    0.084155
  C      1.840498    1.821761   -1.043511
  C      1.282287    0.566314   -1.417580
  H      1.940309    3.403180    0.355453
  H      2.589493    2.262733   -1.697570
  C     -0.374981   -1.288106   -0.815517
  C      1.665949   -0.131453   -2.569510
  C      0.109870   -1.888241   -2.035476
  C      1.107165   -1.339644   -2.874592
  H      2.414525    0.310804   -3.231999
  H      1.423466   -1.867511   -3.767615
  H     -0.687142   -4.205731   -0.193128
  H     -0.383715   -2.819817   -2.375231

 Total Charge           Charge          ....   -1
 Multiplicity           Mult            ....    1
 Number of Electrons    NEL             ....  164
 Basis Dimension        Dim             ....  313

ORBITAL ENERGIES
----------------

  NO   OCC          E(Eh)            E(eV)
   0   2.0000    -102.158133     -2779.8641
   1   2.0000    -102.083053     -2777.8211
   2   2.0000    -102.063423     -2777.2869
   3   2.0000     -14.595771      -397.1711
   4   2.0000     -10.406604      -283.1781
   5   2.0000     -10.401350      -283.0351
   6   2.0000     -10.390102      -282.7291
   7   2.0000     -10.382108      -282.5115
   8   2.0000     -10.375777      -282.3392
   9   2.0000     -10.371544      -282.2241
  10   2.0000     -10.370637      -282.1994
  11   2.0000     -10.366020      -282.0737
  12   2.0000     -10.356265      -281.8083
  13   2.0000     -10.352757      -281.7128
  14   2.0000     -10.349820      -281.6329
  15   2.0000     -10.346326      -281.5378
  16   2.0000     -10.342899      -281.4446
  17   2.0000      -9.628116      -261.9944
  18   2.0000      -9.546879      -259.7838
  19   2.0000      -9.527032      -259.2437
  20   2.0000      -7.315280      -199.0589
  21   2.0000      -7.307675      -198.8519
  22   2.0000      -7.307607      -198.8501
  23   2.0000      -7.232571      -196.8083
  24   2.0000      -7.228142      -196.6877
  25   2.0000      -7.227687      -196.6754
  26   2.0000      -7.212224      -196.2546
  27   2.0000      -7.208571      -196.1552
  28   2.0000      -7.208291      -196.1476
  29   2.0000      -3.514916       -95.6457
  30   2.0000      -2.161162       -58.8082
  31   2.0000      -2.156432       -58.6795
  32   2.0000      -2.126404       -57.8624
  33   2.0000      -0.983950       -26.7746
  34   2.0000      -0.880040       -23.9471
  35   2.0000      -0.843535       -22.9538
  36   2.0000      -0.809387       -22.0245
  37   2.0000      -0.791418       -21.5356
  38   2.0000      -0.775436       -21.1007
  39   2.0000      -0.736190       -20.0327
  40   2.0000      -0.711463       -19.3599
  41   2.0000      -0.674088       -18.3429
  42   2.0000      -0.652629       -17.7589
  43   2.0000      -0.642954       -17.4957
  44   2.0000      -0.634733       -17.2720
  45   2.0000      -0.604190       -16.4409
  46   2.0000      -0.568014       -15.4565
  47   2.0000      -0.526074       -14.3152
  48   2.0000      -0.510509       -13.8916
  49   2.0000      -0.491184       -13.3658
  50   2.0000      -0.457197       -12.4410
  51   2.0000      -0.450664       -12.2632
  52   2.0000      -0.425541       -11.5796
  53   2.0000      -0.409002       -11.1295
  54   2.0000      -0.402875       -10.9628
  55   2.0000      -0.399854       -10.8806
  56   2.0000      -0.387400       -10.5417
  57   2.0000      -0.380314       -10.3489
  58   2.0000      -0.370080       -10.0704
  59   2.0000      -0.347206        -9.4480
  60   2.0000      -0.338852        -9.2206
  61   2.0000      -0.334122        -9.0919
  62   2.0000      -0.311606        -8.4792
  63   2.0000      -0.300882        -8.1874
  64   2.0000      -0.283543        -7.7156
  65   2.0000      -0.264318        -7.1925
  66   2.0000      -0.261775        -7.1232
  67   2.0000      -0.245095        -6.6694
  68   2.0000      -0.242950        -6.6110
  69   2.0000      -0.242251        -6.5920
  70   2.0000      -0.236660        -6.4398
  71   2.0000      -0.216788        -5.8991
  72   2.0000      -0.212023        -5.7695
  73   2.0000      -0.206211        -5.6113
  74   2.0000      -0.180644        -4.9156
  75   2.0000      -0.178987        -4.8705
  76   2.0000      -0.164611        -4.4793
  77   2.0000      -0.154203        -4.1961
  78   2.0000      -0.147063        -4.0018
  79   2.0000      -0.142106        -3.8669
  80   2.0000      -0.135325        -3.6824
  81   2.0000      -0.129071        -3.5122
  82   0.0000       0.049504         1.3471
  83   0.0000       0.071103         1.9348
  84   0.0000       0.104388         2.8405
  85   0.0000       0.110035         2.9942
  86   0.0000       0.147590         4.0161

MULLIKEN ATOMIC CHARGES
-----------------------
   0 Pd:    0.185022
   1 Cl:   -0.390484
   2 Cl:   -0.354804
   3 Cl:   -0.466017
   4 N :   -0.577911
   5 C :    0.036198
   6 C :   -0.336040
   7 C :   -0.154087
   8 C :    0.371427
   9 C :    0.058438
  10 H :    0.206336
  11 H :    0.286796
  12 H :    0.218016
  13 C :   -0.007732
  14 C :   -0.305274
  15 C :   -0.280510
  16 C :    0.175845
  17 H :    0.189852
  18 H :    0.194084
  19 C :   -0.087425
  20 C :   -0.345966
  21 C :   -0.376557
  22 C :   -0.163626
  23 H :    0.180954
  24 H :    0.196126
  25 H :    0.330492
  26 H :    0.216851
Sum of atomic charges:   -1.0000000

LOEWDIN ATOMIC CHARGES
----------------------
   0 Pd:   -0.771289
   1 Cl:   -0.124653
   2 Cl:   -0.208785
   3 Cl:   -0.244045
   4 N :    0.039368
   5 C :    0.004014
   6 C :   -0.172818
   7 C :   -0.090126
   8 C :    0.095013
   9 C :   -0.060900
  10 H :    0.133172
  11 H :    0.168432
  12 H :    0.140248
  13 C :   -0.029101
  14 C :   -0.144366
  15 C :   -0.116517
  16 C :   -0.041616
  17 H :    0.128229
  18 H :    0.130844
  19 C :   -0.012850
  20 C :   -0.155421
  21 C :   -0.132164
  22 C :   -0.136028
  23 H :    0.120511
  24 H :    0.128735
  25 H :    0.212901
  26 H :    0.139212

  Mayer bond orders larger than 0.100000
B(  0-Pd,  1-Cl) :   0.8150 B(  0-Pd,  3-Cl) :   0.6975 B(  0-Pd,  4-N ) :   0.4202
B(  0-Pd, 19-C ) :   0.7659 B(  2-Cl, 25-H ) :   0.8133 B(  3-Cl, 19-C ) :   0.1020
B(  4-N ,  5-C ) :   1.4886 B(  4-N ,  8-C ) :   1.1211 B(  5-C ,  6-C ) :   1.3020
B(  5-C , 11-H ) :   0.8660 B(  6-C ,  7-C ) :   1.4611 B(  6-C , 12-H ) :   0.9211
B(  7-C ,  9-C ) :   1.2703 B(  7-C , 10-H ) :   0.9303 B(  8-C ,  9-C ) :   1.2385
B(  8-C , 13-C ) :   1.1545 B(  9-C , 14-C ) :   1.1617 B( 13-C , 16-C ) :   1.2352
B( 13-C , 19-C ) :   1.1847 B( 14-C , 15-C ) :   1.6455 B( 14-C , 17-H ) :   0.9309
B( 15-C , 16-C ) :   1.1546 B( 15-C , 18-H ) :   0.9283 B( 16-C , 20-C ) :   1.2817
B( 19-C , 21-C ) :   1.4288 B( 20-C , 22-C ) :   1.4828 B( 20-C , 23-H ) :   0.9314
B( 21-C , 22-C ) :   1.3451 B( 21-C , 26-H ) :   0.9125 B( 22-C , 24-H ) :   0.9250

Dispersion correction           -0.023731047
FINAL SINGLE POINT ENERGY     -2061.509442219713
Dispersion correction            ... done

DIPOLE MOMENT
-------------
                                X             Y             Z
Electronic contribution:    -77.15305     -49.74524      18.26933
Nuclear contribution   :     80.40669      52.94316     -18.25179
                        -----------------------------------------
Total Dipole Moment    :      3.25364       3.19793       0.01754
                        -----------------------------------------
Magnitude (a.u.)       :      4.56215
Magnitude (Debye)      :     11.59607

Rotational constants in cm-1:     0.010981     0.007616     0.005314
Rotational constants in MHz :   329.208418   228.335178   159.301547

                             ****ORCA TERMINATED NORMALLY****
TOTAL RUN TIME: 0 days 0 hours 7 minutes 45 seconds 640 msec
