                         Program Version 5.0.3 -  RELEASE  -
|  1> ! EnGrad PBEh-3c
|  2> %output
|  3> xyzfile=True
|  4> end
|  5> %scf
|  6> maxiter 250
|  7> end
|  8> %output
|  9> Print[P_Hirshfeld] = 1
| 10> end
| 11> % maxcore
| 12> 4000
| 13> *xyz -1 1
| 14> Pd  -1.95273693  -1.50626583   0.44625493
| 15> Cl  -3.07243607  -3.30305985  -0.48914481
| 16> Cl  -0.06311581  -4.99021103   0.51084056
| 17> Cl  -4.00918122  -1.14146574   1.73271369
| 18> N   -1.06428235   0.10468794   1.37075899
| 19> C   -1.40007925   0.68062092   2.51302718
| 20> C   -0.85744392   1.89977749   2.93101124
| 21> C    0.09442594   2.51215588   2.14649964
| 22> C   -0.09460896   0.67047297   0.60283273
| 23> C    0.49985369   1.89591064   0.95794640
| 24> H    0.53702070   3.45010216   2.45120521
| 25> H   -2.13801275   0.16494054   3.10396318
| 26> H   -1.18715844   2.34686472   3.85816386
| 27> C    0.29902502  -0.04424739  -0.57590131
| 28> C    1.48285376   2.45789004   0.09037122
| 29> C    1.84228924   1.82113481  -1.05233242
| 30> C    1.27935989   0.55807460  -1.41890891
| 31> H    1.93511456   3.40062250   0.35389622
| 32> H    2.58436951   2.26400389  -1.69904418
| 33> C   -0.37514843  -1.28871000  -0.82696212
| 34> C    1.67473615  -0.12216667  -2.57369822
| 35> C    0.09475679  -1.89312892  -2.02070174
| 36> C    1.10085977  -1.34172178  -2.86851473
| 37> H    2.41177387   0.31308664  -3.23113495
| 38> H    1.42544742  -1.86693024  -3.77032525
| 39> H   -0.67090058  -4.21971007  -0.16829641
| 40> H   -0.37219639  -2.81848606  -2.37485885
| 41> *
| 42>
| 43>                          ****END OF INPUT****

CARTESIAN COORDINATES (ANGSTROEM)
---------------------------------
  Pd    -1.952737   -1.506266    0.446255
  Cl    -3.072436   -3.303060   -0.489145
  Cl    -0.063116   -4.990211    0.510841
  Cl    -4.009181   -1.141466    1.732714
  N     -1.064282    0.104688    1.370759
  C     -1.400079    0.680621    2.513027
  C     -0.857444    1.899777    2.931011
  C      0.094426    2.512156    2.146500
  C     -0.094609    0.670473    0.602833
  C      0.499854    1.895911    0.957946
  H      0.537021    3.450102    2.451205
  H     -2.138013    0.164941    3.103963
  H     -1.187158    2.346865    3.858164
  C      0.299025   -0.044247   -0.575901
  C      1.482854    2.457890    0.090371
  C      1.842289    1.821135   -1.052332
  C      1.279360    0.558075   -1.418909
  H      1.935115    3.400622    0.353896
  H      2.584370    2.264004   -1.699044
  C     -0.375148   -1.288710   -0.826962
  C      1.674736   -0.122167   -2.573698
  C      0.094757   -1.893129   -2.020702
  C      1.100860   -1.341722   -2.868515
  H      2.411774    0.313087   -3.231135
  H      1.425447   -1.866930   -3.770325
  H     -0.670901   -4.219710   -0.168296
  H     -0.372196   -2.818486   -2.374859

 Total Charge           Charge          ....   -1
 Multiplicity           Mult            ....    1
 Number of Electrons    NEL             ....  164
 Basis Dimension        Dim             ....  313

ORBITAL ENERGIES
----------------

  NO   OCC          E(Eh)            E(eV)
   0   2.0000    -102.155379     -2779.7892
   1   2.0000    -102.081301     -2777.7734
   2   2.0000    -102.060008     -2777.1940
   3   2.0000     -14.593913      -397.1206
   4   2.0000     -10.404727      -283.1270
   5   2.0000     -10.400746      -283.0187
   6   2.0000     -10.390386      -282.7368
   7   2.0000     -10.381729      -282.5012
   8   2.0000     -10.375717      -282.3376
   9   2.0000     -10.372216      -282.2423
  10   2.0000     -10.371272      -282.2167
  11   2.0000     -10.367593      -282.1166
  12   2.0000     -10.356437      -281.8130
  13   2.0000     -10.356148      -281.8051
  14   2.0000     -10.350004      -281.6379
  15   2.0000     -10.344202      -281.4800
  16   2.0000     -10.341416      -281.4042
  17   2.0000      -9.627854      -261.9872
  18   2.0000      -9.545228      -259.7389
  19   2.0000      -9.523528      -259.1484
  20   2.0000      -7.314916      -199.0490
  21   2.0000      -7.307219      -198.8395
  22   2.0000      -7.307146      -198.8375
  23   2.0000      -7.230928      -196.7635
  24   2.0000      -7.226466      -196.6421
  25   2.0000      -7.226045      -196.6307
  26   2.0000      -7.208655      -196.1575
  27   2.0000      -7.205119      -196.0612
  28   2.0000      -7.204841      -196.0537
  29   2.0000      -3.513454       -95.6059
  30   2.0000      -2.159748       -58.7697
  31   2.0000      -2.154992       -58.6403
  32   2.0000      -2.125104       -57.8270
  33   2.0000      -0.984623       -26.7929
  34   2.0000      -0.877840       -23.8872
  35   2.0000      -0.842056       -22.9135
  36   2.0000      -0.806864       -21.9559
  37   2.0000      -0.805139       -21.9089
  38   2.0000      -0.775683       -21.1074
  39   2.0000      -0.733659       -19.9639
  40   2.0000      -0.714245       -19.4356
  41   2.0000      -0.672791       -18.3076
  42   2.0000      -0.649329       -17.6691
  43   2.0000      -0.642931       -17.4950
  44   2.0000      -0.633971       -17.2512
  45   2.0000      -0.606010       -16.4904
  46   2.0000      -0.569009       -15.4835
  47   2.0000      -0.525969       -14.3123
  48   2.0000      -0.510384       -13.8882
  49   2.0000      -0.491005       -13.3609
  50   2.0000      -0.456926       -12.4336
  51   2.0000      -0.453307       -12.3351
  52   2.0000      -0.425423       -11.5763
  53   2.0000      -0.408826       -11.1247
  54   2.0000      -0.403091       -10.9687
  55   2.0000      -0.400626       -10.9016
  56   2.0000      -0.397093       -10.8054
  57   2.0000      -0.380147       -10.3443
  58   2.0000      -0.370534       -10.0828
  59   2.0000      -0.350160        -9.5283
  60   2.0000      -0.337969        -9.1966
  61   2.0000      -0.334896        -9.1130
  62   2.0000      -0.311407        -8.4738
  63   2.0000      -0.299648        -8.1538
  64   2.0000      -0.288414        -7.8482
  65   2.0000      -0.262293        -7.1374
  66   2.0000      -0.259351        -7.0573
  67   2.0000      -0.245677        -6.6852
  68   2.0000      -0.244960        -6.6657
  69   2.0000      -0.244172        -6.6443
  70   2.0000      -0.237517        -6.4632
  71   2.0000      -0.216119        -5.8809
  72   2.0000      -0.210444        -5.7265
  73   2.0000      -0.204664        -5.5692
  74   2.0000      -0.178234        -4.8500
  75   2.0000      -0.176249        -4.7960
  76   2.0000      -0.163773        -4.4565
  77   2.0000      -0.153377        -4.1736
  78   2.0000      -0.145141        -3.9495
  79   2.0000      -0.140633        -3.8268
  80   2.0000      -0.133220        -3.6251
  81   2.0000      -0.127419        -3.4673
  82   0.0000       0.048337         1.3153
  83   0.0000       0.071143         1.9359
  84   0.0000       0.106122         2.8877
  85   0.0000       0.110742         3.0135
  86   0.0000       0.146255         3.9798

MULLIKEN ATOMIC CHARGES
-----------------------
   0 Pd:    0.183899
   1 Cl:   -0.391617
   2 Cl:   -0.349824
   3 Cl:   -0.475095
   4 N :   -0.578863
   5 C :    0.036116
   6 C :   -0.337524
   7 C :   -0.158835
   8 C :    0.400158
   9 C :    0.047972
  10 H :    0.208775
  11 H :    0.286737
  12 H :    0.218789
  13 C :    0.002449
  14 C :   -0.306551
  15 C :   -0.288932
  16 C :    0.152933
  17 H :    0.192274
  18 H :    0.194461
  19 C :   -0.083984
  20 C :   -0.334561
  21 C :   -0.366589
  22 C :   -0.183084
  23 H :    0.185756
  24 H :    0.194233
  25 H :    0.331501
  26 H :    0.219405
Sum of atomic charges:   -1.0000000

LOEWDIN ATOMIC CHARGES
----------------------
   0 Pd:   -0.768127
   1 Cl:   -0.123444
   2 Cl:   -0.188628
   3 Cl:   -0.258358
   4 N :    0.040030
   5 C :    0.003239
   6 C :   -0.172980
   7 C :   -0.089679
   8 C :    0.090656
   9 C :   -0.059614
  10 H :    0.133774
  11 H :    0.168740
  12 H :    0.139657
  13 C :   -0.026967
  14 C :   -0.145025
  15 C :   -0.117916
  16 C :   -0.037052
  17 H :    0.128792
  18 H :    0.130234
  19 C :   -0.011337
  20 C :   -0.160048
  21 C :   -0.132912
  22 C :   -0.130499
  23 H :    0.122729
  24 H :    0.127148
  25 H :    0.196841
  26 H :    0.140746

  Mayer bond orders larger than 0.100000
B(  0-Pd,  1-Cl) :   0.8200 B(  0-Pd,  3-Cl) :   0.6835 B(  0-Pd,  4-N ) :   0.4185
B(  0-Pd, 19-C ) :   0.7830 B(  2-Cl, 25-H ) :   0.8159 B(  3-Cl, 19-C ) :   0.1021
B(  4-N ,  5-C ) :   1.4865 B(  4-N ,  8-C ) :   1.1205 B(  5-C ,  6-C ) :   1.3054
B(  5-C , 11-H ) :   0.8650 B(  6-C ,  7-C ) :   1.4587 B(  6-C , 12-H ) :   0.9210
B(  7-C ,  9-C ) :   1.2734 B(  7-C , 10-H ) :   0.9296 B(  8-C ,  9-C ) :   1.2262
B(  8-C , 13-C ) :   1.1541 B(  9-C , 14-C ) :   1.1672 B( 13-C , 16-C ) :   1.2458
B( 13-C , 19-C ) :   1.1804 B( 14-C , 15-C ) :   1.6454 B( 14-C , 17-H ) :   0.9303
B( 15-C , 16-C ) :   1.1593 B( 15-C , 18-H ) :   0.9283 B( 16-C , 20-C ) :   1.2858
B( 19-C , 21-C ) :   1.4390 B( 20-C , 22-C ) :   1.4862 B( 20-C , 23-H ) :   0.9303
B( 21-C , 22-C ) :   1.3432 B( 21-C , 26-H ) :   0.9121 B( 22-C , 24-H ) :   0.9255

Dispersion correction           -0.023790752
FINAL SINGLE POINT ENERGY     -2061.507849228873
Dispersion correction            ... done

DIPOLE MOMENT
-------------
                                X             Y             Z
Electronic contribution:    -76.33982     -49.70877      17.18934
Nuclear contribution   :     79.69035      52.85218     -17.20534
                        -----------------------------------------
Total Dipole Moment    :      3.35053       3.14341      -0.01600
                        -----------------------------------------
Magnitude (a.u.)       :      4.59427
Magnitude (Debye)      :     11.67772

Rotational constants in cm-1:     0.011065     0.007659     0.005341
Rotational constants in MHz :   331.707573   229.603397   160.125314

                             ****ORCA TERMINATED NORMALLY****
TOTAL RUN TIME: 0 days 0 hours 7 minutes 4 seconds 660 msec
