                         Program Version 5.0.3 -  RELEASE  -
|  1> ! EnGrad PBEh-3c
|  2> %output
|  3> xyzfile=True
|  4> end
|  5> %scf
|  6> maxiter 250
|  7> end
|  8> %output
|  9> Print[P_Hirshfeld] = 1
| 10> end
| 11> % maxcore
| 12> 4000
| 13> *xyz -1 1
| 14> Pd  -1.96242624  -1.50393422   0.44997561
| 15> Cl  -3.06752597  -3.30255655  -0.49218610
| 16> Cl  -0.04400652  -5.01420709   0.53806914
| 17> Cl  -4.00239720  -1.13630418   1.72635942
| 18> N   -1.05667268   0.10664076   1.36768890
| 19> C   -1.39995446   0.67818017   2.51012026
| 20> C   -0.85566845   1.89763554   2.93213415
| 21> C    0.09360449   2.51074461   2.14742082
| 22> C   -0.09445353   0.66904981   0.60288149
| 23> C    0.49887172   1.89369562   0.95788217
| 24> H    0.53664927   3.44981775   2.45078606
| 25> H   -2.13964250   0.16241912   3.10479249
| 26> H   -1.18622927   2.34430194   3.85818076
| 27> C    0.29361450  -0.04322436  -0.57075411
| 28> C    1.48258166   2.45804825   0.08929293
| 29> C    1.84066397   1.82049251  -1.05159077
| 30> C    1.27499979   0.55244181  -1.41543598
| 31> H    1.93419912   3.40166343   0.35394386
| 32> H    2.58379511   2.26503715  -1.70057380
| 33> C   -0.35947755  -1.28492951  -0.84447090
| 34> C    1.67495967  -0.12254975  -2.57585346
| 35> C    0.08872408  -1.89756708  -2.01862255
| 36> C    1.09544058  -1.34240212  -2.86073389
| 37> H    2.41226285   0.31451015  -3.23191182
| 38> H    1.42395344  -1.86609776  -3.76793107
| 39> H   -0.69243297  -4.19121192  -0.18783885
| 40> H   -0.36805723  -2.81519567  -2.37235624
| 41> *
| 42>
| 43>                          ****END OF INPUT****

CARTESIAN COORDINATES (ANGSTROEM)
---------------------------------
  Pd    -1.962426   -1.503934    0.449976
  Cl    -3.067526   -3.302557   -0.492186
  Cl    -0.044007   -5.014207    0.538069
  Cl    -4.002397   -1.136304    1.726359
  N     -1.056673    0.106641    1.367689
  C     -1.399954    0.678180    2.510120
  C     -0.855668    1.897636    2.932134
  C      0.093604    2.510745    2.147421
  C     -0.094454    0.669050    0.602881
  C      0.498872    1.893696    0.957882
  H      0.536649    3.449818    2.450786
  H     -2.139642    0.162419    3.104792
  H     -1.186229    2.344302    3.858181
  C      0.293615   -0.043224   -0.570754
  C      1.482582    2.458048    0.089293
  C      1.840664    1.820493   -1.051591
  C      1.275000    0.552442   -1.415436
  H      1.934199    3.401663    0.353944
  H      2.583795    2.265037   -1.700574
  C     -0.359478   -1.284930   -0.844471
  C      1.674960   -0.122550   -2.575853
  C      0.088724   -1.897567   -2.018623
  C      1.095441   -1.342402   -2.860734
  H      2.412263    0.314510   -3.231912
  H      1.423953   -1.866098   -3.767931
  H     -0.692433   -4.191212   -0.187839
  H     -0.368057   -2.815196   -2.372356

 Total Charge           Charge          ....   -1
 Multiplicity           Mult            ....    1
 Number of Electrons    NEL             ....  164
 Basis Dimension        Dim             ....  313

ORBITAL ENERGIES
----------------

  NO   OCC          E(Eh)            E(eV)
   0   2.0000    -102.157493     -2779.8467
   1   2.0000    -102.082928     -2777.8177
   2   2.0000    -102.061799     -2777.2427
   3   2.0000     -14.593332      -397.1047
   4   2.0000     -10.404274      -283.1147
   5   2.0000     -10.401443      -283.0377
   6   2.0000     -10.390613      -282.7430
   7   2.0000     -10.382178      -282.5134
   8   2.0000     -10.375950      -282.3440
   9   2.0000     -10.372629      -282.2536
  10   2.0000     -10.371690      -282.2280
  11   2.0000     -10.368138      -282.1314
  12   2.0000     -10.356398      -281.8119
  13   2.0000     -10.355579      -281.7896
  14   2.0000     -10.350589      -281.6538
  15   2.0000     -10.340785      -281.3871
  16   2.0000     -10.338819      -281.3336
  17   2.0000      -9.627070      -261.9659
  18   2.0000      -9.546839      -259.7827
  19   2.0000      -9.525417      -259.1998
  20   2.0000      -7.314248      -199.0308
  21   2.0000      -7.306660      -198.8243
  22   2.0000      -7.306594      -198.8225
  23   2.0000      -7.232495      -196.8062
  24   2.0000      -7.228119      -196.6871
  25   2.0000      -7.227654      -196.6745
  26   2.0000      -7.210573      -196.2097
  27   2.0000      -7.206976      -196.1118
  28   2.0000      -7.206701      -196.1043
  29   2.0000      -3.511536       -95.5538
  30   2.0000      -2.157913       -58.7198
  31   2.0000      -2.152928       -58.5841
  32   2.0000      -2.123250       -57.7766
  33   2.0000      -0.986730       -26.8503
  34   2.0000      -0.878231       -23.8979
  35   2.0000      -0.842765       -22.9328
  36   2.0000      -0.807955       -21.9856
  37   2.0000      -0.788015       -21.4430
  38   2.0000      -0.776165       -21.1205
  39   2.0000      -0.734153       -19.9773
  40   2.0000      -0.716174       -19.4881
  41   2.0000      -0.674302       -18.3487
  42   2.0000      -0.651446       -17.7267
  43   2.0000      -0.643241       -17.5035
  44   2.0000      -0.634801       -17.2738
  45   2.0000      -0.607168       -16.5219
  46   2.0000      -0.569101       -15.4860
  47   2.0000      -0.525719       -14.3055
  48   2.0000      -0.511434       -13.9168
  49   2.0000      -0.491567       -13.3762
  50   2.0000      -0.456824       -12.4308
  51   2.0000      -0.454477       -12.3670
  52   2.0000      -0.425967       -11.5912
  53   2.0000      -0.409168       -11.1340
  54   2.0000      -0.403861       -10.9896
  55   2.0000      -0.399645       -10.8749
  56   2.0000      -0.384642       -10.4666
  57   2.0000      -0.379636       -10.3304
  58   2.0000      -0.372539       -10.1373
  59   2.0000      -0.351196        -9.5565
  60   2.0000      -0.337781        -9.1915
  61   2.0000      -0.335063        -9.1175
  62   2.0000      -0.311712        -8.4821
  63   2.0000      -0.300150        -8.1675
  64   2.0000      -0.290099        -7.8940
  65   2.0000      -0.260105        -7.0778
  66   2.0000      -0.257937        -7.0188
  67   2.0000      -0.244772        -6.6606
  68   2.0000      -0.241580        -6.5737
  69   2.0000      -0.241013        -6.5583
  70   2.0000      -0.236112        -6.4249
  71   2.0000      -0.216300        -5.8858
  72   2.0000      -0.211269        -5.7489
  73   2.0000      -0.204548        -5.5660
  74   2.0000      -0.178538        -4.8583
  75   2.0000      -0.176129        -4.7927
  76   2.0000      -0.164412        -4.4739
  77   2.0000      -0.153148        -4.1674
  78   2.0000      -0.145468        -3.9584
  79   2.0000      -0.141288        -3.8446
  80   2.0000      -0.134665        -3.6644
  81   2.0000      -0.128002        -3.4831
  82   0.0000       0.048508         1.3200
  83   0.0000       0.071334         1.9411
  84   0.0000       0.105734         2.8772
  85   0.0000       0.110858         3.0166
  86   0.0000       0.146645         3.9904

MULLIKEN ATOMIC CHARGES
-----------------------
   0 Pd:    0.180219
   1 Cl:   -0.389385
   2 Cl:   -0.356583
   3 Cl:   -0.469801
   4 N :   -0.578279
   5 C :    0.034806
   6 C :   -0.337325
   7 C :   -0.157455
   8 C :    0.412299
   9 C :    0.041137
  10 H :    0.208946
  11 H :    0.286755
  12 H :    0.218888
  13 C :    0.013214
  14 C :   -0.305088
  15 C :   -0.291041
  16 C :    0.134710
  17 H :    0.192443
  18 H :    0.194087
  19 C :   -0.083755
  20 C :   -0.325746
  21 C :   -0.360143
  22 C :   -0.193116
  23 H :    0.187248
  24 H :    0.191961
  25 H :    0.329769
  26 H :    0.221235
Sum of atomic charges:   -1.0000000

LOEWDIN ATOMIC CHARGES
----------------------
   0 Pd:   -0.777107
   1 Cl:   -0.119401
   2 Cl:   -0.213214
   3 Cl:   -0.246530
   4 N :    0.041327
   5 C :    0.003785
   6 C :   -0.172555
   7 C :   -0.090171
   8 C :    0.088116
   9 C :   -0.058413
  10 H :    0.133848
  11 H :    0.169132
  12 H :    0.139540
  13 C :   -0.027985
  14 C :   -0.144711
  15 C :   -0.118275
  16 C :   -0.034160
  17 H :    0.128803
  18 H :    0.129907
  19 C :   -0.015073
  20 C :   -0.161615
  21 C :   -0.135001
  22 C :   -0.126662
  23 H :    0.123650
  24 H :    0.125759
  25 H :    0.215406
  26 H :    0.141595

  Mayer bond orders larger than 0.100000
B(  0-Pd,  1-Cl) :   0.8162 B(  0-Pd,  3-Cl) :   0.6915 B(  0-Pd,  4-N ) :   0.4166
B(  0-Pd, 19-C ) :   0.7616 B(  2-Cl, 25-H ) :   0.8110 B(  3-Cl, 19-C ) :   0.1018
B(  4-N ,  5-C ) :   1.4850 B(  4-N ,  8-C ) :   1.1260 B(  5-C ,  6-C ) :   1.3052
B(  5-C , 11-H ) :   0.8651 B(  6-C ,  7-C ) :   1.4585 B(  6-C , 12-H ) :   0.9209
B(  7-C ,  9-C ) :   1.2754 B(  7-C , 10-H ) :   0.9295 B(  8-C ,  9-C ) :   1.2227
B(  8-C , 13-C ) :   1.1476 B(  9-C , 14-C ) :   1.1682 B( 13-C , 16-C ) :   1.2586
B( 13-C , 19-C ) :   1.1883 B( 14-C , 15-C ) :   1.6469 B( 14-C , 17-H ) :   0.9302
B( 15-C , 16-C ) :   1.1585 B( 15-C , 18-H ) :   0.9284 B( 16-C , 20-C ) :   1.2835
B( 19-C , 21-C ) :   1.4556 B( 20-C , 22-C ) :   1.4920 B( 20-C , 23-H ) :   0.9301
B( 21-C , 22-C ) :   1.3405 B( 21-C , 26-H ) :   0.9111 B( 22-C , 24-H ) :   0.9258

Dispersion correction           -0.023784248
FINAL SINGLE POINT ENERGY     -2061.515945134377
Dispersion correction            ... done

DIPOLE MOMENT
-------------
                                X             Y             Z
Electronic contribution:    -76.99098     -49.44988      17.31656
Nuclear contribution   :     80.28295      52.66519     -17.34326
                        -----------------------------------------
Total Dipole Moment    :      3.29197       3.21531      -0.02670
                        -----------------------------------------
Magnitude (a.u.)       :      4.60174
Magnitude (Debye)      :     11.69668

Rotational constants in cm-1:     0.011025     0.007637     0.005343
Rotational constants in MHz :   330.507958   228.951077   160.165554

                             ****ORCA TERMINATED NORMALLY****
TOTAL RUN TIME: 0 days 0 hours 7 minutes 24 seconds 329 msec
