                         Program Version 5.0.3 -  RELEASE  -
|  1> ! EnGrad PBEh-3c
|  2> %output
|  3> xyzfile=True
|  4> end
|  5> %scf
|  6> maxiter 250
|  7> end
|  8> %output
|  9> Print[P_Hirshfeld] = 1
| 10> end
| 11> % maxcore
| 12> 4000
| 13> *xyz -1 1
| 14> Pd  -1.95756737  -1.49152575   0.42468507
| 15> Cl  -3.03627349  -3.30126112  -0.49940524
| 16> Cl  -0.06723803  -4.99821254   0.57365354
| 17> Cl  -3.99005877  -1.09745669   1.69932698
| 18> N   -1.04225554   0.10325743   1.36332629
| 19> C   -1.39348914   0.66225200   2.50858076
| 20> C   -0.84779890   1.88245630   2.93467761
| 21> C    0.09029909   2.50210555   2.14867840
| 22> C   -0.09063205   0.66500587   0.60465416
| 23> C    0.49850918   1.88947424   0.95708549
| 24> H    0.53513099   3.44543750   2.44739538
| 25> H   -2.14347450   0.15036739   3.10512729
| 26> H   -1.18134448   2.32934645   3.86082923
| 27> C    0.28697817  -0.04571305  -0.56493522
| 28> C    1.47743297   2.45693605   0.08564119
| 29> C    1.83270018   1.81836419  -1.05187108
| 30> C    1.26625881   0.54220693  -1.40654965
| 31> H    1.92655174   3.40501789   0.35358173
| 32> H    2.57618880   2.26909958  -1.70754286
| 33> C   -0.35293670  -1.27895091  -0.86370231
| 34> C    1.67188722  -0.12568023  -2.57746514
| 35> C    0.07916156  -1.90285348  -2.01286752
| 36> C    1.08444822  -1.34332335  -2.84624771
| 37> H    2.41284177   0.32286436  -3.23570780
| 38> H    1.42108371  -1.86186641  -3.76149594
| 39> H   -0.69645281  -4.17343472  -0.17309034
| 40> H   -0.35043960  -2.81727569  -2.36849927
| 41> *
| 42>
| 43>                          ****END OF INPUT****

CARTESIAN COORDINATES (ANGSTROEM)
---------------------------------
  Pd    -1.957567   -1.491526    0.424685
  Cl    -3.036273   -3.301261   -0.499405
  Cl    -0.067238   -4.998213    0.573654
  Cl    -3.990059   -1.097457    1.699327
  N     -1.042256    0.103257    1.363326
  C     -1.393489    0.662252    2.508581
  C     -0.847799    1.882456    2.934678
  C      0.090299    2.502106    2.148678
  C     -0.090632    0.665006    0.604654
  C      0.498509    1.889474    0.957085
  H      0.535131    3.445437    2.447395
  H     -2.143474    0.150367    3.105127
  H     -1.181344    2.329346    3.860829
  C      0.286978   -0.045713   -0.564935
  C      1.477433    2.456936    0.085641
  C      1.832700    1.818364   -1.051871
  C      1.266259    0.542207   -1.406550
  H      1.926552    3.405018    0.353582
  H      2.576189    2.269100   -1.707543
  C     -0.352937   -1.278951   -0.863702
  C      1.671887   -0.125680   -2.577465
  C      0.079162   -1.902853   -2.012868
  C      1.084448   -1.343323   -2.846248
  H      2.412842    0.322864   -3.235708
  H      1.421084   -1.861866   -3.761496
  H     -0.696453   -4.173435   -0.173090
  H     -0.350440   -2.817276   -2.368499

 Total Charge           Charge          ....   -1
 Multiplicity           Mult            ....    1
 Number of Electrons    NEL             ....  164
 Basis Dimension        Dim             ....  313

ORBITAL ENERGIES
----------------

  NO   OCC          E(Eh)            E(eV)
   0   2.0000    -102.156213     -2779.8119
   1   2.0000    -102.083227     -2777.8258
   2   2.0000    -102.060912     -2777.2186
   3   2.0000     -14.591633      -397.0585
   4   2.0000     -10.402696      -283.0717
   5   2.0000     -10.401754      -283.0461
   6   2.0000     -10.390129      -282.7298
   7   2.0000     -10.381590      -282.4974
   8   2.0000     -10.375558      -282.3333
   9   2.0000     -10.372907      -282.2612
  10   2.0000     -10.371767      -282.2301
  11   2.0000     -10.368123      -282.1310
  12   2.0000     -10.355813      -281.7960
  13   2.0000     -10.353893      -281.7437
  14   2.0000     -10.351365      -281.6750
  15   2.0000     -10.337410      -281.2952
  16   2.0000     -10.335281      -281.2373
  17   2.0000      -9.625707      -261.9288
  18   2.0000      -9.547251      -259.7939
  19   2.0000      -9.524582      -259.1770
  20   2.0000      -7.312872      -198.9934
  21   2.0000      -7.305315      -198.7877
  22   2.0000      -7.305246      -198.7859
  23   2.0000      -7.232868      -196.8164
  24   2.0000      -7.228547      -196.6988
  25   2.0000      -7.228073      -196.6859
  26   2.0000      -7.209688      -196.1856
  27   2.0000      -7.206163      -196.0897
  28   2.0000      -7.205892      -196.0823
  29   2.0000      -3.509718       -95.5043
  30   2.0000      -2.156200       -58.6732
  31   2.0000      -2.151183       -58.5367
  32   2.0000      -2.121573       -57.7309
  33   2.0000      -0.989509       -26.9259
  34   2.0000      -0.879112       -23.9219
  35   2.0000      -0.843841       -22.9621
  36   2.0000      -0.809333       -22.0231
  37   2.0000      -0.786185       -21.3932
  38   2.0000      -0.776418       -21.1274
  39   2.0000      -0.735054       -20.0018
  40   2.0000      -0.717965       -19.5368
  41   2.0000      -0.675141       -18.3715
  42   2.0000      -0.651390       -17.7252
  43   2.0000      -0.642943       -17.4954
  44   2.0000      -0.635234       -17.2856
  45   2.0000      -0.608340       -16.5538
  46   2.0000      -0.568974       -15.4826
  47   2.0000      -0.525054       -14.2875
  48   2.0000      -0.512107       -13.9351
  49   2.0000      -0.491927       -13.3860
  50   2.0000      -0.457341       -12.4449
  51   2.0000      -0.453639       -12.3441
  52   2.0000      -0.425943       -11.5905
  53   2.0000      -0.409345       -11.1389
  54   2.0000      -0.405372       -11.0307
  55   2.0000      -0.399207       -10.8630
  56   2.0000      -0.383206       -10.4276
  57   2.0000      -0.379158       -10.3174
  58   2.0000      -0.374472       -10.1899
  59   2.0000      -0.352750        -9.5988
  60   2.0000      -0.337799        -9.1920
  61   2.0000      -0.335383        -9.1262
  62   2.0000      -0.311544        -8.4776
  63   2.0000      -0.301065        -8.1924
  64   2.0000      -0.290790        -7.9128
  65   2.0000      -0.261074        -7.1042
  66   2.0000      -0.255781        -6.9601
  67   2.0000      -0.244564        -6.6549
  68   2.0000      -0.240512        -6.5447
  69   2.0000      -0.239984        -6.5303
  70   2.0000      -0.235603        -6.4111
  71   2.0000      -0.217364        -5.9148
  72   2.0000      -0.210287        -5.7222
  73   2.0000      -0.203817        -5.5461
  74   2.0000      -0.179016        -4.8713
  75   2.0000      -0.175366        -4.7719
  76   2.0000      -0.164633        -4.4799
  77   2.0000      -0.152167        -4.1407
  78   2.0000      -0.144178        -3.9233
  79   2.0000      -0.140567        -3.8250
  80   2.0000      -0.134656        -3.6642
  81   2.0000      -0.127161        -3.4602
  82   0.0000       0.049604         1.3498
  83   0.0000       0.072254         1.9661
  84   0.0000       0.107228         2.9178
  85   0.0000       0.112379         3.0580
  86   0.0000       0.147486         4.0133

MULLIKEN ATOMIC CHARGES
-----------------------
   0 Pd:    0.177380
   1 Cl:   -0.388084
   2 Cl:   -0.358170
   3 Cl:   -0.472929
   4 N :   -0.576152
   5 C :    0.032619
   6 C :   -0.338645
   7 C :   -0.155289
   8 C :    0.423173
   9 C :    0.039251
  10 H :    0.208365
  11 H :    0.287145
  12 H :    0.218502
  13 C :    0.036289
  14 C :   -0.304648
  15 C :   -0.293179
  16 C :    0.108378
  17 H :    0.192105
  18 H :    0.193425
  19 C :   -0.088945
  20 C :   -0.315760
  21 C :   -0.347740
  22 C :   -0.206091
  23 H :    0.188227
  24 H :    0.188721
  25 H :    0.329249
  26 H :    0.222803
Sum of atomic charges:   -1.0000000

LOEWDIN ATOMIC CHARGES
----------------------
   0 Pd:   -0.785053
   1 Cl:   -0.113287
   2 Cl:   -0.215322
   3 Cl:   -0.247321
   4 N :    0.043232
   5 C :    0.004094
   6 C :   -0.171978
   7 C :   -0.090840
   8 C :    0.085220
   9 C :   -0.057806
  10 H :    0.133642
  11 H :    0.169951
  12 H :    0.139320
  13 C :   -0.028114
  14 C :   -0.144137
  15 C :   -0.118453
  16 C :   -0.030973
  17 H :    0.128553
  18 H :    0.129615
  19 C :   -0.014489
  20 C :   -0.163548
  21 C :   -0.136409
  22 C :   -0.122732
  23 H :    0.124412
  24 H :    0.123873
  25 H :    0.215639
  26 H :    0.142911

  Mayer bond orders larger than 0.100000
B(  0-Pd,  1-Cl) :   0.8165 B(  0-Pd,  3-Cl) :   0.6856 B(  0-Pd,  4-N ) :   0.4136
B(  0-Pd, 19-C ) :   0.7671 B(  2-Cl, 25-H ) :   0.8085 B(  3-Cl, 19-C ) :   0.1014
B(  4-N ,  5-C ) :   1.4854 B(  4-N ,  8-C ) :   1.1327 B(  5-C ,  6-C ) :   1.3022
B(  5-C , 11-H ) :   0.8635 B(  6-C ,  7-C ) :   1.4590 B(  6-C , 12-H ) :   0.9211
B(  7-C ,  9-C ) :   1.2775 B(  7-C , 10-H ) :   0.9295 B(  8-C ,  9-C ) :   1.2194
B(  8-C , 13-C ) :   1.1384 B(  9-C , 14-C ) :   1.1689 B( 13-C , 16-C ) :   1.2754
B( 13-C , 19-C ) :   1.1861 B( 14-C , 15-C ) :   1.6482 B( 14-C , 17-H ) :   0.9302
B( 15-C , 16-C ) :   1.1567 B( 15-C , 18-H ) :   0.9287 B( 16-C , 20-C ) :   1.2773
B( 19-C , 21-C ) :   1.4693 B( 20-C , 22-C ) :   1.4997 B( 20-C , 23-H ) :   0.9301
B( 21-C , 22-C ) :   1.3368 B( 21-C , 26-H ) :   0.9107 B( 22-C , 24-H ) :   0.9261

Dispersion correction           -0.023845968
FINAL SINGLE POINT ENERGY     -2061.516461965308
Dispersion correction            ... done

DIPOLE MOMENT
-------------
                                X             Y             Z
Electronic contribution:    -76.80816     -48.95506      16.01917
Nuclear contribution   :     80.09693      52.15854     -16.05266
                        -----------------------------------------
Total Dipole Moment    :      3.28878       3.20348      -0.03349
                        -----------------------------------------
Magnitude (a.u.)       :      4.59124
Magnitude (Debye)      :     11.67000

Rotational constants in cm-1:     0.011100     0.007682     0.005393
Rotational constants in MHz :   332.775792   230.287480   161.668096

                             ****ORCA TERMINATED NORMALLY****
TOTAL RUN TIME: 0 days 0 hours 7 minutes 40 seconds 257 msec
