                         Program Version 5.0.3 -  RELEASE  -
|  1> ! EnGrad PBEh-3c
|  2> %output
|  3> xyzfile=True
|  4> end
|  5> %scf
|  6> maxiter 250
|  7> end
|  8> %output
|  9> Print[P_Hirshfeld] = 1
| 10> end
| 11> % maxcore
| 12> 4000
| 13> *xyz -1 1
| 14> Pd  -1.96674703  -1.48114447   0.42109697
| 15> Cl  -3.01905038  -3.30141874  -0.50854981
| 16> Cl  -0.06562882  -5.00362984   0.60610908
| 17> Cl  -3.97525938  -1.07574361   1.67902408
| 18> N   -1.03870028   0.09764021   1.36525115
| 19> C   -1.39133964   0.65565138   2.50763967
| 20> C   -0.84435054   1.87094796   2.93632451
| 21> C    0.09035171   2.49660446   2.14903553
| 22> C   -0.08590649   0.66507797   0.60485520
| 23> C    0.49987839   1.88916592   0.95741578
| 24> H    0.53309412   3.44249102   2.44554966
| 25> H   -2.14341744   0.14302197   3.10232396
| 26> H   -1.17828025   2.31959898   3.86281843
| 27> C    0.28956217  -0.04370595  -0.57107791
| 28> C    1.47358611   2.45658749   0.08454473
| 29> C    1.82793755   1.81381655  -1.05341968
| 30> C    1.26411378   0.54046899  -1.40191913
| 31> H    1.92184813   3.40728451   0.35299620
| 32> H    2.56954221   2.26976679  -1.71062844
| 33> C   -0.34874847  -1.27276274  -0.86881038
| 34> C    1.66395771  -0.12902488  -2.57261134
| 35> C    0.08513287  -1.90336366  -2.02199668
| 36> C    1.08202438  -1.34613738  -2.84431143
| 37> H    2.41127495   0.32589629  -3.23670023
| 38> H    1.41444153  -1.85775558  -3.74959209
| 39> H   -0.71156912  -4.14800571  -0.17401472
| 40> H   -0.34527442  -2.82362209  -2.36483384
| 41> *
| 42>
| 43>                          ****END OF INPUT****

CARTESIAN COORDINATES (ANGSTROEM)
---------------------------------
  Pd    -1.966747   -1.481144    0.421097
  Cl    -3.019050   -3.301419   -0.508550
  Cl    -0.065629   -5.003630    0.606109
  Cl    -3.975259   -1.075744    1.679024
  N     -1.038700    0.097640    1.365251
  C     -1.391340    0.655651    2.507640
  C     -0.844351    1.870948    2.936325
  C      0.090352    2.496604    2.149036
  C     -0.085906    0.665078    0.604855
  C      0.499878    1.889166    0.957416
  H      0.533094    3.442491    2.445550
  H     -2.143417    0.143022    3.102324
  H     -1.178280    2.319599    3.862818
  C      0.289562   -0.043706   -0.571078
  C      1.473586    2.456587    0.084545
  C      1.827938    1.813817   -1.053420
  C      1.264114    0.540469   -1.401919
  H      1.921848    3.407285    0.352996
  H      2.569542    2.269767   -1.710628
  C     -0.348748   -1.272763   -0.868810
  C      1.663958   -0.129025   -2.572611
  C      0.085133   -1.903364   -2.021997
  C      1.082024   -1.346137   -2.844311
  H      2.411275    0.325896   -3.236700
  H      1.414442   -1.857756   -3.749592
  H     -0.711569   -4.148006   -0.174015
  H     -0.345274   -2.823622   -2.364834

 Total Charge           Charge          ....   -1
 Multiplicity           Mult            ....    1
 Number of Electrons    NEL             ....  164
 Basis Dimension        Dim             ....  313

ORBITAL ENERGIES
----------------

  NO   OCC          E(Eh)            E(eV)
   0   2.0000    -102.155860     -2779.8023
   1   2.0000    -102.085018     -2777.8746
   2   2.0000    -102.063574     -2777.2911
   3   2.0000     -14.591661      -397.0593
   4   2.0000     -10.402857      -283.0761
   5   2.0000     -10.401118      -283.0288
   6   2.0000     -10.390001      -282.7263
   7   2.0000     -10.380940      -282.4797
   8   2.0000     -10.375334      -282.3272
   9   2.0000     -10.372843      -282.2594
  10   2.0000     -10.371764      -282.2300
  11   2.0000     -10.366055      -282.0747
  12   2.0000     -10.352520      -281.7064
  13   2.0000     -10.352250      -281.6991
  14   2.0000     -10.351005      -281.6652
  15   2.0000     -10.336724      -281.2766
  16   2.0000     -10.334319      -281.2111
  17   2.0000      -9.624006      -261.8825
  18   2.0000      -9.549026      -259.8422
  19   2.0000      -9.527436      -259.2547
  20   2.0000      -7.311265      -198.9496
  21   2.0000      -7.303693      -198.7436
  22   2.0000      -7.303627      -198.7418
  23   2.0000      -7.234590      -196.8632
  24   2.0000      -7.230383      -196.7487
  25   2.0000      -7.229845      -196.7341
  26   2.0000      -7.212565      -196.2639
  27   2.0000      -7.208984      -196.1664
  28   2.0000      -7.208703      -196.1588
  29   2.0000      -3.509742       -95.5049
  30   2.0000      -2.156253       -58.6746
  31   2.0000      -2.151290       -58.5396
  32   2.0000      -2.121546       -57.7302
  33   2.0000      -0.989207       -26.9177
  34   2.0000      -0.880657       -23.9639
  35   2.0000      -0.844430       -22.9781
  36   2.0000      -0.809724       -22.0337
  37   2.0000      -0.776753       -21.1365
  38   2.0000      -0.775874       -21.1126
  39   2.0000      -0.736986       -20.0544
  40   2.0000      -0.716456       -19.4958
  41   2.0000      -0.676905       -18.4195
  42   2.0000      -0.654759       -17.8169
  43   2.0000      -0.642949       -17.4955
  44   2.0000      -0.636007       -17.3066
  45   2.0000      -0.608379       -16.5548
  46   2.0000      -0.569421       -15.4947
  47   2.0000      -0.525002       -14.2860
  48   2.0000      -0.511991       -13.9320
  49   2.0000      -0.491794       -13.3824
  50   2.0000      -0.456276       -12.4159
  51   2.0000      -0.454081       -12.3562
  52   2.0000      -0.425953       -11.5908
  53   2.0000      -0.409122       -11.1328
  54   2.0000      -0.405524       -11.0349
  55   2.0000      -0.400069       -10.8864
  56   2.0000      -0.379723       -10.3328
  57   2.0000      -0.374318       -10.1857
  58   2.0000      -0.373895       -10.1742
  59   2.0000      -0.351649        -9.5689
  60   2.0000      -0.338583        -9.2133
  61   2.0000      -0.335577        -9.1315
  62   2.0000      -0.311528        -8.4771
  63   2.0000      -0.301144        -8.1945
  64   2.0000      -0.290175        -7.8961
  65   2.0000      -0.261231        -7.1085
  66   2.0000      -0.256898        -6.9905
  67   2.0000      -0.245665        -6.6849
  68   2.0000      -0.238283        -6.4840
  69   2.0000      -0.237073        -6.4511
  70   2.0000      -0.234254        -6.3744
  71   2.0000      -0.218785        -5.9535
  72   2.0000      -0.210608        -5.7309
  73   2.0000      -0.205152        -5.5825
  74   2.0000      -0.180467        -4.9108
  75   2.0000      -0.176756        -4.8098
  76   2.0000      -0.164802        -4.4845
  77   2.0000      -0.152264        -4.1433
  78   2.0000      -0.144543        -3.9332
  79   2.0000      -0.141492        -3.8502
  80   2.0000      -0.136907        -3.7254
  81   2.0000      -0.127911        -3.4806
  82   0.0000       0.049933         1.3587
  83   0.0000       0.072416         1.9705
  84   0.0000       0.107660         2.9296
  85   0.0000       0.113406         3.0859
  86   0.0000       0.148043         4.0285

MULLIKEN ATOMIC CHARGES
-----------------------
   0 Pd:    0.177028
   1 Cl:   -0.386650
   2 Cl:   -0.362627
   3 Cl:   -0.465336
   4 N :   -0.576348
   5 C :    0.034115
   6 C :   -0.338831
   7 C :   -0.156563
   8 C :    0.413991
   9 C :    0.046851
  10 H :    0.208104
  11 H :    0.286290
  12 H :    0.218081
  13 C :    0.043077
  14 C :   -0.307744
  15 C :   -0.295701
  16 C :    0.118335
  17 H :    0.191994
  18 H :    0.193356
  19 C :   -0.093454
  20 C :   -0.324243
  21 C :   -0.348375
  22 C :   -0.199438
  23 H :    0.185752
  24 H :    0.189937
  25 H :    0.326234
  26 H :    0.222164
Sum of atomic charges:   -1.0000000

LOEWDIN ATOMIC CHARGES
----------------------
   0 Pd:   -0.795840
   1 Cl:   -0.110224
   2 Cl:   -0.230287
   3 Cl:   -0.230568
   4 N :    0.043437
   5 C :    0.002804
   6 C :   -0.171816
   7 C :   -0.090504
   8 C :    0.088074
   9 C :   -0.059092
  10 H :    0.133525
  11 H :    0.169712
  12 H :    0.139265
  13 C :   -0.030123
  14 C :   -0.144189
  15 C :   -0.116936
  16 C :   -0.033182
  17 H :    0.128449
  18 H :    0.129769
  19 C :   -0.014851
  20 C :   -0.161394
  21 C :   -0.136202
  22 C :   -0.124756
  23 H :    0.123489
  24 H :    0.124313
  25 H :    0.224463
  26 H :    0.142661

  Mayer bond orders larger than 0.100000
B(  0-Pd,  1-Cl) :   0.8099 B(  0-Pd,  3-Cl) :   0.6967 B(  0-Pd,  4-N ) :   0.4153
B(  0-Pd, 19-C ) :   0.7572 B(  2-Cl, 25-H ) :   0.8031 B(  3-Cl, 19-C ) :   0.1017
B(  4-N ,  5-C ) :   1.4850 B(  4-N ,  8-C ) :   1.1324 B(  5-C ,  6-C ) :   1.3023
B(  5-C , 11-H ) :   0.8640 B(  6-C ,  7-C ) :   1.4591 B(  6-C , 12-H ) :   0.9213
B(  7-C ,  9-C ) :   1.2770 B(  7-C , 10-H ) :   0.9296 B(  8-C ,  9-C ) :   1.2227
B(  8-C , 13-C ) :   1.1367 B(  9-C , 14-C ) :   1.1666 B( 13-C , 16-C ) :   1.2724
B( 13-C , 19-C ) :   1.1924 B( 14-C , 15-C ) :   1.6499 B( 14-C , 17-H ) :   0.9303
B( 15-C , 16-C ) :   1.1531 B( 15-C , 18-H ) :   0.9292 B( 16-C , 20-C ) :   1.2769
B( 19-C , 21-C ) :   1.4647 B( 20-C , 22-C ) :   1.4956 B( 20-C , 23-H ) :   0.9313
B( 21-C , 22-C ) :   1.3460 B( 21-C , 26-H ) :   0.9107 B( 22-C , 24-H ) :   0.9255

Dispersion correction           -0.023868694
FINAL SINGLE POINT ENERGY     -2061.517351479544
Dispersion correction            ... done

DIPOLE MOMENT
-------------
                                X             Y             Z
Electronic contribution:    -77.48104     -48.41781      15.85240
Nuclear contribution   :     80.67879      51.65503     -15.86858
                        -----------------------------------------
Total Dipole Moment    :      3.19775       3.23722      -0.01618
                        -----------------------------------------
Magnitude (a.u.)       :      4.55033
Magnitude (Debye)      :     11.56602

Rotational constants in cm-1:     0.011099     0.007688     0.005415
Rotational constants in MHz :   332.748948   230.485268   162.338244

                             ****ORCA TERMINATED NORMALLY****
TOTAL RUN TIME: 0 days 0 hours 8 minutes 0 seconds 668 msec
