                         Program Version 5.0.3 -  RELEASE  -
|  1> ! EnGrad PBEh-3c
|  2> %output
|  3> xyzfile=True
|  4> end
|  5> %scf
|  6> maxiter 250
|  7> end
|  8> %output
|  9> Print[P_Hirshfeld] = 1
| 10> end
| 11> % maxcore
| 12> 4000
| 13> *xyz -1 1
| 14> Pd  -1.96428716  -1.46313118   0.40051988
| 15> Cl  -2.98675636  -3.30225880  -0.52303351
| 16> Cl  -0.08920890  -4.98346575   0.64298687
| 17> Cl  -3.95781175  -1.03374879   1.64575697
| 18> N   -1.03462504   0.08696501   1.36560347
| 19> C   -1.38751517   0.64088623   2.51182901
| 20> C   -0.83731361   1.85351972   2.93965505
| 21> C    0.09045561   2.48736762   2.15074910
| 22> C   -0.08003115   0.66133556   0.60520113
| 23> C    0.50178171   1.88805929   0.95836112
| 24> H    0.52901232   3.43582489   2.44225005
| 25> H   -2.14188665   0.13054132   3.09620391
| 26> H   -1.17243346   2.30077024   3.86617228
| 27> C    0.29247219  -0.04253297  -0.57601325
| 28> C    1.46877156   2.45675651   0.08018299
| 29> C    1.82163112   1.81253055  -1.05418565
| 30> C    1.26742603   0.54103172  -1.40402018
| 31> H    1.91208109   3.40941574   0.35091071
| 32> H    2.55557380   2.26956576  -1.71549231
| 33> C   -0.35879182  -1.26987796  -0.86640943
| 34> C    1.65796478  -0.12822001  -2.56748394
| 35> C    0.09054342  -1.90219268  -2.02696320
| 36> C    1.08359973  -1.34598943  -2.84599718
| 37> H    2.40262443   0.32819886  -3.23376522
| 38> H    1.40680305  -1.85423130  -3.73712536
| 39> H   -0.71664524  -4.12912759  -0.15109402
| 40> H   -0.33581708  -2.83824937  -2.36055143
| 41> *
| 42>
| 43>                          ****END OF INPUT****

CARTESIAN COORDINATES (ANGSTROEM)
---------------------------------
  Pd    -1.964287   -1.463131    0.400520
  Cl    -2.986756   -3.302259   -0.523034
  Cl    -0.089209   -4.983466    0.642987
  Cl    -3.957812   -1.033749    1.645757
  N     -1.034625    0.086965    1.365603
  C     -1.387515    0.640886    2.511829
  C     -0.837314    1.853520    2.939655
  C      0.090456    2.487368    2.150749
  C     -0.080031    0.661336    0.605201
  C      0.501782    1.888059    0.958361
  H      0.529012    3.435825    2.442250
  H     -2.141887    0.130541    3.096204
  H     -1.172433    2.300770    3.866172
  C      0.292472   -0.042533   -0.576013
  C      1.468772    2.456757    0.080183
  C      1.821631    1.812531   -1.054186
  C      1.267426    0.541032   -1.404020
  H      1.912081    3.409416    0.350911
  H      2.555574    2.269566   -1.715492
  C     -0.358792   -1.269878   -0.866409
  C      1.657965   -0.128220   -2.567484
  C      0.090543   -1.902193   -2.026963
  C      1.083600   -1.345989   -2.845997
  H      2.402624    0.328199   -3.233765
  H      1.406803   -1.854231   -3.737125
  H     -0.716645   -4.129128   -0.151094
  H     -0.335817   -2.838249   -2.360551

 Total Charge           Charge          ....   -1
 Multiplicity           Mult            ....    1
 Number of Electrons    NEL             ....  164
 Basis Dimension        Dim             ....  313

ORBITAL ENERGIES
----------------

  NO   OCC          E(Eh)            E(eV)
   0   2.0000    -102.154202     -2779.7572
   1   2.0000    -102.085539     -2777.8887
   2   2.0000    -102.064485     -2777.3158
   3   2.0000     -14.591575      -397.0569
   4   2.0000     -10.402441      -283.0648
   5   2.0000     -10.400302      -283.0066
   6   2.0000     -10.389168      -282.7036
   7   2.0000     -10.380012      -282.4545
   8   2.0000     -10.374652      -282.3086
   9   2.0000     -10.371789      -282.2307
  10   2.0000     -10.370944      -282.2077
  11   2.0000     -10.364101      -282.0215
  12   2.0000     -10.351277      -281.6726
  13   2.0000     -10.350028      -281.6386
  14   2.0000     -10.349267      -281.6179
  15   2.0000     -10.337674      -281.3024
  16   2.0000     -10.335099      -281.2323
  17   2.0000      -9.622429      -261.8396
  18   2.0000      -9.549573      -259.8571
  19   2.0000      -9.528505      -259.2838
  20   2.0000      -7.309655      -198.9058
  21   2.0000      -7.302129      -198.7010
  22   2.0000      -7.302060      -198.6991
  23   2.0000      -7.235085      -196.8767
  24   2.0000      -7.230974      -196.7648
  25   2.0000      -7.230405      -196.7493
  26   2.0000      -7.213603      -196.2921
  27   2.0000      -7.210062      -196.1958
  28   2.0000      -7.209766      -196.1877
  29   2.0000      -3.510880       -95.5359
  30   2.0000      -2.157325       -58.7038
  31   2.0000      -2.152779       -58.5801
  32   2.0000      -2.122658       -57.7605
  33   2.0000      -0.987635       -26.8749
  34   2.0000      -0.881219       -23.9792
  35   2.0000      -0.844322       -22.9752
  36   2.0000      -0.809518       -22.0281
  37   2.0000      -0.776490       -21.1294
  38   2.0000      -0.775189       -21.0940
  39   2.0000      -0.737275       -20.0623
  40   2.0000      -0.715580       -19.4719
  41   2.0000      -0.677659       -18.4400
  42   2.0000      -0.656692       -17.8695
  43   2.0000      -0.642901       -17.4942
  44   2.0000      -0.636026       -17.3072
  45   2.0000      -0.607776       -16.5384
  46   2.0000      -0.569912       -15.5081
  47   2.0000      -0.525337       -14.2952
  48   2.0000      -0.511868       -13.9286
  49   2.0000      -0.491434       -13.3726
  50   2.0000      -0.455399       -12.3920
  51   2.0000      -0.454476       -12.3669
  52   2.0000      -0.425969       -11.5912
  53   2.0000      -0.409243       -11.1361
  54   2.0000      -0.405003       -11.0207
  55   2.0000      -0.400211       -10.8903
  56   2.0000      -0.380455       -10.3527
  57   2.0000      -0.373700       -10.1689
  58   2.0000      -0.373155       -10.1541
  59   2.0000      -0.350798        -9.5457
  60   2.0000      -0.338930        -9.2228
  61   2.0000      -0.335253        -9.1227
  62   2.0000      -0.312309        -8.4984
  63   2.0000      -0.301111        -8.1937
  64   2.0000      -0.289840        -7.8869
  65   2.0000      -0.261675        -7.1205
  66   2.0000      -0.260162        -7.0794
  67   2.0000      -0.246619        -6.7109
  68   2.0000      -0.238821        -6.4987
  69   2.0000      -0.236180        -6.4268
  70   2.0000      -0.233812        -6.3623
  71   2.0000      -0.220365        -5.9964
  72   2.0000      -0.209813        -5.7093
  73   2.0000      -0.205948        -5.6041
  74   2.0000      -0.180811        -4.9201
  75   2.0000      -0.178177        -4.8484
  76   2.0000      -0.164996        -4.4898
  77   2.0000      -0.152616        -4.1529
  78   2.0000      -0.144336        -3.9276
  79   2.0000      -0.141790        -3.8583
  80   2.0000      -0.138387        -3.7657
  81   2.0000      -0.128120        -3.4863
  82   0.0000       0.050245         1.3672
  83   0.0000       0.072595         1.9754
  84   0.0000       0.109032         2.9669
  85   0.0000       0.115416         3.1406
  86   0.0000       0.148858         4.0506

MULLIKEN ATOMIC CHARGES
-----------------------
   0 Pd:    0.180165
   1 Cl:   -0.388124
   2 Cl:   -0.364744
   3 Cl:   -0.463372
   4 N :   -0.579939
   5 C :    0.036639
   6 C :   -0.340990
   7 C :   -0.156450
   8 C :    0.409628
   9 C :    0.051220
  10 H :    0.207509
  11 H :    0.286333
  12 H :    0.217260
  13 C :    0.031771
  14 C :   -0.306288
  15 C :   -0.297523
  16 C :    0.140653
  17 H :    0.191575
  18 H :    0.192864
  19 C :   -0.092592
  20 C :   -0.334671
  21 C :   -0.353464
  22 C :   -0.189904
  23 H :    0.183629
  24 H :    0.192606
  25 H :    0.325791
  26 H :    0.220418
Sum of atomic charges:   -1.0000000

LOEWDIN ATOMIC CHARGES
----------------------
   0 Pd:   -0.802610
   1 Cl:   -0.110162
   2 Cl:   -0.232056
   3 Cl:   -0.222957
   4 N :    0.043134
   5 C :    0.002490
   6 C :   -0.171801
   7 C :   -0.090765
   8 C :    0.090193
   9 C :   -0.059783
  10 H :    0.133320
  11 H :    0.169296
  12 H :    0.139055
  13 C :   -0.029923
  14 C :   -0.144142
  15 C :   -0.115905
  16 C :   -0.035544
  17 H :    0.128384
  18 H :    0.129717
  19 C :   -0.012259
  20 C :   -0.159804
  21 C :   -0.134302
  22 C :   -0.127336
  23 H :    0.122589
  24 H :    0.125352
  25 H :    0.223535
  26 H :    0.142284

  Mayer bond orders larger than 0.100000
B(  0-Pd,  1-Cl) :   0.8026 B(  0-Pd,  3-Cl) :   0.6989 B(  0-Pd,  4-N ) :   0.4203
B(  0-Pd, 19-C ) :   0.7712 B(  2-Cl, 25-H ) :   0.7998 B(  3-Cl, 19-C ) :   0.1024
B(  4-N ,  5-C ) :   1.4807 B(  4-N ,  8-C ) :   1.1281 B(  5-C ,  6-C ) :   1.3049
B(  5-C , 11-H ) :   0.8636 B(  6-C ,  7-C ) :   1.4569 B(  6-C , 12-H ) :   0.9217
B(  7-C ,  9-C ) :   1.2790 B(  7-C , 10-H ) :   0.9296 B(  8-C ,  9-C ) :   1.2258
B(  8-C , 13-C ) :   1.1402 B(  9-C , 14-C ) :   1.1647 B( 13-C , 16-C ) :   1.2656
B( 13-C , 19-C ) :   1.1927 B( 14-C , 15-C ) :   1.6512 B( 14-C , 17-H ) :   0.9302
B( 15-C , 16-C ) :   1.1511 B( 15-C , 18-H ) :   0.9294 B( 16-C , 20-C ) :   1.2811
B( 19-C , 21-C ) :   1.4513 B( 20-C , 22-C ) :   1.4879 B( 20-C , 23-H ) :   0.9321
B( 21-C , 22-C ) :   1.3551 B( 21-C , 26-H ) :   0.9111 B( 22-C , 24-H ) :   0.9249

Dispersion correction           -0.023934116
FINAL SINGLE POINT ENERGY     -2061.518884544090
Dispersion correction            ... done

DIPOLE MOMENT
-------------
                                X             Y             Z
Electronic contribution:    -77.49881     -47.68006      14.86274
Nuclear contribution   :     80.65105      50.89377     -14.86261
                        -----------------------------------------
Total Dipole Moment    :      3.15224       3.21371       0.00013
                        -----------------------------------------
Magnitude (a.u.)       :      4.50161
Magnitude (Debye)      :     11.44220

Rotational constants in cm-1:     0.011159     0.007730     0.005463
Rotational constants in MHz :   334.529745   231.740263   163.784556

                             ****ORCA TERMINATED NORMALLY****
TOTAL RUN TIME: 0 days 0 hours 7 minutes 29 seconds 347 msec
