                         Program Version 5.0.3 -  RELEASE  -
|  1> ! EnGrad PBEh-3c
|  2> %output
|  3> xyzfile=True
|  4> end
|  5> %scf
|  6> maxiter 250
|  7> end
|  8> %output
|  9> Print[P_Hirshfeld] = 1
| 10> end
| 11> % maxcore
| 12> 4000
| 13> *xyz -1 1
| 14> Pd  -1.96206482  -1.44218308   0.37832803
| 15> Cl  -2.95045051  -3.30412220  -0.54465487
| 16> Cl  -0.12066444  -4.95298765   0.68755572
| 17> Cl  -3.93844407  -0.98019329   1.60198971
| 18> N   -1.03015834   0.07669821   1.36548638
| 19> C   -1.37917922   0.62373309   2.51376661
| 20> C   -0.82840358   1.83313032   2.94426186
| 21> C    0.09111898   2.47425773   2.15467810
| 22> C   -0.07565639   0.65482077   0.60719431
| 23> C    0.50410595   1.88406648   0.95901014
| 24> H    0.52265864   3.42750089   2.43986077
| 25> H   -2.13968961   0.11264154   3.08890534
| 26> H   -1.16459801   2.27545674   3.87185457
| 27> C    0.29592885  -0.04280996  -0.58235014
| 28> C    1.46200548   2.45775486   0.07654798
| 29> C    1.81684109   1.81548522  -1.05574674
| 30> C    1.27100628   0.54573460  -1.40672903
| 31> H    1.89929746   3.41200973   0.34645991
| 32> H    2.53707877   2.26875994  -1.72192719
| 33> C   -0.36676202  -1.26919772  -0.86614366
| 34> C    1.65614097  -0.12588915  -2.56860018
| 35> C    0.09317206  -1.90448146  -2.02792428
| 36> C    1.08627920  -1.33827398  -2.84239038
| 37> H    2.38769065   0.32843708  -3.22721135
| 38> H    1.40147209  -1.85700950  -3.73299113
| 39> H   -0.72053625  -4.10688083  -0.11492924
| 40> H   -0.32436589  -2.85474077  -2.35324816
| 41> *
| 42>
| 43>                          ****END OF INPUT****

CARTESIAN COORDINATES (ANGSTROEM)
---------------------------------
  Pd    -1.962065   -1.442183    0.378328
  Cl    -2.950451   -3.304122   -0.544655
  Cl    -0.120664   -4.952988    0.687556
  Cl    -3.938444   -0.980193    1.601990
  N     -1.030158    0.076698    1.365486
  C     -1.379179    0.623733    2.513767
  C     -0.828404    1.833130    2.944262
  C      0.091119    2.474258    2.154678
  C     -0.075656    0.654821    0.607194
  C      0.504106    1.884066    0.959010
  H      0.522659    3.427501    2.439861
  H     -2.139690    0.112642    3.088905
  H     -1.164598    2.275457    3.871855
  C      0.295929   -0.042810   -0.582350
  C      1.462005    2.457755    0.076548
  C      1.816841    1.815485   -1.055747
  C      1.271006    0.545735   -1.406729
  H      1.899297    3.412010    0.346460
  H      2.537079    2.268760   -1.721927
  C     -0.366762   -1.269198   -0.866144
  C      1.656141   -0.125889   -2.568600
  C      0.093172   -1.904481   -2.027924
  C      1.086279   -1.338274   -2.842390
  H      2.387691    0.328437   -3.227211
  H      1.401472   -1.857009   -3.732991
  H     -0.720536   -4.106881   -0.114929
  H     -0.324366   -2.854741   -2.353248

 Total Charge           Charge          ....   -1
 Multiplicity           Mult            ....    1
 Number of Electrons    NEL             ....  164
 Basis Dimension        Dim             ....  313

ORBITAL ENERGIES
----------------

  NO   OCC          E(Eh)            E(eV)
   0   2.0000    -102.152113     -2779.7003
   1   2.0000    -102.085480     -2777.8871
   2   2.0000    -102.065522     -2777.3441
   3   2.0000     -14.591133      -397.0449
   4   2.0000     -10.401827      -283.0481
   5   2.0000     -10.399460      -282.9837
   6   2.0000     -10.388370      -282.6819
   7   2.0000     -10.379149      -282.4310
   8   2.0000     -10.373761      -282.2844
   9   2.0000     -10.370654      -282.1998
  10   2.0000     -10.369613      -282.1715
  11   2.0000     -10.362730      -281.9842
  12   2.0000     -10.350691      -281.6566
  13   2.0000     -10.348682      -281.6020
  14   2.0000     -10.346475      -281.5419
  15   2.0000     -10.337608      -281.3006
  16   2.0000     -10.335341      -281.2389
  17   2.0000      -9.620744      -261.7938
  18   2.0000      -9.549511      -259.8554
  19   2.0000      -9.529749      -259.3177
  20   2.0000      -7.307906      -198.8582
  21   2.0000      -7.300446      -198.6552
  22   2.0000      -7.300372      -198.6532
  23   2.0000      -7.234972      -196.8736
  24   2.0000      -7.230956      -196.7643
  25   2.0000      -7.230366      -196.7483
  26   2.0000      -7.214807      -196.3249
  27   2.0000      -7.211314      -196.2298
  28   2.0000      -7.211001      -196.2213
  29   2.0000      -3.511676       -95.5576
  30   2.0000      -2.158031       -58.7230
  31   2.0000      -2.153996       -58.6132
  32   2.0000      -2.123466       -57.7824
  33   2.0000      -0.987899       -26.8821
  34   2.0000      -0.881382       -23.9836
  35   2.0000      -0.844190       -22.9716
  36   2.0000      -0.809382       -22.0244
  37   2.0000      -0.776888       -21.1402
  38   2.0000      -0.775857       -21.1121
  39   2.0000      -0.736596       -20.0438
  40   2.0000      -0.715617       -19.4729
  41   2.0000      -0.677719       -18.4417
  42   2.0000      -0.659019       -17.9328
  43   2.0000      -0.642826       -17.4922
  44   2.0000      -0.635607       -17.2957
  45   2.0000      -0.607716       -16.5368
  46   2.0000      -0.569805       -15.5052
  47   2.0000      -0.525533       -14.3005
  48   2.0000      -0.512082       -13.9345
  49   2.0000      -0.491542       -13.3755
  50   2.0000      -0.455090       -12.3836
  51   2.0000      -0.454517       -12.3680
  52   2.0000      -0.426267       -11.5993
  53   2.0000      -0.409074       -11.1315
  54   2.0000      -0.404697       -11.0124
  55   2.0000      -0.399901       -10.8819
  56   2.0000      -0.380285       -10.3481
  57   2.0000      -0.374636       -10.1944
  58   2.0000      -0.372933       -10.1480
  59   2.0000      -0.351111        -9.5542
  60   2.0000      -0.339239        -9.2312
  61   2.0000      -0.335601        -9.1322
  62   2.0000      -0.312758        -8.5106
  63   2.0000      -0.301139        -8.1944
  64   2.0000      -0.288538        -7.8515
  65   2.0000      -0.264808        -7.2058
  66   2.0000      -0.260678        -7.0934
  67   2.0000      -0.247098        -6.7239
  68   2.0000      -0.239786        -6.5249
  69   2.0000      -0.235631        -6.4119
  70   2.0000      -0.233323        -6.3491
  71   2.0000      -0.221495        -6.0272
  72   2.0000      -0.209112        -5.6902
  73   2.0000      -0.205770        -5.5993
  74   2.0000      -0.181098        -4.9279
  75   2.0000      -0.178823        -4.8660
  76   2.0000      -0.165465        -4.5025
  77   2.0000      -0.152966        -4.1624
  78   2.0000      -0.143895        -3.9156
  79   2.0000      -0.142040        -3.8651
  80   2.0000      -0.139816        -3.8046
  81   2.0000      -0.127956        -3.4819
  82   0.0000       0.050692         1.3794
  83   0.0000       0.073598         2.0027
  84   0.0000       0.109979         2.9927
  85   0.0000       0.117695         3.2027
  86   0.0000       0.149878         4.0784

MULLIKEN ATOMIC CHARGES
-----------------------
   0 Pd:    0.183515
   1 Cl:   -0.391914
   2 Cl:   -0.366601
   3 Cl:   -0.460755
   4 N :   -0.580690
   5 C :    0.036416
   6 C :   -0.341137
   7 C :   -0.156594
   8 C :    0.404714
   9 C :    0.055421
  10 H :    0.206701
  11 H :    0.285739
  12 H :    0.216736
  13 C :    0.023187
  14 C :   -0.305963
  15 C :   -0.295565
  16 C :    0.146518
  17 H :    0.190935
  18 H :    0.193142
  19 C :   -0.092807
  20 C :   -0.330936
  21 C :   -0.353246
  22 C :   -0.188394
  23 H :    0.183879
  24 H :    0.191237
  25 H :    0.326293
  26 H :    0.220168
Sum of atomic charges:   -1.0000000

LOEWDIN ATOMIC CHARGES
----------------------
   0 Pd:   -0.809433
   1 Cl:   -0.113520
   2 Cl:   -0.230883
   3 Cl:   -0.212694
   4 N :    0.043847
   5 C :    0.001618
   6 C :   -0.171977
   7 C :   -0.090462
   8 C :    0.091336
   9 C :   -0.060225
  10 H :    0.133012
  11 H :    0.169077
  12 H :    0.139043
  13 C :   -0.028468
  14 C :   -0.143707
  15 C :   -0.116217
  16 C :   -0.036072
  17 H :    0.128327
  18 H :    0.129735
  19 C :   -0.011188
  20 C :   -0.160956
  21 C :   -0.133655
  22 C :   -0.127413
  23 H :    0.122764
  24 H :    0.125074
  25 H :    0.220537
  26 H :    0.142499

  Mayer bond orders larger than 0.100000
B(  0-Pd,  1-Cl) :   0.7934 B(  0-Pd,  3-Cl) :   0.7026 B(  0-Pd,  4-N ) :   0.4239
B(  0-Pd, 19-C ) :   0.7840 B(  2-Cl, 25-H ) :   0.7968 B(  3-Cl, 19-C ) :   0.1030
B(  4-N ,  5-C ) :   1.4820 B(  4-N ,  8-C ) :   1.1252 B(  5-C ,  6-C ) :   1.3045
B(  5-C , 11-H ) :   0.8631 B(  6-C ,  7-C ) :   1.4574 B(  6-C , 12-H ) :   0.9221
B(  7-C ,  9-C ) :   1.2795 B(  7-C , 10-H ) :   0.9298 B(  8-C ,  9-C ) :   1.2290
B(  8-C , 13-C ) :   1.1447 B(  9-C , 14-C ) :   1.1652 B( 13-C , 16-C ) :   1.2632
B( 13-C , 19-C ) :   1.1890 B( 14-C , 15-C ) :   1.6489 B( 14-C , 17-H ) :   0.9305
B( 15-C , 16-C ) :   1.1556 B( 15-C , 18-H ) :   0.9291 B( 16-C , 20-C ) :   1.2822
B( 19-C , 21-C ) :   1.4484 B( 20-C , 22-C ) :   1.4903 B( 20-C , 23-H ) :   0.9313
B( 21-C , 22-C ) :   1.3529 B( 21-C , 26-H ) :   0.9106 B( 22-C , 24-H ) :   0.9256

Dispersion correction           -0.024009406
FINAL SINGLE POINT ENERGY     -2061.519642350111
Dispersion correction            ... done

DIPOLE MOMENT
-------------
                                X             Y             Z
Electronic contribution:    -77.52694     -46.85714      13.84366
Nuclear contribution   :     80.63946      50.04722     -13.80669
                        -----------------------------------------
Total Dipole Moment    :      3.11252       3.19009       0.03697
                        -----------------------------------------
Magnitude (a.u.)       :      4.45711
Magnitude (Debye)      :     11.32907

Rotational constants in cm-1:     0.011234     0.007779     0.005522
Rotational constants in MHz :   336.774399   233.198697   165.544342

                             ****ORCA TERMINATED NORMALLY****
TOTAL RUN TIME: 0 days 0 hours 8 minutes 5 seconds 789 msec
