                         Program Version 5.0.3 -  RELEASE  -
|  1> ! EnGrad PBEh-3c
|  2> %output
|  3> xyzfile=True
|  4> end
|  5> %scf
|  6> maxiter 250
|  7> end
|  8> %output
|  9> Print[P_Hirshfeld] = 1
| 10> end
| 11> % maxcore
| 12> 4000
| 13> *xyz -1 1
| 14> C   -1.73189995   0.04743958   0.56482455
| 15> C   -1.54172731   1.00151505   1.56639111
| 16> C   -2.89180201   0.12356820  -0.21200966
| 17> C   -3.82134162   1.13680333  -0.06161793
| 18> C   -3.62758180   2.09270330   0.91737109
| 19> C   -2.52515415   1.97862752   1.73880327
| 20> H   -1.61006853  -3.21349883  -2.24474945
| 21> H   -3.10725587  -0.63594298  -0.95083594
| 22> H   -2.47431681   2.64005326   2.59872307
| 23> H   -4.69926835   1.17139121  -0.69600072
| 24> H   -4.36489997   2.86943107   1.07919215
| 25> C   -0.45608127   0.97855211   2.61244337
| 26> C    0.84964974   0.22562348   2.40623296
| 27> H   -0.90382776   0.63373705   3.55301573
| 28> H   -0.16989828   2.01663381   2.81687053
| 29> C    1.58578837   0.66690179   1.17441660
| 30> H    0.66321590  -0.84956095   2.37497739
| 31> H    1.48689766   0.37138739   3.28748056
| 32> C    1.27478446   0.10017641  -0.06751435
| 33> C    1.98502619   0.54816194  -1.18067659
| 34> C    2.96671427   1.52790007  -1.08634188
| 35> C    2.62367235   1.58930443   1.27550615
| 36> C    3.26778647   2.07802273   0.14815193
| 37> H    1.83237178   0.09269261  -2.15231875
| 38> H    3.50646888   1.84401039  -1.97177824
| 39> H    2.93489076   1.93726115   2.25612416
| 40> H    4.03049573   2.84229453   0.23639278
| 41> Pd  -0.03566763  -1.38888971  -0.18259651
| 42> Br  -1.65202355  -3.50407098   0.19179723
| 43> P    1.55383556  -2.97186152  -0.40988605
| 44> H    1.85881734  -3.73852436   0.73092157
| 45> C   -0.08400462  -1.87581444  -3.64899799
| 46> O    0.97846414  -1.74348719  -4.19279017
| 47> O   -0.58410630  -3.03026491  -3.31777079
| 48> O   -0.95336053  -0.86917606  -3.52758450
| 49> H    2.88133529  -2.60615354  -0.70586558
| 50> H    1.44973015  -4.05410530  -1.29630769
| 51> H   -0.49570188  -0.03284991  -3.62399083
| 52> *
| 53>
| 54>                          ****END OF INPUT****

CARTESIAN COORDINATES (ANGSTROEM)
---------------------------------
  C     -1.731900    0.047440    0.564825
  C     -1.541727    1.001515    1.566391
  C     -2.891802    0.123568   -0.212010
  C     -3.821342    1.136803   -0.061618
  C     -3.627582    2.092703    0.917371
  C     -2.525154    1.978628    1.738803
  H     -1.610069   -3.213499   -2.244749
  H     -3.107256   -0.635943   -0.950836
  H     -2.474317    2.640053    2.598723
  H     -4.699268    1.171391   -0.696001
  H     -4.364900    2.869431    1.079192
  C     -0.456081    0.978552    2.612443
  C      0.849650    0.225623    2.406233
  H     -0.903828    0.633737    3.553016
  H     -0.169898    2.016634    2.816871
  C      1.585788    0.666902    1.174417
  H      0.663216   -0.849561    2.374977
  H      1.486898    0.371387    3.287481
  C      1.274784    0.100176   -0.067514
  C      1.985026    0.548162   -1.180677
  C      2.966714    1.527900   -1.086342
  C      2.623672    1.589304    1.275506
  C      3.267786    2.078023    0.148152
  H      1.832372    0.092693   -2.152319
  H      3.506469    1.844010   -1.971778
  H      2.934891    1.937261    2.256124
  H      4.030496    2.842295    0.236393
  Pd    -0.035668   -1.388890   -0.182597
  Br    -1.652024   -3.504071    0.191797
  P      1.553836   -2.971862   -0.409886
  H      1.858817   -3.738524    0.730922
  C     -0.084005   -1.875814   -3.648998
  O      0.978464   -1.743487   -4.192790
  O     -0.584106   -3.030265   -3.317771
  O     -0.953361   -0.869176   -3.527585
  H      2.881335   -2.606154   -0.705866
  H      1.449730   -4.054105   -1.296308
  H     -0.495702   -0.032850   -3.623991

 Total Charge           Charge          ....   -1
 Multiplicity           Mult            ....    1
 Number of Electrons    NEL             ....  200
 Basis Dimension        Dim             ....  385

ORBITAL ENERGIES
----------------

  NO   OCC          E(Eh)            E(eV)
   0   2.0000    -484.356040    -13179.9979
   1   2.0000     -77.659185     -2113.2139
   2   2.0000     -63.016936     -1714.7780
   3   2.0000     -56.720286     -1543.4375
   4   2.0000     -56.719964     -1543.4287
   5   2.0000     -56.719467     -1543.4152
   6   2.0000     -19.418424      -528.4022
   7   2.0000     -19.403488      -527.9958
   8   2.0000     -19.349326      -526.5219
   9   2.0000     -10.491317      -285.4832
  10   2.0000     -10.333407      -281.1863
  11   2.0000     -10.332762      -281.1687
  12   2.0000     -10.332523      -281.1622
  13   2.0000     -10.332114      -281.1511
  14   2.0000     -10.331637      -281.1381
  15   2.0000     -10.325890      -280.9818
  16   2.0000     -10.325640      -280.9750
  17   2.0000     -10.323327      -280.9120
  18   2.0000     -10.322345      -280.8853
  19   2.0000     -10.319378      -280.8046
  20   2.0000     -10.316833      -280.7353
  21   2.0000     -10.316079      -280.7148
  22   2.0000     -10.307694      -280.4866
  23   2.0000     -10.307112      -280.4708
  24   2.0000      -8.843859      -240.6536
  25   2.0000      -6.735348      -183.2781
  26   2.0000      -6.611917      -179.9194
  27   2.0000      -6.610660      -179.8852
  28   2.0000      -6.607462      -179.7982
  29   2.0000      -4.826253      -131.3290
  30   2.0000      -4.825982      -131.3216
  31   2.0000      -4.824416      -131.2790
  32   2.0000      -3.513694       -95.6125
  33   2.0000      -2.626747       -71.4774
  34   2.0000      -2.626698       -71.4761
  35   2.0000      -2.624034       -71.4036
  36   2.0000      -2.622923       -71.3734
  37   2.0000      -2.622208       -71.3539
  38   2.0000      -2.158161       -58.7265
  39   2.0000      -2.155208       -58.6462
  40   2.0000      -2.129946       -57.9588
  41   2.0000      -1.124684       -30.6042
  42   2.0000      -1.012911       -27.5627
  43   2.0000      -0.977705       -26.6047
  44   2.0000      -0.841594       -22.9009
  45   2.0000      -0.825258       -22.4564
  46   2.0000      -0.773872       -21.0581
  47   2.0000      -0.725848       -19.7513
  48   2.0000      -0.713349       -19.4112
  49   2.0000      -0.694404       -18.8957
  50   2.0000      -0.675936       -18.3931
  51   2.0000      -0.663658       -18.0590
  52   2.0000      -0.636027       -17.3072
  53   2.0000      -0.601293       -16.3620
  54   2.0000      -0.582992       -15.8640
  55   2.0000      -0.560566       -15.2538
  56   2.0000      -0.541366       -14.7313
  57   2.0000      -0.539415       -14.6782
  58   2.0000      -0.509262       -13.8577
  59   2.0000      -0.470929       -12.8146
  60   2.0000      -0.458386       -12.4733
  61   2.0000      -0.442028       -12.0282
  62   2.0000      -0.433017       -11.7830
  63   2.0000      -0.418261       -11.3815
  64   2.0000      -0.415422       -11.3042
  65   2.0000      -0.403549       -10.9811
  66   2.0000      -0.387041       -10.5319
  67   2.0000      -0.379675       -10.3315
  68   2.0000      -0.374511       -10.1910
  69   2.0000      -0.360219        -9.8021
  70   2.0000      -0.356732        -9.7072
  71   2.0000      -0.351689        -9.5700
  72   2.0000      -0.350861        -9.5474
  73   2.0000      -0.347542        -9.4571
  74   2.0000      -0.333729        -9.0812
  75   2.0000      -0.325977        -8.8703
  76   2.0000      -0.319628        -8.6975
  77   2.0000      -0.303472        -8.2579
  78   2.0000      -0.298671        -8.1272
  79   2.0000      -0.290579        -7.9071
  80   2.0000      -0.286699        -7.8015
  81   2.0000      -0.279419        -7.6034
  82   2.0000      -0.274488        -7.4692
  83   2.0000      -0.271000        -7.3743
  84   2.0000      -0.259812        -7.0699
  85   2.0000      -0.253481        -6.8976
  86   2.0000      -0.242620        -6.6020
  87   2.0000      -0.240634        -6.5480
  88   2.0000      -0.221084        -6.0160
  89   2.0000      -0.214383        -5.8337
  90   2.0000      -0.209637        -5.7045
  91   2.0000      -0.191668        -5.2156
  92   2.0000      -0.186262        -5.0684
  93   2.0000      -0.174853        -4.7580
  94   2.0000      -0.171031        -4.6540
  95   2.0000      -0.160331        -4.3628
  96   2.0000      -0.155911        -4.2426
  97   2.0000      -0.153144        -4.1673
  98   2.0000      -0.146116        -3.9760
  99   2.0000      -0.123583        -3.3629
 100   0.0000       0.078778         2.1436
 101   0.0000       0.102900         2.8001
 102   0.0000       0.130685         3.5561
 103   0.0000       0.132139         3.5957
 104   0.0000       0.146775         3.9939

MULLIKEN ATOMIC CHARGES
-----------------------
   0 C :   -0.063450
   1 C :    0.077992
   2 C :   -0.275768
   3 C :   -0.229537
   4 C :   -0.227657
   5 C :   -0.258016
   6 H :    0.372769
   7 H :    0.208911
   8 H :    0.164233
   9 H :    0.174731
  10 H :    0.171626
  11 C :   -0.459614
  12 C :   -0.521641
  13 H :    0.213175
  14 H :    0.202968
  15 C :    0.152397
  16 H :    0.266934
  17 H :    0.195834
  18 C :   -0.109495
  19 C :   -0.287395
  20 C :   -0.234631
  21 C :   -0.297058
  22 C :   -0.224161
  23 H :    0.221492
  24 H :    0.185748
  25 H :    0.174672
  26 H :    0.177028
  27 Pd:   -0.005264
  28 Br:   -0.469132
  29 P :   -0.139018
  30 H :    0.100049
  31 C :    0.688316
  32 O :   -0.470884
  33 O :   -0.553909
  34 O :   -0.592302
  35 H :    0.092893
  36 H :    0.129843
  37 H :    0.447321
Sum of atomic charges:   -1.0000000

LOEWDIN ATOMIC CHARGES
----------------------
   0 C :   -0.068786
   1 C :   -0.053200
   2 C :   -0.130186
   3 C :   -0.161883
   4 C :   -0.168836
   5 C :   -0.148480
   6 H :    0.362189
   7 H :    0.137345
   8 H :    0.113119
   9 H :    0.115756
  10 H :    0.114950
  11 C :   -0.212377
  12 C :   -0.210366
  13 H :    0.127324
  14 H :    0.123562
  15 C :   -0.034654
  16 H :    0.156932
  17 H :    0.117067
  18 C :   -0.010524
  19 C :   -0.138303
  20 C :   -0.152010
  21 C :   -0.145173
  22 C :   -0.167639
  23 H :    0.142809
  24 H :    0.121461
  25 H :    0.118955
  26 H :    0.117678
  27 Pd:   -0.888754
  28 Br:   -0.250373
  29 P :    0.385115
  30 H :    0.044278
  31 C :    0.094704
  32 O :   -0.280492
  33 O :   -0.309902
  34 O :   -0.292381
  35 H :    0.036621
  36 H :    0.058229
  37 H :    0.336225

  Mayer bond orders larger than 0.100000
B(  0-C ,  1-C ) :   1.4033 B(  0-C ,  2-C ) :   1.4050 B(  0-C , 27-Pd) :   0.6239
B(  1-C ,  5-C ) :   1.3673 B(  1-C , 11-C ) :   0.9630 B(  2-C ,  3-C ) :   1.4338
B(  2-C ,  7-H ) :   0.9130 B(  3-C ,  4-C ) :   1.4137 B(  3-C ,  9-H ) :   0.9275
B(  4-C ,  5-C ) :   1.4539 B(  4-C , 10-H ) :   0.9304 B(  5-C ,  8-H ) :   0.9305
B(  6-H , 28-Br) :   0.2408 B(  6-H , 33-O ) :   0.5502 B( 11-C , 12-C ) :   0.9896
B( 11-C , 13-H ) :   0.9104 B( 11-C , 14-H ) :   0.9203 B( 12-C , 15-C ) :   0.9575
B( 12-C , 16-H ) :   0.8811 B( 12-C , 17-H ) :   0.9257 B( 15-C , 18-C ) :   1.3449
B( 15-C , 21-C ) :   1.4083 B( 18-C , 19-C ) :   1.4029 B( 18-C , 27-Pd) :   0.8062
B( 19-C , 20-C ) :   1.4172 B( 19-C , 23-H ) :   0.9006 B( 20-C , 22-C ) :   1.4347
B( 20-C , 24-H ) :   0.9263 B( 21-C , 22-C ) :   1.4201 B( 21-C , 25-H ) :   0.9290
B( 22-C , 26-H ) :   0.9296 B( 27-Pd, 28-Br) :   0.4399 B( 27-Pd, 29-P ) :   0.5979
B( 29-P , 30-H ) :   0.9347 B( 29-P , 35-H ) :   0.9257 B( 29-P , 36-H ) :   0.9304
B( 31-C , 32-O ) :   1.9227 B( 31-C , 33-O ) :   1.2815 B( 31-C , 34-O ) :   1.0865
B( 34-O , 37-H ) :   0.7527

Dispersion correction           -0.032456074
FINAL SINGLE POINT ENERGY     -3847.644495801474
Dispersion correction            ... done

DIPOLE MOMENT
-------------
                                X             Y             Z
Electronic contribution:     -2.39118     -67.81225       0.49404
Nuclear contribution   :      3.32403      68.03577       0.54792
                        -----------------------------------------
Total Dipole Moment    :      0.93285       0.22352       1.04196
                        -----------------------------------------
Magnitude (a.u.)       :      1.41628
Magnitude (Debye)      :      3.59990

Rotational constants in cm-1:     0.007384     0.006266     0.004950
Rotational constants in MHz :   221.364353   187.843982   148.396200

                             ****ORCA TERMINATED NORMALLY****
TOTAL RUN TIME: 0 days 0 hours 13 minutes 22 seconds 991 msec
