                         Program Version 5.0.3 -  RELEASE  -
|  1> ! EnGrad PBEh-3c
|  2> %output
|  3> xyzfile=True
|  4> end
|  5> %scf
|  6> maxiter 250
|  7> end
|  8> %output
|  9> Print[P_Hirshfeld] = 1
| 10> end
| 11> % maxcore
| 12> 4000
| 13> *xyz -1 1
| 14> C   -1.66767595   0.02076580   0.52340585
| 15> C   -1.56730112   0.99435383   1.55136799
| 16> C   -2.91306734   0.10189173  -0.19408065
| 17> C   -3.86537322   1.10432825  -0.02531827
| 18> C   -3.66318576   2.06885537   0.94555577
| 19> C   -2.53970587   1.99327761   1.75372250
| 20> H   -1.52022083  -3.13991856  -2.32883537
| 21> H   -3.13085878  -0.65456157  -0.93394742
| 22> H   -2.46934998   2.65909904   2.58662357
| 23> H   -4.75162463   1.12047690  -0.63370567
| 24> H   -4.39789221   2.84411993   1.11525890
| 25> C   -0.44425375   1.01914344   2.60974483
| 26> C    0.84560464   0.22218544   2.38632904
| 27> H   -0.89401530   0.66567552   3.53884100
| 28> H   -0.16576960   2.03836552   2.77671868
| 29> C    1.59795898   0.65461743   1.16199965
| 30> H    0.65043566  -0.83940648   2.35542644
| 31> H    1.47677099   0.38175871   3.27147693
| 32> C    1.27745997   0.10997858  -0.09370354
| 33> C    2.01539806   0.53304843  -1.19721116
| 34> C    2.99192955   1.51722045  -1.08617956
| 35> C    2.62989528   1.59099255   1.26738900
| 36> C    3.29708283   2.06191594   0.14374554
| 37> H    1.86507944   0.07370251  -2.15846357
| 38> H    3.54919345   1.81733006  -1.96963916
| 39> H    2.94394522   1.92684568   2.25035062
| 40> H    4.05273479   2.83042267   0.23739048
| 41> Pd  -0.11885293  -1.35289789  -0.14329819
| 42> Br  -1.64362309  -3.49754840   0.15002475
| 43> P    1.56933038  -2.97644682  -0.40116381
| 44> H    1.82933832  -3.73315018   0.75790616
| 45> C   -0.11971970  -1.87102434  -3.67798584
| 46> O    1.03325783  -1.73470267  -4.18853539
| 47> O   -0.68077158  -3.04194693  -3.19796591
| 48> O   -0.94790131  -0.82678530  -3.52904367
| 49> H    2.88411297  -2.62124247  -0.67223402
| 50> H    1.44542870  -4.05814680  -1.28089285
| 51> H   -0.45606564  -0.00006062  -3.66779364
| 52> *
| 53>
| 54>                          ****END OF INPUT****

CARTESIAN COORDINATES (ANGSTROEM)
---------------------------------
  C     -1.667676    0.020766    0.523406
  C     -1.567301    0.994354    1.551368
  C     -2.913067    0.101892   -0.194081
  C     -3.865373    1.104328   -0.025318
  C     -3.663186    2.068855    0.945556
  C     -2.539706    1.993278    1.753723
  H     -1.520221   -3.139919   -2.328835
  H     -3.130859   -0.654562   -0.933947
  H     -2.469350    2.659099    2.586624
  H     -4.751625    1.120477   -0.633706
  H     -4.397892    2.844120    1.115259
  C     -0.444254    1.019143    2.609745
  C      0.845605    0.222185    2.386329
  H     -0.894015    0.665676    3.538841
  H     -0.165770    2.038366    2.776719
  C      1.597959    0.654617    1.162000
  H      0.650436   -0.839406    2.355426
  H      1.476771    0.381759    3.271477
  C      1.277460    0.109979   -0.093704
  C      2.015398    0.533048   -1.197211
  C      2.991930    1.517220   -1.086180
  C      2.629895    1.590993    1.267389
  C      3.297083    2.061916    0.143746
  H      1.865079    0.073703   -2.158464
  H      3.549193    1.817330   -1.969639
  H      2.943945    1.926846    2.250351
  H      4.052735    2.830423    0.237390
  Pd    -0.118853   -1.352898   -0.143298
  Br    -1.643623   -3.497548    0.150025
  P      1.569330   -2.976447   -0.401164
  H      1.829338   -3.733150    0.757906
  C     -0.119720   -1.871024   -3.677986
  O      1.033258   -1.734703   -4.188535
  O     -0.680772   -3.041947   -3.197966
  O     -0.947901   -0.826785   -3.529044
  H      2.884113   -2.621242   -0.672234
  H      1.445429   -4.058147   -1.280893
  H     -0.456066   -0.000061   -3.667794

 Total Charge           Charge          ....   -1
 Multiplicity           Mult            ....    1
 Number of Electrons    NEL             ....  200
 Basis Dimension        Dim             ....  385

ORBITAL ENERGIES
----------------

  NO   OCC          E(Eh)            E(eV)
   0   2.0000    -484.338854    -13179.5303
   1   2.0000     -77.655265     -2113.1072
   2   2.0000     -63.000011     -1714.3174
   3   2.0000     -56.703489     -1542.9804
   4   2.0000     -56.702863     -1542.9634
   5   2.0000     -56.702614     -1542.9566
   6   2.0000     -19.444179      -529.1030
   7   2.0000     -19.426725      -528.6281
   8   2.0000     -19.376686      -527.2664
   9   2.0000     -10.531872      -286.5868
  10   2.0000     -10.331205      -281.1264
  11   2.0000     -10.330818      -281.1159
  12   2.0000     -10.330208      -281.0993
  13   2.0000     -10.330038      -281.0946
  14   2.0000     -10.327400      -281.0228
  15   2.0000     -10.323894      -280.9274
  16   2.0000     -10.321645      -280.8662
  17   2.0000     -10.321060      -280.8503
  18   2.0000     -10.320639      -280.8389
  19   2.0000     -10.317808      -280.7618
  20   2.0000     -10.314666      -280.6763
  21   2.0000     -10.314220      -280.6642
  22   2.0000     -10.312452      -280.6161
  23   2.0000     -10.309677      -280.5406
  24   2.0000      -8.827125      -240.1983
  25   2.0000      -6.731846      -183.1828
  26   2.0000      -6.595386      -179.4696
  27   2.0000      -6.593338      -179.4138
  28   2.0000      -6.591284      -179.3579
  29   2.0000      -4.822791      -131.2348
  30   2.0000      -4.822511      -131.2272
  31   2.0000      -4.820684      -131.1775
  32   2.0000      -3.506540       -95.4178
  33   2.0000      -2.609875       -71.0183
  34   2.0000      -2.609579       -71.0102
  35   2.0000      -2.607895       -70.9644
  36   2.0000      -2.606107       -70.9158
  37   2.0000      -2.605783       -70.9070
  38   2.0000      -2.149599       -58.4936
  39   2.0000      -2.148803       -58.4719
  40   2.0000      -2.122437       -57.7544
  41   2.0000      -1.125464       -30.6254
  42   2.0000      -1.010852       -27.5067
  43   2.0000      -0.981523       -26.7086
  44   2.0000      -0.837742       -22.7961
  45   2.0000      -0.816205       -22.2101
  46   2.0000      -0.768608       -20.9149
  47   2.0000      -0.719805       -19.5869
  48   2.0000      -0.710751       -19.3405
  49   2.0000      -0.689484       -18.7618
  50   2.0000      -0.670661       -18.2496
  51   2.0000      -0.651968       -17.7409
  52   2.0000      -0.633272       -17.2322
  53   2.0000      -0.609030       -16.5726
  54   2.0000      -0.597604       -16.2616
  55   2.0000      -0.557654       -15.1745
  56   2.0000      -0.540126       -14.6976
  57   2.0000      -0.534819       -14.5532
  58   2.0000      -0.508773       -13.8444
  59   2.0000      -0.506125       -13.7724
  60   2.0000      -0.455513       -12.3951
  61   2.0000      -0.448749       -12.2111
  62   2.0000      -0.439760       -11.9665
  63   2.0000      -0.421230       -11.4623
  64   2.0000      -0.412323       -11.2199
  65   2.0000      -0.399624       -10.8743
  66   2.0000      -0.381099       -10.3702
  67   2.0000      -0.378636       -10.3032
  68   2.0000      -0.373692       -10.1687
  69   2.0000      -0.366931        -9.9847
  70   2.0000      -0.360760        -9.8168
  71   2.0000      -0.353667        -9.6238
  72   2.0000      -0.347347        -9.4518
  73   2.0000      -0.344413        -9.3720
  74   2.0000      -0.331254        -9.0139
  75   2.0000      -0.322993        -8.7891
  76   2.0000      -0.312475        -8.5029
  77   2.0000      -0.308425        -8.3927
  78   2.0000      -0.298889        -8.1332
  79   2.0000      -0.292323        -7.9545
  80   2.0000      -0.290157        -7.8956
  81   2.0000      -0.283793        -7.7224
  82   2.0000      -0.278380        -7.5751
  83   2.0000      -0.267167        -7.2700
  84   2.0000      -0.254860        -6.9351
  85   2.0000      -0.250111        -6.8059
  86   2.0000      -0.243889        -6.6366
  87   2.0000      -0.236762        -6.4426
  88   2.0000      -0.236084        -6.4242
  89   2.0000      -0.211373        -5.7517
  90   2.0000      -0.206910        -5.6303
  91   2.0000      -0.189794        -5.1646
  92   2.0000      -0.175727        -4.7818
  93   2.0000      -0.168740        -4.5916
  94   2.0000      -0.163464        -4.4481
  95   2.0000      -0.155911        -4.2426
  96   2.0000      -0.151911        -4.1337
  97   2.0000      -0.147944        -4.0258
  98   2.0000      -0.142928        -3.8893
  99   2.0000      -0.126574        -3.4442
 100   0.0000       0.113739         3.0950
 101   0.0000       0.129829         3.5328
 102   0.0000       0.133285         3.6269
 103   0.0000       0.136615         3.7175
 104   0.0000       0.149955         4.0805

MULLIKEN ATOMIC CHARGES
-----------------------
   0 C :   -0.033177
   1 C :    0.039737
   2 C :   -0.286342
   3 C :   -0.211346
   4 C :   -0.244118
   5 C :   -0.233197
   6 H :    0.453915
   7 H :    0.203233
   8 H :    0.170770
   9 H :    0.175324
  10 H :    0.168917
  11 C :   -0.457504
  12 C :   -0.523173
  13 H :    0.211607
  14 H :    0.209711
  15 C :    0.151087
  16 H :    0.271574
  17 H :    0.192472
  18 C :   -0.108613
  19 C :   -0.299427
  20 C :   -0.234249
  21 C :   -0.296278
  22 C :   -0.222471
  23 H :    0.217792
  24 H :    0.180872
  25 H :    0.172405
  26 H :    0.176769
  27 Pd:   -0.033210
  28 Br:   -0.514401
  29 P :   -0.135206
  30 H :    0.102648
  31 C :    0.752549
  32 O :   -0.496834
  33 O :   -0.630986
  34 O :   -0.570718
  35 H :    0.094081
  36 H :    0.127211
  37 H :    0.458574
Sum of atomic charges:   -1.0000000

LOEWDIN ATOMIC CHARGES
----------------------
   0 C :   -0.053343
   1 C :   -0.040924
   2 C :   -0.120026
   3 C :   -0.170913
   4 C :   -0.165618
   5 C :   -0.159457
   6 H :    0.384811
   7 H :    0.135256
   8 H :    0.116979
   9 H :    0.117271
  10 H :    0.112604
  11 C :   -0.217717
  12 C :   -0.211170
  13 H :    0.126819
  14 H :    0.124863
  15 C :   -0.034379
  16 H :    0.159130
  17 H :    0.115818
  18 C :   -0.014839
  19 C :   -0.145153
  20 C :   -0.152676
  21 C :   -0.146132
  22 C :   -0.169349
  23 H :    0.139497
  24 H :    0.119538
  25 H :    0.118035
  26 H :    0.117713
  27 Pd:   -0.897641
  28 Br:   -0.285237
  29 P :    0.361539
  30 H :    0.046428
  31 C :    0.213338
  32 O :   -0.325764
  33 O :   -0.360849
  34 O :   -0.278692
  35 H :    0.036670
  36 H :    0.057080
  37 H :    0.346491

  Mayer bond orders larger than 0.100000
B(  0-C ,  1-C ) :   1.3851 B(  0-C ,  2-C ) :   1.3721 B(  0-C , 27-Pd) :   0.6961
B(  1-C ,  5-C ) :   1.3590 B(  1-C , 11-C ) :   0.9642 B(  2-C ,  3-C ) :   1.4340
B(  2-C ,  7-H ) :   0.9156 B(  3-C ,  4-C ) :   1.4094 B(  3-C ,  9-H ) :   0.9291
B(  4-C ,  5-C ) :   1.4570 B(  4-C , 10-H ) :   0.9298 B(  5-C ,  8-H ) :   0.9299
B(  6-H , 28-Br) :   0.1521 B(  6-H , 33-O ) :   0.6031 B( 11-C , 12-C ) :   0.9901
B( 11-C , 13-H ) :   0.9124 B( 11-C , 14-H ) :   0.9184 B( 12-C , 15-C ) :   0.9614
B( 12-C , 16-H ) :   0.8787 B( 12-C , 17-H ) :   0.9252 B( 15-C , 18-C ) :   1.3425
B( 15-C , 21-C ) :   1.4117 B( 18-C , 19-C ) :   1.4160 B( 18-C , 27-Pd) :   0.7912
B( 19-C , 20-C ) :   1.4129 B( 19-C , 23-H ) :   0.9023 B( 20-C , 22-C ) :   1.4396
B( 20-C , 24-H ) :   0.9275 B( 21-C , 22-C ) :   1.4157 B( 21-C , 25-H ) :   0.9290
B( 22-C , 26-H ) :   0.9298 B( 27-Pd, 28-Br) :   0.4932 B( 27-Pd, 29-P ) :   0.5059
B( 29-P , 30-H ) :   0.9405 B( 29-P , 35-H ) :   0.9261 B( 29-P , 36-H ) :   0.9359
B( 31-C , 32-O ) :   1.8909 B( 31-C , 33-O ) :   1.1544 B( 31-C , 34-O ) :   1.1200
B( 34-O , 37-H ) :   0.7425

Dispersion correction           -0.031798470
FINAL SINGLE POINT ENERGY     -3847.692201852591
Dispersion correction            ... done

DIPOLE MOMENT
-------------
                                X             Y             Z
Electronic contribution:     -6.76788     -65.83079       1.92492
Nuclear contribution   :      7.77275      66.09389      -1.45145
                        -----------------------------------------
Total Dipole Moment    :      1.00487       0.26310       0.47347
                        -----------------------------------------
Magnitude (a.u.)       :      1.14156
Magnitude (Debye)      :      2.90161

Rotational constants in cm-1:     0.007387     0.006308     0.004944
Rotational constants in MHz :   221.459594   189.118728   148.231305

                             ****ORCA TERMINATED NORMALLY****
TOTAL RUN TIME: 0 days 0 hours 19 minutes 19 seconds 977 msec
