                         Program Version 5.0.3 -  RELEASE  -
|  1> ! EnGrad PBEh-3c
|  2> %output
|  3> xyzfile=True
|  4> end
|  5> %scf
|  6> maxiter 250
|  7> end
|  8> %output
|  9> Print[P_Hirshfeld] = 1
| 10> end
| 11> % maxcore
| 12> 4000
| 13> *xyz -1 1
| 14> C   -1.65647584   0.01920365   0.50921845
| 15> C   -1.56986507   0.99168598   1.54781757
| 16> C   -2.91529172   0.09293888  -0.18571616
| 17> C   -3.87720610   1.08962939  -0.00889079
| 18> C   -3.67589729   2.06065106   0.95828081
| 19> C   -2.54692068   1.99066652   1.75203619
| 20> H   -1.47940350  -3.10794270  -2.36871424
| 21> H   -3.14061909  -0.66260187  -0.92706082
| 22> H   -2.46663261   2.66865053   2.58464282
| 23> H   -4.77348965   1.10042817  -0.61038401
| 24> H   -4.41137225   2.83460461   1.12917890
| 25> C   -0.44367632   1.02665729   2.60181816
| 26> C    0.84427975   0.22603277   2.38006907
| 27> H   -0.89023783   0.67874325   3.53460657
| 28> H   -0.16239351   2.05195477   2.76181825
| 29> C    1.60345418   0.65154543   1.15543375
| 30> H    0.64443475  -0.83763677   2.34807911
| 31> H    1.47305433   0.38518790   3.26485860
| 32> C    1.27617032   0.11228000  -0.10092162
| 33> C    2.02634977   0.52806108  -1.20138673
| 34> C    3.00294958   1.51200598  -1.08875601
| 35> C    2.63198221   1.58983330   1.26411706
| 36> C    3.30742559   2.05585332   0.14364167
| 37> H    1.87760064   0.06580675  -2.16273610
| 38> H    3.56545394   1.80713045  -1.96841464
| 39> H    2.94713385   1.92328650   2.24827486
| 40> H    4.06191247   2.82574041   0.23770888
| 41> Pd  -0.14454253  -1.34088421  -0.12959507
| 42> Br  -1.64052203  -3.49455753   0.13536644
| 43> P    1.56858239  -2.97641133  -0.39627034
| 44> H    1.81797573  -3.73084252   0.76806295
| 45> C   -0.11557429  -1.87119186  -3.68477147
| 46> O    1.02092418  -1.73995454  -4.17471459
| 47> O   -0.71150302  -3.03209124  -3.15944989
| 48> O   -0.94108396  -0.81318147  -3.53318956
| 49> H    2.88797956  -2.62646626  -0.65974940
| 50> H    1.44438948  -4.06005615  -1.27508407
| 51> H   -0.44194705   0.00898945  -3.68463645
| 52> *
| 53>
| 54>                          ****END OF INPUT****

CARTESIAN COORDINATES (ANGSTROEM)
---------------------------------
  C     -1.656476    0.019204    0.509218
  C     -1.569865    0.991686    1.547818
  C     -2.915292    0.092939   -0.185716
  C     -3.877206    1.089629   -0.008891
  C     -3.675897    2.060651    0.958281
  C     -2.546921    1.990667    1.752036
  H     -1.479404   -3.107943   -2.368714
  H     -3.140619   -0.662602   -0.927061
  H     -2.466633    2.668651    2.584643
  H     -4.773490    1.100428   -0.610384
  H     -4.411372    2.834605    1.129179
  C     -0.443676    1.026657    2.601818
  C      0.844280    0.226033    2.380069
  H     -0.890238    0.678743    3.534607
  H     -0.162394    2.051955    2.761818
  C      1.603454    0.651545    1.155434
  H      0.644435   -0.837637    2.348079
  H      1.473054    0.385188    3.264859
  C      1.276170    0.112280   -0.100922
  C      2.026350    0.528061   -1.201387
  C      3.002950    1.512006   -1.088756
  C      2.631982    1.589833    1.264117
  C      3.307426    2.055853    0.143642
  H      1.877601    0.065807   -2.162736
  H      3.565454    1.807130   -1.968415
  H      2.947134    1.923286    2.248275
  H      4.061912    2.825740    0.237709
  Pd    -0.144543   -1.340884   -0.129595
  Br    -1.640522   -3.494558    0.135366
  P      1.568582   -2.976411   -0.396270
  H      1.817976   -3.730843    0.768063
  C     -0.115574   -1.871192   -3.684771
  O      1.020924   -1.739955   -4.174715
  O     -0.711503   -3.032091   -3.159450
  O     -0.941084   -0.813181   -3.533190
  H      2.887980   -2.626466   -0.659749
  H      1.444389   -4.060056   -1.275084
  H     -0.441947    0.008989   -3.684636

 Total Charge           Charge          ....   -1
 Multiplicity           Mult            ....    1
 Number of Electrons    NEL             ....  200
 Basis Dimension        Dim             ....  385

ORBITAL ENERGIES
----------------

  NO   OCC          E(Eh)            E(eV)
   0   2.0000    -484.332923    -13179.3689
   1   2.0000     -77.654176     -2113.0775
   2   2.0000     -62.994164     -1714.1583
   3   2.0000     -56.697685     -1542.8225
   4   2.0000     -56.696958     -1542.8027
   5   2.0000     -56.696786     -1542.7980
   6   2.0000     -19.444931      -529.1235
   7   2.0000     -19.425273      -528.5886
   8   2.0000     -19.388502      -527.5880
   9   2.0000     -10.539228      -286.7870
  10   2.0000     -10.330640      -281.1110
  11   2.0000     -10.330269      -281.1009
  12   2.0000     -10.329777      -281.0875
  13   2.0000     -10.328958      -281.0652
  14   2.0000     -10.325991      -280.9845
  15   2.0000     -10.324024      -280.9310
  16   2.0000     -10.321177      -280.8535
  17   2.0000     -10.320768      -280.8424
  18   2.0000     -10.320354      -280.8311
  19   2.0000     -10.316846      -280.7357
  20   2.0000     -10.314595      -280.6744
  21   2.0000     -10.314165      -280.6627
  22   2.0000     -10.312891      -280.6280
  23   2.0000     -10.309321      -280.5309
  24   2.0000      -8.821335      -240.0407
  25   2.0000      -6.730636      -183.1499
  26   2.0000      -6.589778      -179.3170
  27   2.0000      -6.587240      -179.2479
  28   2.0000      -6.585667      -179.2051
  29   2.0000      -4.821578      -131.2018
  30   2.0000      -4.821305      -131.1944
  31   2.0000      -4.819436      -131.1435
  32   2.0000      -3.504474       -95.3616
  33   2.0000      -2.604142       -70.8623
  34   2.0000      -2.603670       -70.8494
  35   2.0000      -2.602386       -70.8145
  36   2.0000      -2.600185       -70.7546
  37   2.0000      -2.599990       -70.7493
  38   2.0000      -2.147307       -58.4312
  39   2.0000      -2.146998       -58.4228
  40   2.0000      -2.120239       -57.6946
  41   2.0000      -1.128371       -30.7045
  42   2.0000      -1.017800       -27.6957
  43   2.0000      -0.998274       -27.1644
  44   2.0000      -0.836736       -22.7688
  45   2.0000      -0.814837       -22.1729
  46   2.0000      -0.767367       -20.8811
  47   2.0000      -0.718377       -19.5480
  48   2.0000      -0.709705       -19.3121
  49   2.0000      -0.689129       -18.7521
  50   2.0000      -0.669221       -18.2104
  51   2.0000      -0.648057       -17.6345
  52   2.0000      -0.631072       -17.1723
  53   2.0000      -0.615372       -16.7451
  54   2.0000      -0.596310       -16.2264
  55   2.0000      -0.556846       -15.1526
  56   2.0000      -0.538546       -14.6546
  57   2.0000      -0.533661       -14.5217
  58   2.0000      -0.523385       -14.2420
  59   2.0000      -0.505197       -13.7471
  60   2.0000      -0.454850       -12.3771
  61   2.0000      -0.454470       -12.3668
  62   2.0000      -0.438439       -11.9305
  63   2.0000      -0.425266       -11.5721
  64   2.0000      -0.411375       -11.1941
  65   2.0000      -0.398543       -10.8449
  66   2.0000      -0.380094       -10.3429
  67   2.0000      -0.378804       -10.3078
  68   2.0000      -0.377542       -10.2734
  69   2.0000      -0.371021       -10.0960
  70   2.0000      -0.359715        -9.7883
  71   2.0000      -0.352717        -9.5979
  72   2.0000      -0.345465        -9.4006
  73   2.0000      -0.343507        -9.3473
  74   2.0000      -0.330809        -9.0018
  75   2.0000      -0.321669        -8.7531
  76   2.0000      -0.311891        -8.4870
  77   2.0000      -0.311243        -8.4693
  78   2.0000      -0.297669        -8.1000
  79   2.0000      -0.292962        -7.9719
  80   2.0000      -0.290234        -7.8977
  81   2.0000      -0.282444        -7.6857
  82   2.0000      -0.277422        -7.5490
  83   2.0000      -0.266705        -7.2574
  84   2.0000      -0.263518        -7.1707
  85   2.0000      -0.249852        -6.7988
  86   2.0000      -0.248411        -6.7596
  87   2.0000      -0.242881        -6.6091
  88   2.0000      -0.234988        -6.3944
  89   2.0000      -0.210170        -5.7190
  90   2.0000      -0.205239        -5.5848
  91   2.0000      -0.189800        -5.1647
  92   2.0000      -0.171767        -4.6740
  93   2.0000      -0.168382        -4.5819
  94   2.0000      -0.158952        -4.3253
  95   2.0000      -0.154889        -4.2147
  96   2.0000      -0.150106        -4.0846
  97   2.0000      -0.145365        -3.9556
  98   2.0000      -0.141494        -3.8503
  99   2.0000      -0.125162        -3.4058
 100   0.0000       0.116929         3.1818
 101   0.0000       0.132130         3.5954
 102   0.0000       0.134859         3.6697
 103   0.0000       0.142071         3.8660
 104   0.0000       0.150721         4.1013

MULLIKEN ATOMIC CHARGES
-----------------------
   0 C :   -0.025909
   1 C :    0.041576
   2 C :   -0.283181
   3 C :   -0.213274
   4 C :   -0.242318
   5 C :   -0.232823
   6 H :    0.478551
   7 H :    0.202836
   8 H :    0.169341
   9 H :    0.174498
  10 H :    0.169349
  11 C :   -0.457598
  12 C :   -0.523053
  13 H :    0.211733
  14 H :    0.208327
  15 C :    0.148847
  16 H :    0.271651
  17 H :    0.192474
  18 C :   -0.106584
  19 C :   -0.304447
  20 C :   -0.232012
  21 C :   -0.293410
  22 C :   -0.224941
  23 H :    0.213288
  24 H :    0.179777
  25 H :    0.171687
  26 H :    0.176542
  27 Pd:   -0.040716
  28 Br:   -0.525597
  29 P :   -0.137633
  30 H :    0.103448
  31 C :    0.756194
  32 O :   -0.468055
  33 O :   -0.658732
  34 O :   -0.574164
  35 H :    0.092049
  36 H :    0.125677
  37 H :    0.456602
Sum of atomic charges:   -1.0000000

LOEWDIN ATOMIC CHARGES
----------------------
   0 C :   -0.047409
   1 C :   -0.039018
   2 C :   -0.118212
   3 C :   -0.171046
   4 C :   -0.166945
   5 C :   -0.159461
   6 H :    0.378128
   7 H :    0.135732
   8 H :    0.116568
   9 H :    0.116991
  10 H :    0.112737
  11 C :   -0.217374
  12 C :   -0.211463
  13 H :    0.126840
  14 H :    0.124628
  15 C :   -0.034983
  16 H :    0.159764
  17 H :    0.115744
  18 C :   -0.017144
  19 C :   -0.146378
  20 C :   -0.153730
  21 C :   -0.146343
  22 C :   -0.169640
  23 H :    0.137174
  24 H :    0.119053
  25 H :    0.117866
  26 H :    0.117507
  27 Pd:   -0.898346
  28 Br:   -0.293377
  29 P :    0.352734
  30 H :    0.047008
  31 C :    0.223578
  32 O :   -0.291716
  33 O :   -0.370718
  34 O :   -0.285150
  35 H :    0.035191
  36 H :    0.056103
  37 H :    0.345105

  Mayer bond orders larger than 0.100000
B(  0-C ,  1-C ) :   1.3794 B(  0-C ,  2-C ) :   1.3674 B(  0-C , 27-Pd) :   0.7206
B(  1-C ,  5-C ) :   1.3558 B(  1-C , 11-C ) :   0.9638 B(  2-C ,  3-C ) :   1.4330
B(  2-C ,  7-H ) :   0.9158 B(  3-C ,  4-C ) :   1.4077 B(  3-C ,  9-H ) :   0.9295
B(  4-C ,  5-C ) :   1.4575 B(  4-C , 10-H ) :   0.9295 B(  5-C ,  8-H ) :   0.9305
B(  6-H , 28-Br) :   0.1220 B(  6-H , 33-O ) :   0.6179 B( 11-C , 12-C ) :   0.9899
B( 11-C , 13-H ) :   0.9120 B( 11-C , 14-H ) :   0.9188 B( 12-C , 15-C ) :   0.9618
B( 12-C , 16-H ) :   0.8781 B( 12-C , 17-H ) :   0.9247 B( 15-C , 18-C ) :   1.3422
B( 15-C , 21-C ) :   1.4106 B( 18-C , 19-C ) :   1.4159 B( 18-C , 27-Pd) :   0.7848
B( 19-C , 20-C ) :   1.4144 B( 19-C , 23-H ) :   0.9051 B( 20-C , 22-C ) :   1.4387
B( 20-C , 24-H ) :   0.9278 B( 21-C , 22-C ) :   1.4171 B( 21-C , 25-H ) :   0.9291
B( 22-C , 26-H ) :   0.9297 B( 27-Pd, 28-Br) :   0.5124 B( 27-Pd, 29-P ) :   0.4786
B( 29-P , 30-H ) :   0.9419 B( 29-P , 35-H ) :   0.9256 B( 29-P , 36-H ) :   0.9368
B( 31-C , 32-O ) :   1.9342 B( 31-C , 33-O ) :   1.1125 B( 31-C , 34-O ) :   1.1127
B( 34-O , 37-H ) :   0.7443

Dispersion correction           -0.031743513
FINAL SINGLE POINT ENERGY     -3847.709698249374
Dispersion correction            ... done

DIPOLE MOMENT
-------------
                                X             Y             Z
Electronic contribution:     -8.01327     -65.16743       2.38974
Nuclear contribution   :      9.11764      65.44816      -2.13867
                        -----------------------------------------
Total Dipole Moment    :      1.10437       0.28073       0.25107
                        -----------------------------------------
Magnitude (a.u.)       :      1.16683
Magnitude (Debye)      :      2.96584

Rotational constants in cm-1:     0.007398     0.006330     0.004948
Rotational constants in MHz :   221.801047   189.771853   148.351753

                             ****ORCA TERMINATED NORMALLY****
TOTAL RUN TIME: 0 days 0 hours 17 minutes 47 seconds 49 msec
