                         Program Version 5.0.3 -  RELEASE  -
|  1> ! EnGrad PBEh-3c
|  2> %output
|  3> xyzfile=True
|  4> end
|  5> %scf
|  6> maxiter 250
|  7> end
|  8> %output
|  9> Print[P_Hirshfeld] = 1
| 10> end
| 11> % maxcore
| 12> 4000
| 13> *xyz -1 1
| 14> C   -1.65142489   0.02350862   0.49505462
| 15> C   -1.56941093   0.98868230   1.54330543
| 16> C   -2.91638909   0.08171713  -0.17580611
| 17> C   -3.88981792   1.07016435   0.01249289
| 18> C   -3.69198109   2.05009460   0.97371094
| 19> C   -2.55482730   1.98403887   1.74928798
| 20> H   -1.43058600  -3.06526005  -2.41760299
| 21> H   -3.15303302  -0.67309674  -0.91752616
| 22> H   -2.46290775   2.68003848   2.58155539
| 23> H   -4.80046807   1.07484174  -0.58079746
| 24> H   -4.42866467   2.82281134   1.14669764
| 25> C   -0.44438763   1.03350619   2.58872631
| 26> C    0.84262877   0.23249269   2.37228804
| 27> H   -0.88544914   0.69570910   3.52986248
| 28> H   -0.15772743   2.07002314   2.74293608
| 29> C    1.60980665   0.64881705   1.14668077
| 30> H    0.63652156  -0.83563567   2.33915755
| 31> H    1.46871218   0.38925234   3.25666592
| 32> C    1.27342656   0.11429787  -0.10820579
| 33> C    2.03893105   0.52199597  -1.20548660
| 34> C    3.01749040   1.50458504  -1.09232693
| 35> C    2.63527911   1.58747724   1.26013406
| 36> C    3.31958545   2.04834143   0.14361523
| 37> H    1.89323930   0.05586465  -2.16882642
| 38> H    3.58588680   1.79460463  -1.96711202
| 39> H    2.95072095   1.91909712   2.24559169
| 40> H    4.07374682   2.81967011   0.23813557
| 41> Pd  -0.17075315  -1.32791175  -0.11468957
| 42> Br  -1.63689428  -3.49064210   0.11876426
| 43> P    1.56369335  -2.97528666  -0.38907667
| 44> H    1.80372023  -3.72769881   0.78037003
| 45> C   -0.11384818  -1.86986340  -3.68245187
| 46> O    0.99713014  -1.75226725  -4.15586470
| 47> O   -0.73803637  -3.01221868  -3.12426813
| 48> O   -0.92907973  -0.79905774  -3.54121240
| 49> H    2.89398531  -2.63275692  -0.64426252
| 50> H    1.44359658  -4.06254243  -1.26772094
| 51> H   -0.42508117   0.01797299  -3.70557119
| 52> *
| 53>
| 54>                          ****END OF INPUT****

CARTESIAN COORDINATES (ANGSTROEM)
---------------------------------
  C     -1.651425    0.023509    0.495055
  C     -1.569411    0.988682    1.543305
  C     -2.916389    0.081717   -0.175806
  C     -3.889818    1.070164    0.012493
  C     -3.691981    2.050095    0.973711
  C     -2.554827    1.984039    1.749288
  H     -1.430586   -3.065260   -2.417603
  H     -3.153033   -0.673097   -0.917526
  H     -2.462908    2.680038    2.581555
  H     -4.800468    1.074842   -0.580797
  H     -4.428665    2.822811    1.146698
  C     -0.444388    1.033506    2.588726
  C      0.842629    0.232493    2.372288
  H     -0.885449    0.695709    3.529862
  H     -0.157727    2.070023    2.742936
  C      1.609807    0.648817    1.146681
  H      0.636522   -0.835636    2.339158
  H      1.468712    0.389252    3.256666
  C      1.273427    0.114298   -0.108206
  C      2.038931    0.521996   -1.205487
  C      3.017490    1.504585   -1.092327
  C      2.635279    1.587477    1.260134
  C      3.319585    2.048341    0.143615
  H      1.893239    0.055865   -2.168826
  H      3.585887    1.794605   -1.967112
  H      2.950721    1.919097    2.245592
  H      4.073747    2.819670    0.238136
  Pd    -0.170753   -1.327912   -0.114690
  Br    -1.636894   -3.490642    0.118764
  P      1.563693   -2.975287   -0.389077
  H      1.803720   -3.727699    0.780370
  C     -0.113848   -1.869863   -3.682452
  O      0.997130   -1.752267   -4.155865
  O     -0.738036   -3.012219   -3.124268
  O     -0.929080   -0.799058   -3.541212
  H      2.893985   -2.632757   -0.644263
  H      1.443597   -4.062542   -1.267721
  H     -0.425081    0.017973   -3.705571

 Total Charge           Charge          ....   -1
 Multiplicity           Mult            ....    1
 Number of Electrons    NEL             ....  200
 Basis Dimension        Dim             ....  385

ORBITAL ENERGIES
----------------

  NO   OCC          E(Eh)            E(eV)
   0   2.0000    -484.327910    -13179.2325
   1   2.0000     -77.653403     -2113.0565
   2   2.0000     -62.989225     -1714.0239
   3   2.0000     -56.692786     -1542.6891
   4   2.0000     -56.691971     -1542.6670
   5   2.0000     -56.691860     -1542.6640
   6   2.0000     -19.444025      -529.0988
   7   2.0000     -19.420416      -528.4564
   8   2.0000     -19.396620      -527.8089
   9   2.0000     -10.542597      -286.8787
  10   2.0000     -10.330396      -281.1044
  11   2.0000     -10.329834      -281.0891
  12   2.0000     -10.329271      -281.0738
  13   2.0000     -10.327785      -281.0333
  14   2.0000     -10.324758      -280.9509
  15   2.0000     -10.323939      -280.9287
  16   2.0000     -10.321727      -280.8685
  17   2.0000     -10.320995      -280.8486
  18   2.0000     -10.320141      -280.8253
  19   2.0000     -10.316275      -280.7201
  20   2.0000     -10.315090      -280.6879
  21   2.0000     -10.314605      -280.6747
  22   2.0000     -10.312565      -280.6192
  23   2.0000     -10.308755      -280.5155
  24   2.0000      -8.816444      -239.9076
  25   2.0000      -6.729551      -183.1204
  26   2.0000      -6.585047      -179.1882
  27   2.0000      -6.582079      -179.1075
  28   2.0000      -6.580923      -179.0760
  29   2.0000      -4.820483      -131.1720
  30   2.0000      -4.820231      -131.1652
  31   2.0000      -4.818331      -131.1135
  32   2.0000      -3.502719       -95.3138
  33   2.0000      -2.599333       -70.7315
  34   2.0000      -2.598680       -70.7137
  35   2.0000      -2.597741       -70.6881
  36   2.0000      -2.595170       -70.6182
  37   2.0000      -2.595061       -70.6152
  38   2.0000      -2.146084       -58.3979
  39   2.0000      -2.144804       -58.3631
  40   2.0000      -2.118394       -57.6444
  41   2.0000      -1.136992       -30.9391
  42   2.0000      -1.029820       -28.0228
  43   2.0000      -1.017885       -27.6980
  44   2.0000      -0.835853       -22.7447
  45   2.0000      -0.814488       -22.1633
  46   2.0000      -0.766494       -20.8574
  47   2.0000      -0.717497       -19.5241
  48   2.0000      -0.708621       -19.2826
  49   2.0000      -0.689655       -18.7665
  50   2.0000      -0.668132       -18.1808
  51   2.0000      -0.645156       -17.5556
  52   2.0000      -0.629565       -17.1313
  53   2.0000      -0.625663       -17.0251
  54   2.0000      -0.595135       -16.1945
  55   2.0000      -0.556200       -15.1350
  56   2.0000      -0.540260       -14.7012
  57   2.0000      -0.537231       -14.6188
  58   2.0000      -0.532729       -14.4963
  59   2.0000      -0.504404       -13.7255
  60   2.0000      -0.460428       -12.5289
  61   2.0000      -0.454117       -12.3572
  62   2.0000      -0.437091       -11.8939
  63   2.0000      -0.432581       -11.7711
  64   2.0000      -0.410499       -11.1703
  65   2.0000      -0.397655       -10.8207
  66   2.0000      -0.387518       -10.5449
  67   2.0000      -0.379360       -10.3229
  68   2.0000      -0.377373       -10.2688
  69   2.0000      -0.370096       -10.0708
  70   2.0000      -0.357445        -9.7266
  71   2.0000      -0.351267        -9.5585
  72   2.0000      -0.344032        -9.3616
  73   2.0000      -0.342356        -9.3160
  74   2.0000      -0.330589        -8.9958
  75   2.0000      -0.320271        -8.7150
  76   2.0000      -0.316932        -8.6242
  77   2.0000      -0.310719        -8.4551
  78   2.0000      -0.297268        -8.0891
  79   2.0000      -0.295058        -8.0289
  80   2.0000      -0.288934        -7.8623
  81   2.0000      -0.281382        -7.6568
  82   2.0000      -0.277109        -7.5405
  83   2.0000      -0.274294        -7.4639
  84   2.0000      -0.264050        -7.1852
  85   2.0000      -0.258421        -7.0320
  86   2.0000      -0.248436        -6.7603
  87   2.0000      -0.243208        -6.6180
  88   2.0000      -0.234163        -6.3719
  89   2.0000      -0.209099        -5.6899
  90   2.0000      -0.203368        -5.5339
  91   2.0000      -0.190287        -5.1780
  92   2.0000      -0.168799        -4.5933
  93   2.0000      -0.167875        -4.5681
  94   2.0000      -0.155538        -4.2324
  95   2.0000      -0.153293        -4.1713
  96   2.0000      -0.148555        -4.0424
  97   2.0000      -0.143017        -3.8917
  98   2.0000      -0.139793        -3.8040
  99   2.0000      -0.123866        -3.3706
 100   0.0000       0.119628         3.2552
 101   0.0000       0.133013         3.6195
 102   0.0000       0.135753         3.6940
 103   0.0000       0.145659         3.9636
 104   0.0000       0.151669         4.1271

MULLIKEN ATOMIC CHARGES
-----------------------
   0 C :   -0.020478
   1 C :    0.050187
   2 C :   -0.277844
   3 C :   -0.217929
   4 C :   -0.238178
   5 C :   -0.236047
   6 H :    0.491741
   7 H :    0.203185
   8 H :    0.166826
   9 H :    0.173059
  10 H :    0.170472
  11 C :   -0.458005
  12 C :   -0.522791
  13 H :    0.211892
  14 H :    0.205712
  15 C :    0.145719
  16 H :    0.271085
  17 H :    0.192825
  18 C :   -0.103565
  19 C :   -0.310899
  20 C :   -0.228720
  21 C :   -0.289320
  22 C :   -0.228448
  23 H :    0.208609
  24 H :    0.179126
  25 H :    0.171131
  26 H :    0.176217
  27 Pd:   -0.048407
  28 Br:   -0.532151
  29 P :   -0.140404
  30 H :    0.104070
  31 C :    0.750812
  32 O :   -0.436039
  33 O :   -0.673571
  34 O :   -0.577518
  35 H :    0.089077
  36 H :    0.123948
  37 H :    0.454619
Sum of atomic charges:   -1.0000000

LOEWDIN ATOMIC CHARGES
----------------------
   0 C :   -0.042207
   1 C :   -0.038131
   2 C :   -0.117004
   3 C :   -0.169739
   4 C :   -0.169153
   5 C :   -0.157668
   6 H :    0.357765
   7 H :    0.136760
   8 H :    0.115513
   9 H :    0.116293
  10 H :    0.113297
  11 C :   -0.215844
  12 C :   -0.211714
  13 H :    0.126873
  14 H :    0.124177
  15 C :   -0.035953
  16 H :    0.160369
  17 H :    0.115756
  18 C :   -0.019827
  19 C :   -0.146992
  20 C :   -0.155138
  21 C :   -0.146652
  22 C :   -0.169695
  23 H :    0.134775
  24 H :    0.118744
  25 H :    0.117813
  26 H :    0.117202
  27 Pd:   -0.898690
  28 Br:   -0.297170
  29 P :    0.344222
  30 H :    0.047368
  31 C :    0.218643
  32 O :   -0.252868
  33 O :   -0.364165
  34 O :   -0.288777
  35 H :    0.033184
  36 H :    0.054935
  37 H :    0.343702

  Mayer bond orders larger than 0.100000
B(  0-C ,  1-C ) :   1.3756 B(  0-C ,  2-C ) :   1.3657 B(  0-C , 27-Pd) :   0.7438
B(  1-C ,  5-C ) :   1.3532 B(  1-C , 11-C ) :   0.9629 B(  2-C ,  3-C ) :   1.4313
B(  2-C ,  7-H ) :   0.9157 B(  3-C ,  4-C ) :   1.4067 B(  3-C ,  9-H ) :   0.9299
B(  4-C ,  5-C ) :   1.4572 B(  4-C , 10-H ) :   0.9291 B(  5-C ,  8-H ) :   0.9313
B(  6-H , 33-O ) :   0.6366 B( 11-C , 12-C ) :   0.9894 B( 11-C , 13-H ) :   0.9112
B( 11-C , 14-H ) :   0.9194 B( 12-C , 15-C ) :   0.9616 B( 12-C , 16-H ) :   0.8775
B( 12-C , 17-H ) :   0.9241 B( 15-C , 18-C ) :   1.3425 B( 15-C , 21-C ) :   1.4084
B( 18-C , 19-C ) :   1.4131 B( 18-C , 27-Pd) :   0.7782 B( 19-C , 20-C ) :   1.4169
B( 19-C , 23-H ) :   0.9079 B( 20-C , 22-C ) :   1.4368 B( 20-C , 24-H ) :   0.9279
B( 21-C , 22-C ) :   1.4196 B( 21-C , 25-H ) :   0.9293 B( 22-C , 26-H ) :   0.9297
B( 27-Pd, 28-Br) :   0.5316 B( 27-Pd, 29-P ) :   0.4527 B( 29-P , 30-H ) :   0.9429
B( 29-P , 35-H ) :   0.9250 B( 29-P , 36-H ) :   0.9374 B( 31-C , 32-O ) :   1.9822
B( 31-C , 33-O ) :   1.0829 B( 31-C , 34-O ) :   1.1074 B( 34-O , 37-H ) :   0.7461

Dispersion correction           -0.031770609
FINAL SINGLE POINT ENERGY     -3847.721946657776
Dispersion correction            ... done

DIPOLE MOMENT
-------------
                                X             Y             Z
Electronic contribution:     -9.29129     -64.44436       2.94547
Nuclear contribution   :     10.47829      64.75233      -2.88467
                        -----------------------------------------
Total Dipole Moment    :      1.18700       0.30797       0.06080
                        -----------------------------------------
Magnitude (a.u.)       :      1.22780
Magnitude (Debye)      :      3.12083

Rotational constants in cm-1:     0.007415     0.006359     0.004955
Rotational constants in MHz :   222.290314   190.630505   148.550787

                             ****ORCA TERMINATED NORMALLY****
TOTAL RUN TIME: 0 days 0 hours 13 minutes 21 seconds 260 msec
