                         Program Version 5.0.3 -  RELEASE  -
|  1> ! EnGrad PBEh-3c
|  2> %output
|  3> xyzfile=True
|  4> end
|  5> %scf
|  6> maxiter 250
|  7> end
|  8> %output
|  9> Print[P_Hirshfeld] = 1
| 10> end
| 11> % maxcore
| 12> 4000
| 13> *xyz -1 1
| 14> C   -1.64862755   0.04107156   0.47001488
| 15> C   -1.56608611   0.98395521   1.53115612
| 16> C   -2.92000646   0.05803943  -0.15759009
| 17> C   -3.91700708   1.02521957   0.05906168
| 18> C   -3.72797640   2.02391623   1.00573135
| 19> C   -2.56769294   1.96764730   1.74883015
| 20> H   -1.34961780  -2.96286035  -2.49776273
| 21> H   -3.17917833  -0.69698552  -0.89496319
| 22> H   -2.45341793   2.70128343   2.57006552
| 23> H   -4.85645142   1.01656258  -0.51328585
| 24> H   -4.46733411   2.79675118   1.18566294
| 25> C   -0.44506392   1.05070395   2.55855197
| 26> C    0.83878945   0.24544050   2.35362362
| 27> H   -0.87452994   0.73412375   3.51935576
| 28> H   -0.14833982   2.10747494   2.69991568
| 29> C    1.62143846   0.64398920   1.12795539
| 30> H    0.61876582  -0.82948357   2.32013506
| 31> H    1.45948356   0.39855688   3.23937289
| 32> C    1.26562160   0.11800349  -0.12274649
| 33> C    2.06365938   0.50770687  -1.21384627
| 34> C    3.05010050   1.48607900  -1.09833176
| 35> C    2.64478870   1.58145483   1.25156639
| 36> C    3.34557404   2.03180758   0.14231245
| 37> H    1.92741133   0.03435745  -2.18252684
| 38> H    3.63139816   1.76756030  -1.96543246
| 39> H    2.95703506   1.91075143   2.23934405
| 40> H    4.10050466   2.80523059   0.23937729
| 41> Pd  -0.22187117  -1.30196090  -0.08291619
| 42> Br  -1.62960497  -3.48038482   0.08284622
| 43> P    1.54890883  -2.97082961  -0.37205947
| 44> H    1.77166173  -3.71976789   0.80665042
| 45> C   -0.14133313  -1.86456516  -3.64974280
| 46> O    0.95535758  -1.79090936  -4.12005204
| 47> O   -0.74720864  -2.95913013  -3.09671303
| 48> O   -0.90278136  -0.77066761  -3.56030972
| 49> H    2.90735199  -2.64681503  -0.61006886
| 50> H    1.44247537  -4.06758093  -1.25114174
| 51> H   -0.38845817   0.03352157  -3.75179673
| 52> *
| 53>
| 54>                          ****END OF INPUT****

CARTESIAN COORDINATES (ANGSTROEM)
---------------------------------
  C     -1.648628    0.041072    0.470015
  C     -1.566086    0.983955    1.531156
  C     -2.920006    0.058039   -0.157590
  C     -3.917007    1.025220    0.059062
  C     -3.727976    2.023916    1.005731
  C     -2.567693    1.967647    1.748830
  H     -1.349618   -2.962860   -2.497763
  H     -3.179178   -0.696986   -0.894963
  H     -2.453418    2.701283    2.570066
  H     -4.856451    1.016563   -0.513286
  H     -4.467334    2.796751    1.185663
  C     -0.445064    1.050704    2.558552
  C      0.838789    0.245440    2.353624
  H     -0.874530    0.734124    3.519356
  H     -0.148340    2.107475    2.699916
  C      1.621438    0.643989    1.127955
  H      0.618766   -0.829484    2.320135
  H      1.459484    0.398557    3.239373
  C      1.265622    0.118003   -0.122746
  C      2.063659    0.507707   -1.213846
  C      3.050101    1.486079   -1.098332
  C      2.644789    1.581455    1.251566
  C      3.345574    2.031808    0.142312
  H      1.927411    0.034357   -2.182527
  H      3.631398    1.767560   -1.965432
  H      2.957035    1.910751    2.239344
  H      4.100505    2.805231    0.239377
  Pd    -0.221871   -1.301961   -0.082916
  Br    -1.629605   -3.480385    0.082846
  P      1.548909   -2.970830   -0.372059
  H      1.771662   -3.719768    0.806650
  C     -0.141333   -1.864565   -3.649743
  O      0.955358   -1.790909   -4.120052
  O     -0.747209   -2.959130   -3.096713
  O     -0.902781   -0.770668   -3.560310
  H      2.907352   -2.646815   -0.610069
  H      1.442475   -4.067581   -1.251142
  H     -0.388458    0.033522   -3.751797

 Total Charge           Charge          ....   -1
 Multiplicity           Mult            ....    1
 Number of Electrons    NEL             ....  200
 Basis Dimension        Dim             ....  385

ORBITAL ENERGIES
----------------

  NO   OCC          E(Eh)            E(eV)
   0   2.0000    -484.325183    -13179.1583
   1   2.0000     -77.652746     -2113.0386
   2   2.0000     -62.986581     -1713.9520
   3   2.0000     -56.690181     -1542.6183
   4   2.0000     -56.689295     -1542.5941
   5   2.0000     -56.689210     -1542.5918
   6   2.0000     -19.442896      -529.0681
   7   2.0000     -19.419772      -528.4389
   8   2.0000     -19.387347      -527.5565
   9   2.0000     -10.536774      -286.7202
  10   2.0000     -10.330247      -281.1003
  11   2.0000     -10.329652      -281.0841
  12   2.0000     -10.328286      -281.0469
  13   2.0000     -10.326246      -280.9914
  14   2.0000     -10.324444      -280.9424
  15   2.0000     -10.323728      -280.9229
  16   2.0000     -10.323450      -280.9153
  17   2.0000     -10.322914      -280.9008
  18   2.0000     -10.320064      -280.8232
  19   2.0000     -10.317967      -280.7662
  20   2.0000     -10.317376      -280.7501
  21   2.0000     -10.316853      -280.7358
  22   2.0000     -10.312537      -280.6184
  23   2.0000     -10.309327      -280.5311
  24   2.0000      -8.813853      -239.8371
  25   2.0000      -6.728133      -183.0818
  26   2.0000      -6.582558      -179.1205
  27   2.0000      -6.579265      -179.0309
  28   2.0000      -6.578490      -179.0098
  29   2.0000      -4.819031      -131.1325
  30   2.0000      -4.818835      -131.1272
  31   2.0000      -4.816899      -131.0745
  32   2.0000      -3.501581       -95.2829
  33   2.0000      -2.596812       -70.6629
  34   2.0000      -2.595997       -70.6407
  35   2.0000      -2.595366       -70.6235
  36   2.0000      -2.592489       -70.5452
  37   2.0000      -2.592444       -70.5440
  38   2.0000      -2.146066       -58.3974
  39   2.0000      -2.142847       -58.3098
  40   2.0000      -2.117250       -57.6133
  41   2.0000      -1.155821       -31.4515
  42   2.0000      -1.063646       -28.9433
  43   2.0000      -1.032523       -28.0964
  44   2.0000      -0.834492       -22.7077
  45   2.0000      -0.815784       -22.1986
  46   2.0000      -0.765925       -20.8419
  47   2.0000      -0.717211       -19.5163
  48   2.0000      -0.706932       -19.2366
  49   2.0000      -0.692345       -18.8397
  50   2.0000      -0.667236       -18.1564
  51   2.0000      -0.662225       -18.0201
  52   2.0000      -0.641076       -17.4446
  53   2.0000      -0.623576       -16.9684
  54   2.0000      -0.594033       -16.1645
  55   2.0000      -0.571363       -15.5476
  56   2.0000      -0.555359       -15.1121
  57   2.0000      -0.536887       -14.6094
  58   2.0000      -0.532216       -14.4823
  59   2.0000      -0.503859       -13.7107
  60   2.0000      -0.459715       -12.5095
  61   2.0000      -0.453350       -12.3363
  62   2.0000      -0.444891       -12.1061
  63   2.0000      -0.436005       -11.8643
  64   2.0000      -0.409476       -11.1424
  65   2.0000      -0.396492       -10.7891
  66   2.0000      -0.387843       -10.5538
  67   2.0000      -0.380479       -10.3534
  68   2.0000      -0.377431       -10.2704
  69   2.0000      -0.368549       -10.0287
  70   2.0000      -0.353057        -9.6072
  71   2.0000      -0.348772        -9.4906
  72   2.0000      -0.343451        -9.3458
  73   2.0000      -0.340782        -9.2731
  74   2.0000      -0.337758        -9.1909
  75   2.0000      -0.331109        -9.0099
  76   2.0000      -0.318566        -8.6686
  77   2.0000      -0.311590        -8.4788
  78   2.0000      -0.307142        -8.3578
  79   2.0000      -0.295093        -8.0299
  80   2.0000      -0.287698        -7.8287
  81   2.0000      -0.279993        -7.6190
  82   2.0000      -0.277537        -7.5522
  83   2.0000      -0.275259        -7.4902
  84   2.0000      -0.262554        -7.1445
  85   2.0000      -0.255465        -6.9516
  86   2.0000      -0.247993        -6.7482
  87   2.0000      -0.245725        -6.6865
  88   2.0000      -0.234876        -6.3913
  89   2.0000      -0.208887        -5.6841
  90   2.0000      -0.202652        -5.5145
  91   2.0000      -0.193501        -5.2654
  92   2.0000      -0.167523        -4.5585
  93   2.0000      -0.167194        -4.5496
  94   2.0000      -0.156024        -4.2456
  95   2.0000      -0.149535        -4.0691
  96   2.0000      -0.147448        -4.0123
  97   2.0000      -0.142267        -3.8713
  98   2.0000      -0.137346        -3.7374
  99   2.0000      -0.123247        -3.3537
 100   0.0000       0.122001         3.3198
 101   0.0000       0.134026         3.6470
 102   0.0000       0.136605         3.7172
 103   0.0000       0.147473         4.0129
 104   0.0000       0.156680         4.2635

MULLIKEN ATOMIC CHARGES
-----------------------
   0 C :   -0.014999
   1 C :    0.072796
   2 C :   -0.266974
   3 C :   -0.226034
   4 C :   -0.231521
   5 C :   -0.244733
   6 H :    0.474094
   7 H :    0.203119
   8 H :    0.163563
   9 H :    0.170602
  10 H :    0.173034
  11 C :   -0.459484
  12 C :   -0.523033
  13 H :    0.211583
  14 H :    0.201991
  15 C :    0.139440
  16 H :    0.269547
  17 H :    0.193560
  18 C :   -0.097618
  19 C :   -0.325805
  20 C :   -0.222565
  21 C :   -0.281857
  22 C :   -0.233752
  23 H :    0.207162
  24 H :    0.179178
  25 H :    0.170651
  26 H :    0.175745
  27 Pd:   -0.061798
  28 Br:   -0.532876
  29 P :   -0.144331
  30 H :    0.103912
  31 C :    0.730205
  32 O :   -0.433181
  33 O :   -0.623653
  34 O :   -0.579094
  35 H :    0.084555
  36 H :    0.121210
  37 H :    0.457360
Sum of atomic charges:   -1.0000000

LOEWDIN ATOMIC CHARGES
----------------------
   0 C :   -0.034938
   1 C :   -0.037107
   2 C :   -0.115215
   3 C :   -0.166201
   4 C :   -0.172664
   5 C :   -0.153067
   6 H :    0.313094
   7 H :    0.138618
   8 H :    0.113795
   9 H :    0.114954
  10 H :    0.114607
  11 C :   -0.212247
  12 C :   -0.211939
  13 H :    0.126830
  14 H :    0.123666
  15 C :   -0.038099
  16 H :    0.161279
  17 H :    0.115806
  18 C :   -0.024634
  19 C :   -0.146920
  20 C :   -0.157395
  21 C :   -0.147779
  22 C :   -0.169308
  23 H :    0.133198
  24 H :    0.118717
  25 H :    0.117867
  26 H :    0.116709
  27 Pd:   -0.899824
  28 Br:   -0.291927
  29 P :    0.329244
  30 H :    0.047016
  31 C :    0.182907
  32 O :   -0.245181
  33 O :   -0.292459
  34 O :   -0.281161
  35 H :    0.030181
  36 H :    0.053092
  37 H :    0.346483

  Mayer bond orders larger than 0.100000
B(  0-C ,  1-C ) :   1.3720 B(  0-C ,  2-C ) :   1.3630 B(  0-C , 27-Pd) :   0.7843
B(  1-C ,  5-C ) :   1.3497 B(  1-C , 11-C ) :   0.9611 B(  2-C ,  3-C ) :   1.4279
B(  2-C ,  7-H ) :   0.9159 B(  3-C ,  4-C ) :   1.4067 B(  3-C ,  9-H ) :   0.9304
B(  4-C ,  5-C ) :   1.4544 B(  4-C , 10-H ) :   0.9285 B(  5-C ,  8-H ) :   0.9323
B(  6-H , 33-O ) :   0.6832 B( 11-C , 12-C ) :   0.9882 B( 11-C , 13-H ) :   0.9102
B( 11-C , 14-H ) :   0.9197 B( 12-C , 15-C ) :   0.9612 B( 12-C , 16-H ) :   0.8764
B( 12-C , 17-H ) :   0.9233 B( 15-C , 18-C ) :   1.3430 B( 15-C , 21-C ) :   1.4036
B( 18-C , 19-C ) :   1.4055 B( 18-C , 27-Pd) :   0.7655 B( 19-C , 20-C ) :   1.4210
B( 19-C , 23-H ) :   0.9090 B( 20-C , 22-C ) :   1.4327 B( 20-C , 24-H ) :   0.9281
B( 21-C , 22-C ) :   1.4247 B( 21-C , 25-H ) :   0.9294 B( 22-C , 26-H ) :   0.9295
B( 27-Pd, 28-Br) :   0.5574 B( 27-Pd, 29-P ) :   0.4074 B( 29-P , 30-H ) :   0.9441
B( 29-P , 35-H ) :   0.9247 B( 29-P , 36-H ) :   0.9383 B( 31-C , 32-O ) :   1.9938
B( 31-C , 33-O ) :   1.1091 B( 31-C , 34-O ) :   1.1156 B( 34-O , 37-H ) :   0.7445

Dispersion correction           -0.031850808
FINAL SINGLE POINT ENERGY     -3847.712646527992
Dispersion correction            ... done

DIPOLE MOMENT
-------------
                                X             Y             Z
Electronic contribution:    -12.04074     -63.01633       4.49002
Nuclear contribution   :     13.15607      63.36169      -4.51165
                        -----------------------------------------
Total Dipole Moment    :      1.11533       0.34536      -0.02163
                        -----------------------------------------
Magnitude (a.u.)       :      1.16778
Magnitude (Debye)      :      2.96826

Rotational constants in cm-1:     0.007446     0.006420     0.004967
Rotational constants in MHz :   223.228024   192.476777   148.896152

                             ****ORCA TERMINATED NORMALLY****
TOTAL RUN TIME: 0 days 0 hours 13 minutes 54 seconds 394 msec
