                         Program Version 5.0.3 -  RELEASE  -
|  1> ! EnGrad PBEh-3c
|  2> %output
|  3> xyzfile=True
|  4> end
|  5> %scf
|  6> maxiter 250
|  7> end
|  8> %output
|  9> Print[P_Hirshfeld] = 1
| 10> end
| 11> % maxcore
| 12> 4000
| 13> *xyz -1 1
| 14> C   -1.66708123   0.07719185   0.45467754
| 15> C   -1.55603418   0.98754020   1.51754724
| 16> C   -2.92546191   0.03676031  -0.14495474
| 17> C   -3.94356661   0.97180034   0.10863141
| 18> C   -3.76194917   1.99004258   1.04105639
| 19> C   -2.57777391   1.94298397   1.74918727
| 20> H   -1.38259052  -2.83215077  -2.46527991
| 21> H   -3.20313177  -0.72376836  -0.87063164
| 22> H   -2.43958810   2.71752616   2.55193736
| 23> H   -4.90984818   0.94889767  -0.43739721
| 24> H   -4.50945255   2.76701171   1.22731967
| 25> C   -0.44430906   1.06728862   2.52268210
| 26> C    0.83491655   0.26040655   2.33264225
| 27> H   -0.86182726   0.77722936   3.50715578
| 28> H   -0.13921703   2.14569108   2.65261155
| 29> C    1.62889784   0.64305615   1.10868136
| 30> H    0.59875600  -0.82094160   2.30151601
| 31> H    1.45011716   0.40864277   3.22187206
| 32> C    1.25339434   0.12115894  -0.13487143
| 33> C    2.08272894   0.49113972  -1.22072971
| 34> C    3.08596771   1.46011860  -1.10355522
| 35> C    2.65879219   1.57113946   1.24191163
| 36> C    3.37151356   2.01503016   0.14011234
| 37> H    1.96302530   0.01221070  -2.19788963
| 38> H    3.68054467   1.73892289  -1.96487153
| 39> H    2.96042704   1.90413905   2.23244588
| 40> H    4.13054330   2.78717944   0.24114265
| 41> Pd  -0.25839996  -1.28030849  -0.05233140
| 42> Br  -1.62465199  -3.46538607   0.04533914
| 43> P    1.52522177  -2.96190059  -0.35171592
| 44> H    1.73592832  -3.70912706   0.83290031
| 45> C   -0.16440579  -1.85489055  -3.59218685
| 46> O    0.88517923  -1.85921268  -4.07192988
| 47> O   -0.60208774  -2.88770302  -3.22224573
| 48> O   -0.88743078  -0.73720623  -3.57806377
| 49> H    2.92031262  -2.66241516  -0.57366999
| 50> H    1.44191758  -4.07100437  -1.23225786
| 51> H   -0.35032492   0.03731765  -3.80105075
| 52> *
| 53>
| 54>                          ****END OF INPUT****

CARTESIAN COORDINATES (ANGSTROEM)
---------------------------------
  C     -1.667081    0.077192    0.454678
  C     -1.556034    0.987540    1.517547
  C     -2.925462    0.036760   -0.144955
  C     -3.943567    0.971800    0.108631
  C     -3.761949    1.990043    1.041056
  C     -2.577774    1.942984    1.749187
  H     -1.382591   -2.832151   -2.465280
  H     -3.203132   -0.723768   -0.870632
  H     -2.439588    2.717526    2.551937
  H     -4.909848    0.948898   -0.437397
  H     -4.509453    2.767012    1.227320
  C     -0.444309    1.067289    2.522682
  C      0.834917    0.260407    2.332642
  H     -0.861827    0.777229    3.507156
  H     -0.139217    2.145691    2.652612
  C      1.628898    0.643056    1.108681
  H      0.598756   -0.820942    2.301516
  H      1.450117    0.408643    3.221872
  C      1.253394    0.121159   -0.134871
  C      2.082729    0.491140   -1.220730
  C      3.085968    1.460119   -1.103555
  C      2.658792    1.571139    1.241912
  C      3.371514    2.015030    0.140112
  H      1.963025    0.012211   -2.197890
  H      3.680545    1.738923   -1.964872
  H      2.960427    1.904139    2.232446
  H      4.130543    2.787179    0.241143
  Pd    -0.258400   -1.280308   -0.052331
  Br    -1.624652   -3.465386    0.045339
  P      1.525222   -2.961901   -0.351716
  H      1.735928   -3.709127    0.832900
  C     -0.164406   -1.854891   -3.592187
  O      0.885179   -1.859213   -4.071930
  O     -0.602088   -2.887703   -3.222246
  O     -0.887431   -0.737206   -3.578064
  H      2.920313   -2.662415   -0.573670
  H      1.441918   -4.071004   -1.232258
  H     -0.350325    0.037318   -3.801051

 Total Charge           Charge          ....   -1
 Multiplicity           Mult            ....    1
 Number of Electrons    NEL             ....  200
 Basis Dimension        Dim             ....  385

ORBITAL ENERGIES
----------------

  NO   OCC          E(Eh)            E(eV)
   0   2.0000    -484.336185    -13179.4576
   1   2.0000     -77.654921     -2113.0978
   2   2.0000     -62.997530     -1714.2499
   3   2.0000     -56.701076     -1542.9147
   4   2.0000     -56.700268     -1542.8927
   5   2.0000     -56.700171     -1542.8901
   6   2.0000     -19.438528      -528.9492
   7   2.0000     -19.424186      -528.5590
   8   2.0000     -19.333017      -526.0781
   9   2.0000     -10.489081      -285.4224
  10   2.0000     -10.330749      -281.1140
  11   2.0000     -10.330118      -281.0968
  12   2.0000     -10.328306      -281.0475
  13   2.0000     -10.328120      -281.0424
  14   2.0000     -10.326003      -280.9848
  15   2.0000     -10.325300      -280.9657
  16   2.0000     -10.324914      -280.9552
  17   2.0000     -10.324389      -280.9409
  18   2.0000     -10.322173      -280.8806
  19   2.0000     -10.322072      -280.8779
  20   2.0000     -10.321611      -280.8653
  21   2.0000     -10.321103      -280.8515
  22   2.0000     -10.312632      -280.6210
  23   2.0000     -10.311425      -280.5881
  24   2.0000      -8.824798      -240.1350
  25   2.0000      -6.729327      -183.1143
  26   2.0000      -6.593217      -179.4106
  27   2.0000      -6.590556      -179.3382
  28   2.0000      -6.589353      -179.3054
  29   2.0000      -4.820186      -131.1639
  30   2.0000      -4.820072      -131.1608
  31   2.0000      -4.818129      -131.1080
  32   2.0000      -3.503703       -95.3406
  33   2.0000      -2.607573       -70.9557
  34   2.0000      -2.607035       -70.9410
  35   2.0000      -2.606014       -70.9133
  36   2.0000      -2.603650       -70.8489
  37   2.0000      -2.603548       -70.8462
  38   2.0000      -2.148477       -58.4630
  39   2.0000      -2.144818       -58.3635
  40   2.0000      -2.119681       -57.6795
  41   2.0000      -1.191214       -32.4146
  42   2.0000      -1.067747       -29.0549
  43   2.0000      -1.014460       -27.6049
  44   2.0000      -0.834491       -22.7077
  45   2.0000      -0.821727       -22.3603
  46   2.0000      -0.768167       -20.9029
  47   2.0000      -0.719699       -19.5840
  48   2.0000      -0.706121       -19.2145
  49   2.0000      -0.698139       -18.9973
  50   2.0000      -0.668966       -18.2035
  51   2.0000      -0.652459       -17.7543
  52   2.0000      -0.622090       -16.9279
  53   2.0000      -0.610743       -16.6192
  54   2.0000      -0.595453       -16.2031
  55   2.0000      -0.576258       -15.6808
  56   2.0000      -0.555363       -15.1122
  57   2.0000      -0.539596       -14.6832
  58   2.0000      -0.533600       -14.5200
  59   2.0000      -0.505204       -13.7473
  60   2.0000      -0.471347       -12.8260
  61   2.0000      -0.452766       -12.3204
  62   2.0000      -0.437571       -11.9069
  63   2.0000      -0.434023       -11.8104
  64   2.0000      -0.410285       -11.1644
  65   2.0000      -0.397013       -10.8033
  66   2.0000      -0.385268       -10.4837
  67   2.0000      -0.379631       -10.3303
  68   2.0000      -0.378371       -10.2960
  69   2.0000      -0.368104       -10.0166
  70   2.0000      -0.348808        -9.4916
  71   2.0000      -0.346850        -9.4383
  72   2.0000      -0.344400        -9.3716
  73   2.0000      -0.343034        -9.3344
  74   2.0000      -0.339957        -9.2507
  75   2.0000      -0.333851        -9.0846
  76   2.0000      -0.319352        -8.6900
  77   2.0000      -0.312965        -8.5162
  78   2.0000      -0.306583        -8.3426
  79   2.0000      -0.296289        -8.0624
  80   2.0000      -0.289025        -7.8648
  81   2.0000      -0.281915        -7.6713
  82   2.0000      -0.276615        -7.5271
  83   2.0000      -0.264196        -7.1892
  84   2.0000      -0.254095        -6.9143
  85   2.0000      -0.250813        -6.8250
  86   2.0000      -0.247580        -6.7370
  87   2.0000      -0.238607        -6.4928
  88   2.0000      -0.217411        -5.9161
  89   2.0000      -0.209840        -5.7100
  90   2.0000      -0.206325        -5.6144
  91   2.0000      -0.198283        -5.3956
  92   2.0000      -0.174452        -4.7471
  93   2.0000      -0.166647        -4.5347
  94   2.0000      -0.161738        -4.4011
  95   2.0000      -0.154476        -4.2035
  96   2.0000      -0.150297        -4.0898
  97   2.0000      -0.146633        -3.9901
  98   2.0000      -0.139455        -3.7948
  99   2.0000      -0.125969        -3.4278
 100   0.0000       0.119906         3.2628
 101   0.0000       0.133234         3.6255
 102   0.0000       0.135940         3.6991
 103   0.0000       0.145026         3.9464
 104   0.0000       0.154291         4.1985

MULLIKEN ATOMIC CHARGES
-----------------------
   0 C :   -0.026423
   1 C :    0.111762
   2 C :   -0.250413
   3 C :   -0.236752
   4 C :   -0.224545
   5 C :   -0.257807
   6 H :    0.470297
   7 H :    0.200414
   8 H :    0.160233
   9 H :    0.169411
  10 H :    0.175823
  11 C :   -0.461840
  12 C :   -0.524023
  13 H :    0.211150
  14 H :    0.199132
  15 C :    0.137104
  16 H :    0.266293
  17 H :    0.195559
  18 C :   -0.090064
  19 C :   -0.338899
  20 C :   -0.218986
  21 C :   -0.277849
  22 C :   -0.235943
  23 H :    0.215614
  24 H :    0.181296
  25 H :    0.170708
  26 H :    0.175902
  27 Pd:   -0.072693
  28 Br:   -0.517871
  29 P :   -0.143970
  30 H :    0.102062
  31 C :    0.625119
  32 O :   -0.452670
  33 O :   -0.483073
  34 O :   -0.611751
  35 H :    0.082850
  36 H :    0.120983
  37 H :    0.453859
Sum of atomic charges:   -1.0000000

LOEWDIN ATOMIC CHARGES
----------------------
   0 C :   -0.032325
   1 C :   -0.039207
   2 C :   -0.115251
   3 C :   -0.159907
   4 C :   -0.174685
   5 C :   -0.144968
   6 H :    0.375160
   7 H :    0.140021
   8 H :    0.111622
   9 H :    0.113807
  10 H :    0.116568
  11 C :   -0.207243
  12 C :   -0.211260
  13 H :    0.126947
  14 H :    0.123568
  15 C :   -0.040463
  16 H :    0.161592
  17 H :    0.116379
  18 C :   -0.026641
  19 C :   -0.143805
  20 C :   -0.158605
  21 C :   -0.149362
  22 C :   -0.168417
  23 H :    0.136262
  24 H :    0.119548
  25 H :    0.117977
  26 H :    0.116503
  27 Pd:   -0.910250
  28 Br:   -0.270395
  29 P :    0.322935
  30 H :    0.045253
  31 C :   -0.008700
  32 O :   -0.252109
  33 O :   -0.160410
  34 O :   -0.296728
  35 H :    0.029129
  36 H :    0.052580
  37 H :    0.344881

  Mayer bond orders larger than 0.100000
B(  0-C ,  1-C ) :   1.3808 B(  0-C ,  2-C ) :   1.3657 B(  0-C , 27-Pd) :   0.7936
B(  1-C ,  5-C ) :   1.3457 B(  1-C , 11-C ) :   0.9577 B(  2-C ,  3-C ) :   1.4301
B(  2-C ,  7-H ) :   0.9167 B(  3-C ,  4-C ) :   1.4047 B(  3-C ,  9-H ) :   0.9300
B(  4-C ,  5-C ) :   1.4522 B(  4-C , 10-H ) :   0.9284 B(  5-C ,  8-H ) :   0.9330
B(  6-H , 28-Br) :   0.1036 B(  6-H , 33-O ) :   0.6351 B( 11-C , 12-C ) :   0.9872
B( 11-C , 13-H ) :   0.9095 B( 11-C , 14-H ) :   0.9191 B( 12-C , 15-C ) :   0.9590
B( 12-C , 16-H ) :   0.8758 B( 12-C , 17-H ) :   0.9230 B( 15-C , 18-C ) :   1.3440
B( 15-C , 21-C ) :   1.3981 B( 18-C , 19-C ) :   1.3949 B( 18-C , 27-Pd) :   0.7590
B( 19-C , 20-C ) :   1.4235 B( 19-C , 23-H ) :   0.9051 B( 20-C , 22-C ) :   1.4277
B( 20-C , 24-H ) :   0.9280 B( 21-C , 22-C ) :   1.4308 B( 21-C , 25-H ) :   0.9296
B( 22-C , 26-H ) :   0.9291 B( 27-Pd, 28-Br) :   0.5507 B( 27-Pd, 29-P ) :   0.3839
B( 29-P , 30-H ) :   0.9437 B( 29-P , 35-H ) :   0.9260 B( 29-P , 36-H ) :   0.9379
B( 31-C , 32-O ) :   1.9576 B( 31-C , 33-O ) :   1.3308 B( 31-C , 34-O ) :   1.0879
B( 34-O , 37-H ) :   0.7501

Dispersion correction           -0.031942241
FINAL SINGLE POINT ENERGY     -3847.692149719012
Dispersion correction            ... done

DIPOLE MOMENT
-------------
                                X             Y             Z
Electronic contribution:    -14.35517     -61.94388       6.62221
Nuclear contribution   :     15.14835      62.20582      -6.19726
                        -----------------------------------------
Total Dipole Moment    :      0.79318       0.26194       0.42495
                        -----------------------------------------
Magnitude (a.u.)       :      0.93720
Magnitude (Debye)      :      2.38216

Rotational constants in cm-1:     0.007468     0.006478     0.004972
Rotational constants in MHz :   223.885414   194.204875   149.056387

                             ****ORCA TERMINATED NORMALLY****
TOTAL RUN TIME: 0 days 0 hours 13 minutes 31 seconds 832 msec
