                         Program Version 5.0.4 -  RELEASE  -
|  1> %pal nprocs 8 end
|  2>
|  3>  *xyzfile -1 1 IEIP_ts_guess.xyz
|  4>
|  5>
|  6>                          ****END OF INPUT****
|  1>
|  2>
|  3>   ! PBEh-3c OptTS Freq pal8
|  4>
|  5>   %geom
|  6>    calc_hess true
|  7>    recalc_hess 20
|  8>    maxiter 600
|  9>   end
| 10>
| 11>
| 12>                          ****END OF INPUT****
 Total Charge           Charge          ....   -1
 Multiplicity           Mult            ....    1
 Number of Electrons    NEL             ....  200
Dispersion correction           -0.032645108
FINAL SINGLE POINT ENERGY     -3847.610894141123
Dispersion correction            ... done
Dispersion correction in the Hessian             ... done   (      1.4 sec)
Dispersion correction           -0.032925883
FINAL SINGLE POINT ENERGY     -3847.634760215240
Dispersion correction            ... done
Dispersion correction           -0.033098443
FINAL SINGLE POINT ENERGY     -3847.657287980706
FINAL SINGLE POINT ENERGY     -3847.674170559544
FINAL SINGLE POINT ENERGY     -3847.683954448760
FINAL SINGLE POINT ENERGY     -3847.691595113740
FINAL SINGLE POINT ENERGY     -3847.696305589711
FINAL SINGLE POINT ENERGY     -3847.700531968293
FINAL SINGLE POINT ENERGY     -3847.703426464608
FINAL SINGLE POINT ENERGY     -3847.707001808436
FINAL SINGLE POINT ENERGY     -3847.724426528747
FINAL SINGLE POINT ENERGY     -3847.724536404821
FINAL SINGLE POINT ENERGY     -3847.724547362039
FINAL SINGLE POINT ENERGY     -3847.724604227477
FINAL SINGLE POINT ENERGY     -3847.724611297434
FINAL SINGLE POINT ENERGY     -3847.724608405000
FINAL SINGLE POINT ENERGY     -3847.724615536157
Dispersion correction           -0.034312097
FINAL SINGLE POINT ENERGY     -3847.724611237599
Dispersion correction            ... done
                    ***********************HURRAY********************
Dispersion correction           -0.034312233
FINAL SINGLE POINT ENERGY     -3847.724611189450
Dispersion correction in the Hessian             ... done   (      1.4 sec)

VIBRATIONAL FREQUENCIES
-----------------------

Scaling factor for frequencies =  1.000000000  (already applied!)

   0:         0.00 cm**-1
   1:         0.00 cm**-1
   2:         0.00 cm**-1
   3:         0.00 cm**-1
   4:         0.00 cm**-1
   5:         0.00 cm**-1
   6:     -1257.63 cm**-1 ***imaginary mode***
   7:        24.13 cm**-1
   8:        38.38 cm**-1
   9:        52.13 cm**-1
  10:        65.40 cm**-1
  11:        68.71 cm**-1
  12:        76.08 cm**-1
  13:        79.38 cm**-1
  14:        92.45 cm**-1
  15:       106.19 cm**-1
  16:       117.29 cm**-1
  17:       124.05 cm**-1
  18:       131.83 cm**-1
  19:       160.14 cm**-1
  20:       165.78 cm**-1
  21:       175.38 cm**-1
  22:       178.89 cm**-1
  23:       202.53 cm**-1
  24:       232.15 cm**-1
  25:       258.30 cm**-1
  26:       263.82 cm**-1
  27:       299.48 cm**-1
  28:       338.49 cm**-1
  29:       351.86 cm**-1
  30:       395.83 cm**-1
  31:       435.45 cm**-1
  32:       481.18 cm**-1
  33:       498.35 cm**-1
  34:       511.04 cm**-1
  35:       521.51 cm**-1
  36:       528.81 cm**-1
  37:       557.51 cm**-1
  38:       584.49 cm**-1
  39:       598.72 cm**-1
  40:       599.78 cm**-1
  41:       613.49 cm**-1
  42:       660.28 cm**-1
  43:       683.61 cm**-1
  44:       708.10 cm**-1
  45:       763.99 cm**-1
  46:       773.46 cm**-1
  47:       778.97 cm**-1
  48:       796.10 cm**-1
  49:       806.93 cm**-1
  50:       823.18 cm**-1
  51:       858.74 cm**-1
  52:       896.02 cm**-1
  53:       911.48 cm**-1
  54:       963.47 cm**-1
  55:       975.58 cm**-1
  56:       977.91 cm**-1
  57:       995.59 cm**-1
  58:      1000.66 cm**-1
  59:      1032.39 cm**-1
  60:      1045.10 cm**-1
  61:      1058.24 cm**-1
  62:      1061.32 cm**-1
  63:      1070.89 cm**-1
  64:      1086.55 cm**-1
  65:      1106.07 cm**-1
  66:      1109.87 cm**-1
  67:      1156.03 cm**-1
  68:      1160.65 cm**-1
  69:      1170.50 cm**-1
  70:      1191.40 cm**-1
  71:      1211.32 cm**-1
  72:      1214.36 cm**-1
  73:      1217.28 cm**-1
  74:      1250.01 cm**-1
  75:      1257.80 cm**-1
  76:      1260.86 cm**-1
  77:      1276.01 cm**-1
  78:      1278.63 cm**-1
  79:      1319.23 cm**-1
  80:      1334.21 cm**-1
  81:      1373.52 cm**-1
  82:      1389.87 cm**-1
  83:      1401.86 cm**-1
  84:      1424.91 cm**-1
  85:      1475.66 cm**-1
  86:      1492.55 cm**-1
  87:      1514.43 cm**-1
  88:      1535.91 cm**-1
  89:      1540.63 cm**-1
  90:      1548.64 cm**-1
  91:      1553.63 cm**-1
  92:      1593.13 cm**-1
  93:      1676.36 cm**-1
  94:      1681.08 cm**-1
  95:      1698.50 cm**-1
  96:      1702.82 cm**-1
  97:      1910.79 cm**-1
  98:      2509.23 cm**-1
  99:      2567.47 cm**-1
 100:      2574.68 cm**-1
 101:      3091.73 cm**-1
 102:      3104.64 cm**-1
 103:      3140.45 cm**-1
 104:      3170.21 cm**-1
 105:      3223.18 cm**-1
 106:      3227.26 cm**-1
 107:      3247.30 cm**-1
 108:      3248.75 cm**-1
 109:      3254.97 cm**-1
 110:      3259.25 cm**-1
 111:      3274.72 cm**-1
 112:      3275.20 cm**-1
 113:      3924.54 cm**-1

IR SPECTRUM
-----------

 Mode   freq       eps      Int      T**2         TX        TY        TZ
       cm**-1   L/(mol*cm) km/mol    a.u.
----------------------------------------------------------------------------
  7:     24.13   0.000388    1.96  0.005022  ( 0.025612  0.055156  0.036389)
  8:     38.38   0.000201    1.02  0.001636  ( 0.007492  0.005367  0.039380)
  9:     52.13   0.000077    0.39  0.000464  ( 0.020126 -0.007090  0.002917)
 10:     65.40   0.000218    1.10  0.001039  (-0.007858 -0.000622 -0.031262)
 11:     68.71   0.000091    0.46  0.000412  ( 0.016371  0.002446  0.011731)
 12:     76.08   0.000371    1.88  0.001522  (-0.018864  0.018283 -0.028847)
 13:     79.38   0.000657    3.32  0.002583  ( 0.020669 -0.011617  0.044950)
 14:     92.45   0.001106    5.59  0.003732  (-0.009053  0.048279 -0.036325)
 15:    106.19   0.000201    1.01  0.000589  (-0.007153 -0.021375  0.009015)
 16:    117.29   0.000718    3.63  0.001910  ( 0.019584 -0.034547  0.018252)
 17:    124.05   0.000051    0.26  0.000129  ( 0.007279  0.007431 -0.004510)
 18:    131.83   0.001428    7.21  0.003380  (-0.035742 -0.030413  0.034311)
 19:    160.14   0.002235   11.30  0.004356  ( 0.053352  0.038830  0.001423)
 20:    165.78   0.001108    5.60  0.002086  ( 0.045608  0.000387 -0.002496)
 21:    175.38   0.000063    0.32  0.000112  (-0.004793  0.004758  0.008130)
 22:    178.89   0.000919    4.65  0.001604  ( 0.005630  0.037293 -0.013455)
 23:    202.53   0.000222    1.12  0.000341  ( 0.008684  0.000006  0.016309)
 24:    232.15   0.000960    4.85  0.001291  (-0.029520  0.014498 -0.014462)
 25:    258.30   0.001899    9.59  0.002294  (-0.016665 -0.012164  0.043220)
 26:    263.82   0.004987   25.20  0.005899  ( 0.056048  0.036054 -0.038185)
 27:    299.48   0.001405    7.10  0.001464  ( 0.023120 -0.019912 -0.023088)
 28:    338.49   0.000393    1.99  0.000363  ( 0.015456 -0.010770  0.002761)
 29:    351.86   0.000483    2.44  0.000428  ( 0.011361 -0.004971 -0.016574)
 30:    395.83   0.000423    2.14  0.000333  (-0.002221 -0.009897 -0.015173)
 31:    435.45   0.001054    5.32  0.000755  ( 0.010323  0.014671 -0.020815)
 32:    481.18   0.002534   12.81  0.001643  ( 0.030059  0.001446 -0.027162)
 33:    498.35   0.002948   14.90  0.001846  ( 0.035798 -0.011667 -0.020701)
 34:    511.04   0.001875    9.47  0.001145  (-0.030286  0.015082  0.000119)
 35:    521.51   0.030466  153.96  0.018231  ( 0.032813 -0.085389  0.099311)
 36:    528.81   0.000447    2.26  0.000264  ( 0.004360 -0.010359  0.011725)
 37:    557.51   0.000683    3.45  0.000382  ( 0.014094 -0.013488  0.001384)
 38:    584.49   0.000588    2.97  0.000314  (-0.014171 -0.005921  0.008836)
 39:    598.72   0.004620   23.35  0.002408  (-0.012923 -0.047119  0.004575)
 40:    599.78   0.001530    7.73  0.000796  ( 0.025943 -0.005743 -0.009487)
 41:    613.49   0.004461   22.54  0.002269  (-0.010092  0.031191 -0.034561)
 42:    660.28   0.001751    8.85  0.000828  ( 0.002079 -0.009268  0.027153)
 43:    683.61   0.001011    5.11  0.000462  ( 0.015718  0.010826 -0.009870)
 44:    708.10   0.002974   15.03  0.001311  (-0.022757  0.020107  0.019712)
 45:    763.99   0.007299   36.89  0.002982  ( 0.037135 -0.030575  0.025840)
 46:    773.46   0.009078   45.88  0.003663  (-0.016724  0.034172 -0.047066)
 47:    778.97   0.001957    9.89  0.000784  ( 0.010048  0.012798 -0.022789)
 48:    796.10   0.005321   26.89  0.002086  (-0.021555  0.030261 -0.026562)
 49:    806.93   0.003050   15.41  0.001179  (-0.006285  0.028851 -0.017535)
 50:    823.18   0.000796    4.02  0.000302  ( 0.002109  0.012540 -0.011841)
 51:    858.74   0.015493   78.29  0.005630  (-0.031543  0.040072 -0.055039)
 52:    896.02   0.000143    0.72  0.000050  (-0.000677  0.003210  0.006241)
 53:    911.48   0.000122    0.61  0.000042  ( 0.002921 -0.002313  0.005267)
 54:    963.47   0.000364    1.84  0.000118  (-0.006480  0.005513 -0.006753)
 55:    975.58   0.000109    0.55  0.000035  (-0.004151  0.004106 -0.000831)
 56:    977.91   0.000427    2.16  0.000136  ( 0.003156  0.009357 -0.006237)
 57:    995.59   0.000055    0.28  0.000017  (-0.000466  0.004118  0.000254)
 58:   1000.66   0.000642    3.24  0.000200  (-0.008963  0.008218 -0.007236)
 59:   1032.39   0.001622    8.20  0.000490  (-0.008765  0.003543  0.020023)
 60:   1045.10   0.020559  103.90  0.006139  ( 0.014647  0.004192 -0.076856)
 61:   1058.24   0.014788   74.73  0.004361  (-0.032298  0.041589 -0.039851)
 62:   1061.32   0.023004  116.25  0.006764  (-0.028202  0.077247  0.001159)
 63:   1070.89   0.002881   14.56  0.000840  (-0.025574  0.012415  0.005617)
 64:   1086.55   0.008864   44.80  0.002546  (-0.049011  0.008898  0.008040)
 65:   1106.07   0.000120    0.61  0.000034  ( 0.003912  0.000557 -0.004265)
 66:   1109.87   0.001989   10.05  0.000559  ( 0.020247  0.010300 -0.006573)
 67:   1156.03   0.001795    9.07  0.000484  ( 0.014856 -0.006689 -0.014799)
 68:   1160.65   0.002356   11.91  0.000633  (-0.025094  0.000395 -0.001894)
 69:   1170.50   0.001520    7.68  0.000405  ( 0.017927 -0.003701 -0.008379)
 70:   1191.40   0.001950    9.85  0.000511  (-0.003296  0.009547  0.020215)
 71:   1211.32   0.000095    0.48  0.000024  (-0.004395 -0.001449  0.001753)
 72:   1214.36   0.000662    3.35  0.000170  (-0.002123 -0.010587 -0.007319)
 73:   1217.28   0.000172    0.87  0.000044  (-0.006315 -0.001901  0.000737)
 74:   1250.01   0.033418  168.88  0.008343  ( 0.091306  0.001784 -0.001680)
 75:   1257.80   0.000762    3.85  0.000189  ( 0.011654 -0.005392  0.004908)
 76:   1260.86   0.001521    7.69  0.000376  ( 0.012652 -0.013009  0.006865)
 77:   1276.01   0.026405  133.44  0.006458  ( 0.017829 -0.069158 -0.036835)
 78:   1278.63   0.001012    5.12  0.000247  (-0.002153 -0.002136  0.015422)
 79:   1319.23   0.001227    6.20  0.000290  (-0.016253  0.001941  0.004726)
 80:   1334.21   0.000835    4.22  0.000195  (-0.008849  0.004287  0.009926)
 81:   1373.52   0.001860    9.40  0.000423  ( 0.014920  0.014139  0.000153)
 82:   1389.87   0.002176   11.00  0.000489  (-0.018245 -0.012422  0.001168)
 83:   1401.86   0.000301    1.52  0.000067  ( 0.000097  0.007965  0.001860)
 84:   1424.91   0.000224    1.13  0.000049  (-0.004015  0.002229  0.005282)
 85:   1475.66   0.030861  155.96  0.006526  (-0.006236 -0.051845 -0.061640)
 86:   1492.55   0.008454   42.72  0.001768  ( 0.006759  0.035491  0.021501)
 87:   1514.43   0.001179    5.96  0.000243  ( 0.008019  0.013343  0.000768)
 88:   1535.91   0.000489    2.47  0.000099  (-0.006846  0.001881 -0.006997)
 89:   1540.63   0.001254    6.34  0.000254  (-0.003012 -0.013213 -0.008392)
 90:   1548.64   0.001481    7.48  0.000298  ( 0.000156  0.002833 -0.017039)
 91:   1553.63   0.003384   17.10  0.000680  (-0.023198 -0.004231  0.011121)
 92:   1593.13   0.015243   77.03  0.002986  ( 0.038331  0.036682 -0.013074)
 93:   1676.36   0.001721    8.69  0.000320  ( 0.001450  0.015537  0.008763)
 94:   1681.08   0.002712   13.70  0.000503  (-0.014409 -0.016242  0.005651)
 95:   1698.50   0.002732   13.80  0.000502  ( 0.013579  0.015887 -0.008066)
 96:   1702.82   0.005352   27.05  0.000981  ( 0.028536  0.008736 -0.009493)
 97:   1910.79   0.086836  438.83  0.014182  (-0.060577 -0.014070  0.101559)
 98:   2509.23   0.019382   97.95  0.002410  (-0.048193  0.008779 -0.003290)
 99:   2567.47   0.009253   46.76  0.001125  (-0.004190  0.032458 -0.007323)
100:   2574.68   0.003390   17.13  0.000411  (-0.000024 -0.000635 -0.020261)
101:   3091.73   0.003461   17.49  0.000349  (-0.013102  0.004206 -0.012649)
102:   3104.64   0.011128   56.24  0.001119  ( 0.003312 -0.020879 -0.025916)
103:   3140.45   0.006807   34.40  0.000676  ( 0.010442  0.023110  0.005768)
104:   3170.21   0.000651    3.29  0.000064  (-0.004809  0.003189  0.005549)
105:   3223.18   0.003386   17.11  0.000328  ( 0.003986  0.013729  0.011111)
106:   3227.26   0.002752   13.91  0.000266  (-0.002800 -0.012753 -0.009778)
107:   3247.30   0.000405    2.05  0.000039  (-0.002946 -0.004572 -0.003051)
108:   3248.75   0.003688   18.64  0.000354  (-0.006072  0.011708  0.013429)
109:   3254.97   0.005350   27.04  0.000513  (-0.014946 -0.016375 -0.004622)
110:   3259.25   0.004581   23.15  0.000439  ( 0.014566 -0.007004 -0.013320)
111:   3274.72   0.008446   42.68  0.000805  ( 0.028011  0.004502 -0.000142)
112:   3275.20   0.005184   26.20  0.000494  ( 0.015964  0.003647 -0.015027)
113:   3924.54   0.008013   40.50  0.000637  ( 0.017958  0.016471 -0.006587)

--------------------------
THERMOCHEMISTRY AT 298.15K
--------------------------

Temperature         ... 298.15 K
Pressure            ... 1.00 atm
Total Mass          ... 462.57 AMU

Throughout the following assumptions are being made:
  (1) The electronic state is orbitally nondegenerate
  (2) There are no thermally accessible electronically excited states
  (3) Hindered rotations indicated by low frequency modes are not
      treated as such but are treated as vibrations and this may
      cause some error
  (4) All equations used are the standard statistical mechanics
      equations for an ideal gas
  (5) All vibrations are strictly harmonic

freq.      24.13  E(vib)   ...       0.56
freq.      38.38  E(vib)   ...       0.54
freq.      52.13  E(vib)   ...       0.52
freq.      65.40  E(vib)   ...       0.50
freq.      68.71  E(vib)   ...       0.50
freq.      76.08  E(vib)   ...       0.49
freq.      79.38  E(vib)   ...       0.49
freq.      92.45  E(vib)   ...       0.47
freq.     106.19  E(vib)   ...       0.45
freq.     117.29  E(vib)   ...       0.44
freq.     124.05  E(vib)   ...       0.43
freq.     131.83  E(vib)   ...       0.42
freq.     160.14  E(vib)   ...       0.39
freq.     165.78  E(vib)   ...       0.39
freq.     175.38  E(vib)   ...       0.38
freq.     178.89  E(vib)   ...       0.37
freq.     202.53  E(vib)   ...       0.35
freq.     232.15  E(vib)   ...       0.32
freq.     258.30  E(vib)   ...       0.30
freq.     263.82  E(vib)   ...       0.29
freq.     299.48  E(vib)   ...       0.26
freq.     338.49  E(vib)   ...       0.23
freq.     351.86  E(vib)   ...       0.23
freq.     395.83  E(vib)   ...       0.20
freq.     435.45  E(vib)   ...       0.17
freq.     481.18  E(vib)   ...       0.15
freq.     498.35  E(vib)   ...       0.14
freq.     511.04  E(vib)   ...       0.14
freq.     521.51  E(vib)   ...       0.13
freq.     528.81  E(vib)   ...       0.13
freq.     557.51  E(vib)   ...       0.12
freq.     584.49  E(vib)   ...       0.11
freq.     598.72  E(vib)   ...       0.10
freq.     599.78  E(vib)   ...       0.10
freq.     613.49  E(vib)   ...       0.10
freq.     660.28  E(vib)   ...       0.08
freq.     683.61  E(vib)   ...       0.07
freq.     708.10  E(vib)   ...       0.07
freq.     763.99  E(vib)   ...       0.06
freq.     773.46  E(vib)   ...       0.05
freq.     778.97  E(vib)   ...       0.05
freq.     796.10  E(vib)   ...       0.05
freq.     806.93  E(vib)   ...       0.05
freq.     823.18  E(vib)   ...       0.05
freq.     858.74  E(vib)   ...       0.04
freq.     896.02  E(vib)   ...       0.03
freq.     911.48  E(vib)   ...       0.03
freq.     963.47  E(vib)   ...       0.03
freq.     975.58  E(vib)   ...       0.03
freq.     977.91  E(vib)   ...       0.03
freq.     995.59  E(vib)   ...       0.02
freq.    1000.66  E(vib)   ...       0.02
freq.    1032.39  E(vib)   ...       0.02
freq.    1045.10  E(vib)   ...       0.02
freq.    1058.24  E(vib)   ...       0.02
freq.    1061.32  E(vib)   ...       0.02
freq.    1070.89  E(vib)   ...       0.02
freq.    1086.55  E(vib)   ...       0.02
freq.    1106.07  E(vib)   ...       0.02
freq.    1109.87  E(vib)   ...       0.02
freq.    1156.03  E(vib)   ...       0.01
freq.    1160.65  E(vib)   ...       0.01
freq.    1170.50  E(vib)   ...       0.01
freq.    1191.40  E(vib)   ...       0.01
freq.    1211.32  E(vib)   ...       0.01
freq.    1214.36  E(vib)   ...       0.01
freq.    1217.28  E(vib)   ...       0.01
freq.    1250.01  E(vib)   ...       0.01
freq.    1257.80  E(vib)   ...       0.01
freq.    1260.86  E(vib)   ...       0.01
freq.    1276.01  E(vib)   ...       0.01
freq.    1278.63  E(vib)   ...       0.01
freq.    1319.23  E(vib)   ...       0.01
freq.    1334.21  E(vib)   ...       0.01
freq.    1373.52  E(vib)   ...       0.01
freq.    1389.87  E(vib)   ...       0.00
freq.    1401.86  E(vib)   ...       0.00
freq.    1424.91  E(vib)   ...       0.00
freq.    1475.66  E(vib)   ...       0.00
freq.    1492.55  E(vib)   ...       0.00
freq.    1514.43  E(vib)   ...       0.00
freq.    1535.91  E(vib)   ...       0.00
freq.    1540.63  E(vib)   ...       0.00
freq.    1548.64  E(vib)   ...       0.00
freq.    1553.63  E(vib)   ...       0.00
freq.    1593.13  E(vib)   ...       0.00
freq.    1676.36  E(vib)   ...       0.00
freq.    1681.08  E(vib)   ...       0.00
freq.    1698.50  E(vib)   ...       0.00
freq.    1702.82  E(vib)   ...       0.00
freq.    1910.79  E(vib)   ...       0.00
freq.    2509.23  E(vib)   ...       0.00
freq.    2567.47  E(vib)   ...       0.00
freq.    2574.68  E(vib)   ...       0.00
freq.    3091.73  E(vib)   ...       0.00
freq.    3104.64  E(vib)   ...       0.00
freq.    3140.45  E(vib)   ...       0.00
freq.    3170.21  E(vib)   ...       0.00
freq.    3223.18  E(vib)   ...       0.00
freq.    3227.26  E(vib)   ...       0.00
freq.    3247.30  E(vib)   ...       0.00
freq.    3248.75  E(vib)   ...       0.00
freq.    3254.97  E(vib)   ...       0.00
freq.    3259.25  E(vib)   ...       0.00
freq.    3274.72  E(vib)   ...       0.00
freq.    3275.20  E(vib)   ...       0.00
freq.    3924.54  E(vib)   ...       0.00

------------
INNER ENERGY
------------

The inner energy is: U= E(el) + E(ZPE) + E(vib) + E(rot) + E(trans)
    E(el)   - is the total energy from the electronic structure calculation
              = E(kin-el) + E(nuc-el) + E(el-el) + E(nuc-nuc)
    E(ZPE)  - the the zero temperature vibrational energy from the frequency calculation
    E(vib)  - the the finite temperature correction to E(ZPE) due to population
              of excited vibrational states
    E(rot)  - is the rotational thermal energy
    E(trans)- is the translational thermal energy

Summary of contributions to the inner energy U:
Electronic energy                ...  -3847.72461119 Eh
Zero point energy                ...      0.28882524 Eh     181.24 kcal/mol
Thermal vibrational correction   ...      0.01910837 Eh      11.99 kcal/mol
Thermal rotational correction    ...      0.00141627 Eh       0.89 kcal/mol
Thermal translational correction ...      0.00141627 Eh       0.89 kcal/mol
-----------------------------------------------------------------------
Total thermal energy                  -3847.41384504 Eh

Summary of corrections to the electronic energy:
(perhaps to be used in another calculation)
Total thermal correction                  0.02194091 Eh      13.77 kcal/mol
Non-thermal (ZPE) correction              0.28882524 Eh     181.24 kcal/mol
-----------------------------------------------------------------------
Total correction                          0.31076615 Eh     195.01 kcal/mol

--------
ENTHALPY
--------

The enthalpy is H = U + kB*T

|  1>
|  2>
|  3>   ! PBEh-3c IRC pal8
|  4>   %irc
|  5>     maxiter 600
|  6>     inithess read
|  7>     hess_filename "reaction-3-ieip_optts_Compound_1.hess"
|  8>   end
|  9>
| 10>
| 11>                          ****END OF INPUT****

CARTESIAN COORDINATES (ANGSTROEM)
---------------------------------
  C     -1.709769   -0.093343   -0.166587
  C     -1.713526    0.842260    0.893209
  C     -2.922724   -0.745560   -0.449286
  C     -4.081855   -0.527036    0.272570
  C     -4.049989    0.364242    1.332802
  C     -2.879106    1.041090    1.633300
  H     -1.035630    0.067280   -1.318760
  H     -2.947063   -1.444940   -1.276119
  H     -2.874556    1.751249    2.453680
  H     -4.992586   -1.057678    0.025841
  H     -4.939469    0.539459    1.926743
  C     -0.530207    1.713632    1.231604
  C      0.732799    1.008008    1.764745
  H     -0.854026    2.439900    1.982894
  H     -0.252159    2.285011    0.344018
  C      1.631455    0.560098    0.648511
  H      0.446632    0.176669    2.415562
  H      1.278075    1.717056    2.395240
  C      1.301939   -0.536043   -0.149757
  C      2.088116   -0.819640   -1.263832
  C      3.185881   -0.034435   -1.589180
  C      2.749966    1.326699    0.327929
  C      3.531481    1.035547   -0.779496
  H      1.825303   -1.640309   -1.920960
  H      3.758924   -0.258685   -2.479786
  H      3.003104    2.178612    0.951525
  H      4.395174    1.646182   -1.013691
  Pd    -0.233263   -1.699819    0.311761
  Br    -1.880145   -3.552002    1.050591
  P      1.217559   -3.271195    0.988414
  H      1.134248   -3.721720    2.314383
  C      0.180690    0.910890   -2.970678
  O      0.834384    0.838837   -3.995287
  O     -0.699688    0.098127   -2.550668
  O      0.365519    1.986259   -2.139507
  H      2.611323   -3.057033    0.932770
  H      1.182126   -4.514724    0.339250
  H      1.141657    2.445627   -2.472458

 Multiplicity           Mult            ....    1
 Number of Electrons    NEL             ....  200
 Basis Dimension        Dim             ....  385

ORBITAL ENERGIES
----------------

  NO   OCC          E(Eh)            E(eV)
   0   2.0000    -484.326622    -13179.1974
   1   2.0000     -77.678012     -2113.7262
   2   2.0000     -62.988293     -1713.9986
   3   2.0000     -56.691878     -1542.6644
   4   2.0000     -56.690991     -1542.6403
   5   2.0000     -56.690923     -1542.6384
   6   2.0000     -19.373693      -527.1850
   7   2.0000     -19.319735      -525.7167
   8   2.0000     -19.294981      -525.0431
   9   2.0000     -10.438938      -284.0579
  10   2.0000     -10.343500      -281.4609
  11   2.0000     -10.340290      -281.3736
  12   2.0000     -10.335408      -281.2408
  13   2.0000     -10.334764      -281.2232
  14   2.0000     -10.334245      -281.2091
  15   2.0000     -10.334089      -281.2049
  16   2.0000     -10.333299      -281.1833
  17   2.0000     -10.331406      -281.1319
  18   2.0000     -10.329359      -281.0761
  19   2.0000     -10.327396      -281.0227
  20   2.0000     -10.327019      -281.0125
  21   2.0000     -10.325864      -280.9810
  22   2.0000     -10.324812      -280.9524
  23   2.0000     -10.302391      -280.3423
  24   2.0000      -8.815681      -239.8869
  25   2.0000      -6.753096      -183.7611
  26   2.0000      -6.584825      -179.1822
  27   2.0000      -6.580531      -179.0654
  28   2.0000      -6.580407      -179.0620
  29   2.0000      -4.844091      -131.8144
  30   2.0000      -4.843846      -131.8078
  31   2.0000      -4.842326      -131.7664
  32   2.0000      -3.526870       -95.9710
  33   2.0000      -2.599024       -70.7230
  34   2.0000      -2.597733       -70.6879
  35   2.0000      -2.597567       -70.6834
  36   2.0000      -2.593939       -70.5847
  37   2.0000      -2.593922       -70.5842
  38   2.0000      -2.171197       -59.0813
  39   2.0000      -2.170997       -59.0758
  40   2.0000      -2.143020       -58.3145
  41   2.0000      -1.069342       -29.0983
  42   2.0000      -0.959227       -26.1019
  43   2.0000      -0.930424       -25.3181
  44   2.0000      -0.845244       -23.0003
  45   2.0000      -0.836656       -22.7666
  46   2.0000      -0.778458       -21.1829
  47   2.0000      -0.733124       -19.9493
  48   2.0000      -0.716650       -19.5010
  49   2.0000      -0.712251       -19.3813
  50   2.0000      -0.680383       -18.5142
  51   2.0000      -0.657620       -17.8947
  52   2.0000      -0.634847       -17.2751
  53   2.0000      -0.607885       -16.5414
  54   2.0000      -0.564233       -15.3536
  55   2.0000      -0.557632       -15.1739
  56   2.0000      -0.546111       -14.8604
  57   2.0000      -0.530067       -14.4238
  58   2.0000      -0.520985       -14.1767
  59   2.0000      -0.467711       -12.7271
  60   2.0000      -0.457396       -12.4464
  61   2.0000      -0.441696       -12.0192
  62   2.0000      -0.419802       -11.4234
  63   2.0000      -0.412751       -11.2315
  64   2.0000      -0.393277       -10.7016
  65   2.0000      -0.390133       -10.6161
  66   2.0000      -0.385900       -10.5009
  67   2.0000      -0.376152       -10.2356
  68   2.0000      -0.374146       -10.1810
  69   2.0000      -0.368794       -10.0354
  70   2.0000      -0.367376        -9.9968
  71   2.0000      -0.359714        -9.7883
  72   2.0000      -0.353466        -9.6183
  73   2.0000      -0.342710        -9.3256
  74   2.0000      -0.339183        -9.2296
  75   2.0000      -0.329407        -8.9636
  76   2.0000      -0.319190        -8.6856
  77   2.0000      -0.311145        -8.4667
  78   2.0000      -0.304597        -8.2885
  79   2.0000      -0.298854        -8.1322
  80   2.0000      -0.287937        -7.8352
  81   2.0000      -0.274585        -7.4718
  82   2.0000      -0.265025        -7.2117
  83   2.0000      -0.263731        -7.1765
  84   2.0000      -0.262722        -7.1490
  85   2.0000      -0.247130        -6.7248
  86   2.0000      -0.228993        -6.2312
  87   2.0000      -0.223334        -6.0772
  88   2.0000      -0.221173        -6.0184
  89   2.0000      -0.204532        -5.5656
  90   2.0000      -0.186345        -5.0707
  91   2.0000      -0.185349        -5.0436
  92   2.0000      -0.174852        -4.7580
  93   2.0000      -0.172554        -4.6954
  94   2.0000      -0.165897        -4.5143
  95   2.0000      -0.158515        -4.3134
  96   2.0000      -0.152529        -4.1505
  97   2.0000      -0.148771        -4.0483
  98   2.0000      -0.146762        -3.9936
  99   2.0000      -0.135173        -3.6782
 100   0.0000       0.076096         2.0707
 101   0.0000       0.120898         3.2898
 102   0.0000       0.134770         3.6673
 103   0.0000       0.141401         3.8477
 104   0.0000       0.143205         3.8968

MULLIKEN ATOMIC CHARGES
-----------------------
   0 C :   -0.607133
   1 C :    0.198010
   2 C :   -0.102071
   3 C :   -0.212673
   4 C :   -0.205868
   5 C :   -0.281111
   6 H :    0.501773
   7 H :    0.242106
   8 H :    0.176254
   9 H :    0.188574
  10 H :    0.185041
  11 C :   -0.500087
  12 C :   -0.520423
  13 H :    0.193329
  14 H :    0.280297
  15 C :    0.161938
  16 H :    0.255911
  17 H :    0.200566
  18 C :   -0.145188
  19 C :   -0.261035
  20 C :   -0.218155
  21 C :   -0.290431
  22 C :   -0.234055
  23 H :    0.235572
  24 H :    0.195498
  25 H :    0.173859
  26 H :    0.180194
  27 Pd:    0.114744
  28 Br:   -0.490016
  29 P :   -0.084020
  30 H :    0.118950
  31 C :    0.668648
  32 O :   -0.528295
  33 O :   -0.586277
  34 O :   -0.633684
  35 H :    0.089371
  36 H :    0.123133
  37 H :    0.416751
Sum of atomic charges:   -1.0000000

LOEWDIN ATOMIC CHARGES
----------------------
   0 C :   -0.204065
   1 C :    0.005022
   2 C :   -0.056224
   3 C :   -0.151908
   4 C :   -0.119261
   5 C :   -0.159187
   6 H :    0.336723
   7 H :    0.151636
   8 H :    0.118790
   9 H :    0.125042
  10 H :    0.121173
  11 C :   -0.213735
  12 C :   -0.207783
  13 H :    0.115102
  14 H :    0.158394
  15 C :   -0.038850
  16 H :    0.149697
  17 H :    0.117202
  18 C :   -0.011932
  19 C :   -0.121759
  20 C :   -0.138256
  21 C :   -0.144854
  22 C :   -0.168892
  23 H :    0.151261
  24 H :    0.128358
  25 H :    0.118655
  26 H :    0.118996
  27 Pd:   -0.833372
  28 Br:   -0.268928
  29 P :    0.420500
  30 H :    0.055097
  31 C :    0.093222
  32 O :   -0.345207
  33 O :   -0.353224
  34 O :   -0.352477
  35 H :    0.032882
  36 H :    0.057593
  37 H :    0.314569

  Mayer bond orders larger than 0.100000
B(  0-C ,  1-C ) :   1.2871 B(  0-C ,  2-C ) :   1.2954 B(  0-C ,  6-H ) :   0.3554
B(  0-C , 27-Pd) :   0.3438 B(  1-C ,  5-C ) :   1.4249 B(  1-C , 11-C ) :   0.9689
B(  2-C ,  3-C ) :   1.4442 B(  2-C ,  7-H ) :   0.9044 B(  3-C ,  4-C ) :   1.4156
B(  3-C ,  9-H ) :   0.9259 B(  4-C ,  5-C ) :   1.4288 B(  4-C , 10-H ) :   0.9278
B(  5-C ,  8-H ) :   0.9237 B(  6-H , 33-O ) :   0.3317 B( 11-C , 12-C ) :   0.9353
B( 11-C , 13-H ) :   0.9304 B( 11-C , 14-H ) :   0.8808 B( 12-C , 15-C ) :   0.9636
B( 12-C , 16-H ) :   0.8951 B( 12-C , 17-H ) :   0.9290 B( 15-C , 18-C ) :   1.3635
B( 15-C , 21-C ) :   1.4062 B( 18-C , 19-C ) :   1.4011 B( 18-C , 27-Pd) :   0.7732
B( 18-C , 28-Br) :   0.1149 B( 19-C , 20-C ) :   1.4240 B( 19-C , 23-H ) :   0.9067
B( 20-C , 22-C ) :   1.4229 B( 20-C , 24-H ) :   0.9239 B( 21-C , 22-C ) :   1.4248
B( 21-C , 25-H ) :   0.9267 B( 22-C , 26-H ) :   0.9294 B( 27-Pd, 28-Br) :   0.6006
B( 27-Pd, 29-P ) :   0.7019 B( 29-P , 30-H ) :   0.9336 B( 29-P , 35-H ) :   0.9095
B( 29-P , 36-H ) :   0.9327 B( 31-C , 32-O ) :   1.9111 B( 31-C , 33-O ) :   1.4028
B( 31-C , 34-O ) :   1.0223 B( 34-O , 37-H ) :   0.7792

Dispersion correction           -0.034312233
FINAL SINGLE POINT ENERGY     -3847.724611344609
Dispersion correction            ... done

DIPOLE MOMENT
-------------
                                X             Y             Z
Electronic contribution:    -12.80386     -90.11082      25.83337
Nuclear contribution   :     14.09836      89.86153     -23.17464
                        -----------------------------------------
Total Dipole Moment    :      1.29450      -0.24929       2.65872
                        -----------------------------------------
Magnitude (a.u.)       :      2.96760
Magnitude (Debye)      :      7.54305

Rotational constants in cm-1:     0.009536     0.005991     0.004951
Rotational constants in MHz :   285.869845   179.616595   148.434031

                      ***********************HURRAY********************
                             ****ORCA TERMINATED NORMALLY****
TOTAL RUN TIME: 0 days 6 hours 59 minutes 8 seconds 546 msec
