                         Program Version 5.0.3 -  RELEASE  -
|  1> ! EnGrad PBEh-3c
|  2> %output
|  3> xyzfile=True
|  4> end
|  5> %scf
|  6> maxiter 250
|  7> end
|  8> %output
|  9> Print[P_Hirshfeld] = 1
| 10> end
| 11> % maxcore
| 12> 4000
| 13> *xyz -1 1
| 14> Pt  -1.22669352  -1.00092467   0.62715755
| 15> Cl  -0.29928549  -0.84436675   2.75044785
| 16> Cl  -2.77665723  -2.53911504   1.18230242
| 17> Cl  -1.93023036  -0.89857264  -1.58418240
| 18> C    1.22101593   1.06653698  -0.62374355
| 19> H    1.43755702   2.10692224  -0.39504757
| 20> H    1.27686968   0.46857154   0.44892459
| 21> H    2.01230594   0.63308337  -1.23285768
| 22> H    0.28511803   1.00785659  -1.17299797
| 23> *
| 24>
| 25>                          ****END OF INPUT****

CARTESIAN COORDINATES (ANGSTROEM)
---------------------------------
  Pt    -1.226694   -1.000925    0.627158
  Cl    -0.299285   -0.844367    2.750448
  Cl    -2.776657   -2.539115    1.182302
  Cl    -1.930230   -0.898573   -1.584182
  C      1.221016    1.066537   -0.623744
  H      1.437557    2.106922   -0.395048
  H      1.276870    0.468572    0.448925
  H      2.012306    0.633083   -1.232858
  H      0.285118    1.007857   -1.172998

 Total Charge           Charge          ....   -1
 Multiplicity           Mult            ....    1
 Number of Electrons    NEL             ....   80
 Basis Dimension        Dim             ....  109

ORBITAL ENERGIES
----------------

  NO   OCC          E(Eh)            E(eV)
   0   2.0000    -102.121155     -2778.8579
   1   2.0000    -102.095346     -2778.1556
   2   2.0000    -102.094758     -2778.1396
   3   2.0000     -10.325257      -280.9645
   4   2.0000      -9.584834      -260.8166
   5   2.0000      -9.559325      -260.1224
   6   2.0000      -9.558790      -260.1079
   7   2.0000      -7.272482      -197.8943
   8   2.0000      -7.264843      -197.6864
   9   2.0000      -7.264573      -197.6791
  10   2.0000      -7.245057      -197.1480
  11   2.0000      -7.244621      -197.1362
  12   2.0000      -7.240571      -197.0259
  13   2.0000      -7.240108      -197.0134
  14   2.0000      -7.239902      -197.0078
  15   2.0000      -7.239579      -196.9990
  16   2.0000      -3.942564      -107.2826
  17   2.0000      -2.159914       -58.7743
  18   2.0000      -2.156940       -58.6933
  19   2.0000      -2.119317       -57.6695
  20   2.0000      -0.710775       -19.3412
  21   2.0000      -0.692049       -18.8316
  22   2.0000      -0.681682       -18.5495
  23   2.0000      -0.663575       -18.0568
  24   2.0000      -0.348259        -9.4766
  25   2.0000      -0.347255        -9.4493
  26   2.0000      -0.318017        -8.6537
  27   2.0000      -0.289993        -7.8911
  28   2.0000      -0.276894        -7.5347
  29   2.0000      -0.274878        -7.4798
  30   2.0000      -0.233843        -6.3632
  31   2.0000      -0.232370        -6.3231
  32   2.0000      -0.208202        -5.6655
  33   2.0000      -0.185659        -5.0520
  34   2.0000      -0.184873        -5.0306
  35   2.0000      -0.163827        -4.4579
  36   2.0000      -0.145687        -3.9643
  37   2.0000      -0.140666        -3.8277
  38   2.0000      -0.128795        -3.5047
  39   2.0000      -0.118640        -3.2284
  40   0.0000       0.057839         1.5739
  41   0.0000       0.187901         5.1130
  42   0.0000       0.198684         5.4065
  43   0.0000       0.253381         6.8948
  44   0.0000       0.264168         7.1884

MULLIKEN ATOMIC CHARGES
-----------------------
   0 Pt:    0.155548
   1 Cl:   -0.434755
   2 Cl:   -0.305873
   3 Cl:   -0.433440
   4 C :   -0.898843
   5 H :    0.205909
   6 H :    0.230550
   7 H :    0.212461
   8 H :    0.268443
Sum of atomic charges:   -1.0000000

LOEWDIN ATOMIC CHARGES
----------------------
   0 Pt:   -0.818785
   1 Cl:   -0.134641
   2 Cl:    0.027936
   3 Cl:   -0.135507
   4 C :   -0.510419
   5 H :    0.118323
   6 H :    0.168378
   7 H :    0.122854
   8 H :    0.161861

  Mayer bond orders larger than 0.100000
B(  0-Pt,  1-Cl) :   0.8122 B(  0-Pt,  2-Cl) :   1.0221 B(  0-Pt,  3-Cl) :   0.8027
B(  1-Cl,  3-Cl) :   0.1090 B(  4-C ,  5-H ) :   0.9294 B(  4-C ,  6-H ) :   0.9050
B(  4-C ,  7-H ) :   0.9301 B(  4-C ,  8-H ) :   0.8928

Dispersion correction           -0.004415748
FINAL SINGLE POINT ENERGY     -1539.037289391196
Dispersion correction            ... done

DIPOLE MOMENT
-------------
                                X             Y             Z
Electronic contribution:     -6.72445      -2.94195       6.45226
Nuclear contribution   :      7.47670       3.63167      -6.78093
                        -----------------------------------------
Total Dipole Moment    :      0.75225       0.68973      -0.32867
                        -----------------------------------------
Magnitude (a.u.)       :      1.07220
Magnitude (Debye)      :      2.72533

Rotational constants in cm-1:     0.046025     0.042890     0.022353
Rotational constants in MHz :  1379.808258  1285.819483   670.128980

                             ****ORCA TERMINATED NORMALLY****
TOTAL RUN TIME: 0 days 0 hours 0 minutes 45 seconds 268 msec
