                         Program Version 5.0.3 -  RELEASE  -
|  1> ! EnGrad PBEh-3c
|  2> %output
|  3> xyzfile=True
|  4> end
|  5> %scf
|  6> maxiter 250
|  7> end
|  8> %output
|  9> Print[P_Hirshfeld] = 1
| 10> end
| 11> % maxcore
| 12> 4000
| 13> *xyz -1 1
| 14> Pt  -1.21831587  -1.00582476   0.61897299
| 15> Cl  -0.30139765  -0.81582237   2.73325304
| 16> Cl  -2.75071238  -2.48985150   1.18253344
| 17> Cl  -1.88637468  -0.92358678  -1.58703569
| 18> C    1.25238256   0.95493563  -0.41162948
| 19> H    1.44696174   2.08469765  -0.35548276
| 20> H    1.23603045   0.51691858   0.21217565
| 21> H    1.97381928   0.65174842  -1.26122406
| 22> H    0.24692626   1.02439980  -1.13045836
| 23> *
| 24>
| 25>                          ****END OF INPUT****

CARTESIAN COORDINATES (ANGSTROEM)
---------------------------------
  Pt    -1.218316   -1.005825    0.618973
  Cl    -0.301398   -0.815822    2.733253
  Cl    -2.750712   -2.489851    1.182533
  Cl    -1.886375   -0.923587   -1.587036
  C      1.252383    0.954936   -0.411629
  H      1.446962    2.084698   -0.355483
  H      1.236030    0.516919    0.212176
  H      1.973819    0.651748   -1.261224
  H      0.246926    1.024400   -1.130458

 Total Charge           Charge          ....   -1
 Multiplicity           Mult            ....    1
 Number of Electrons    NEL             ....   80
 Basis Dimension        Dim             ....  109

ORBITAL ENERGIES
----------------

  NO   OCC          E(Eh)            E(eV)
   0   2.0000    -102.121433     -2778.8655
   1   2.0000    -102.094031     -2778.1198
   2   2.0000    -102.093334     -2778.1008
   3   2.0000     -10.315842      -280.7083
   4   2.0000      -9.585816      -260.8433
   5   2.0000      -9.558131      -260.0900
   6   2.0000      -9.557645      -260.0767
   7   2.0000      -7.273463      -197.9210
   8   2.0000      -7.265763      -197.7115
   9   2.0000      -7.265457      -197.7031
  10   2.0000      -7.243814      -197.1142
  11   2.0000      -7.243463      -197.1046
  12   2.0000      -7.239448      -196.9954
  13   2.0000      -7.238875      -196.9798
  14   2.0000      -7.238734      -196.9760
  15   2.0000      -7.238406      -196.9670
  16   2.0000      -3.941005      -107.2402
  17   2.0000      -2.159829       -58.7719
  18   2.0000      -2.155187       -58.6456
  19   2.0000      -2.117771       -57.6275
  20   2.0000      -0.715117       -19.4593
  21   2.0000      -0.699195       -19.0261
  22   2.0000      -0.691681       -18.8216
  23   2.0000      -0.681181       -18.5359
  24   2.0000      -0.432408       -11.7664
  25   2.0000      -0.318171        -8.6579
  26   2.0000      -0.301501        -8.2043
  27   2.0000      -0.290788        -7.9127
  28   2.0000      -0.283799        -7.7226
  29   2.0000      -0.275806        -7.5051
  30   2.0000      -0.238538        -6.4910
  31   2.0000      -0.233166        -6.3448
  32   2.0000      -0.208565        -5.6753
  33   2.0000      -0.185236        -5.0405
  34   2.0000      -0.184374        -5.0171
  35   2.0000      -0.162778        -4.4294
  36   2.0000      -0.144056        -3.9200
  37   2.0000      -0.137259        -3.7350
  38   2.0000      -0.125296        -3.4095
  39   2.0000      -0.116119        -3.1598
  40   0.0000       0.064043         1.7427
  41   0.0000       0.192798         5.2463
  42   0.0000       0.200912         5.4671
  43   0.0000       0.253832         6.9071
  44   0.0000       0.264469         7.1966

MULLIKEN ATOMIC CHARGES
-----------------------
   0 Pt:    0.140877
   1 Cl:   -0.434347
   2 Cl:   -0.295640
   3 Cl:   -0.433398
   4 C :   -0.939383
   5 H :    0.192901
   6 H :    0.345874
   7 H :    0.193407
   8 H :    0.229709
Sum of atomic charges:   -1.0000000

LOEWDIN ATOMIC CHARGES
----------------------
   0 Pt:   -0.842765
   1 Cl:   -0.130913
   2 Cl:    0.053604
   3 Cl:   -0.129412
   4 C :   -0.481126
   5 H :    0.124200
   6 H :    0.109573
   7 H :    0.126293
   8 H :    0.170545

  Mayer bond orders larger than 0.100000
B(  0-Pt,  1-Cl) :   0.8192 B(  0-Pt,  2-Cl) :   1.0389 B(  0-Pt,  3-Cl) :   0.8027
B(  1-Cl,  3-Cl) :   0.1092 B(  4-C ,  5-H ) :   0.9425 B(  4-C ,  6-H ) :   0.8527
B(  4-C ,  7-H ) :   0.9446 B(  4-C ,  8-H ) :   0.9104

Dispersion correction           -0.004486812
FINAL SINGLE POINT ENERGY     -1538.882807805608
Dispersion correction            ... done

DIPOLE MOMENT
-------------
                                X             Y             Z
Electronic contribution:     -7.38396      -3.50611       5.27841
Nuclear contribution   :      8.06471       4.18217      -5.66683
                        -----------------------------------------
Total Dipole Moment    :      0.68075       0.67606      -0.38843
                        -----------------------------------------
Magnitude (a.u.)       :      1.03506
Magnitude (Debye)      :      2.63091

Rotational constants in cm-1:     0.047273     0.044285     0.023017
Rotational constants in MHz :  1417.203566  1327.626746   690.022775

                             ****ORCA TERMINATED NORMALLY****
TOTAL RUN TIME: 0 days 0 hours 0 minutes 39 seconds 542 msec
