                         Program Version 5.0.3 -  RELEASE  -
|  1> ! EnGrad PBEh-3c
|  2> %output
|  3> xyzfile=True
|  4> end
|  5> %scf
|  6> maxiter 250
|  7> end
|  8> %output
|  9> Print[P_Hirshfeld] = 1
| 10> end
| 11> % maxcore
| 12> 4000
| 13> *xyz -1 1
| 14> Pt  -1.22316597  -1.00298793   0.62371130
| 15> Cl  -0.30017485  -0.83234766   2.74320769
| 16> Cl  -2.76573272  -2.51837181   1.18239970
| 17> Cl  -1.91176420  -0.90910525  -1.58538383
| 18> C    1.23422337   1.01954537  -0.53442940
| 19> H    1.44151703   2.09756421  -0.37838815
| 20> H    1.25967364   0.48892886   0.34923751
| 21> H    1.99610049   0.64094260  -1.24480181
| 22> H    0.26903675   1.01482238  -1.15508596
| 23> *
| 24>
| 25>                          ****END OF INPUT****

CARTESIAN COORDINATES (ANGSTROEM)
---------------------------------
  Pt    -1.223166   -1.002988    0.623711
  Cl    -0.300175   -0.832348    2.743208
  Cl    -2.765733   -2.518372    1.182400
  Cl    -1.911764   -0.909105   -1.585384
  C      1.234223    1.019545   -0.534429
  H      1.441517    2.097564   -0.378388
  H      1.259674    0.488929    0.349238
  H      1.996100    0.640943   -1.244802
  H      0.269037    1.014822   -1.155086

 Total Charge           Charge          ....   -1
 Multiplicity           Mult            ....    1
 Number of Electrons    NEL             ....   80
 Basis Dimension        Dim             ....  109

ORBITAL ENERGIES
----------------

  NO   OCC          E(Eh)            E(eV)
   0   2.0000    -102.121806     -2778.8756
   1   2.0000    -102.095293     -2778.1542
   2   2.0000    -102.094409     -2778.1301
   3   2.0000     -10.315081      -280.6876
   4   2.0000      -9.585764      -260.8419
   5   2.0000      -9.559319      -260.1223
   6   2.0000      -9.558559      -260.1016
   7   2.0000      -7.273423      -197.9199
   8   2.0000      -7.265741      -197.7109
   9   2.0000      -7.265458      -197.7032
  10   2.0000      -7.245029      -197.1473
  11   2.0000      -7.244387      -197.1298
  12   2.0000      -7.240596      -197.0266
  13   2.0000      -7.240087      -197.0128
  14   2.0000      -7.239659      -197.0011
  15   2.0000      -7.239333      -196.9923
  16   2.0000      -3.942320      -107.2760
  17   2.0000      -2.160308       -58.7850
  18   2.0000      -2.156608       -58.6843
  19   2.0000      -2.119078       -57.6631
  20   2.0000      -0.712975       -19.4010
  21   2.0000      -0.692643       -18.8478
  22   2.0000      -0.681830       -18.5535
  23   2.0000      -0.669671       -18.2227
  24   2.0000      -0.367313        -9.9951
  25   2.0000      -0.335246        -9.1225
  26   2.0000      -0.322175        -8.7668
  27   2.0000      -0.291067        -7.9203
  28   2.0000      -0.280894        -7.6435
  29   2.0000      -0.276516        -7.5244
  30   2.0000      -0.236043        -6.4230
  31   2.0000      -0.233274        -6.3477
  32   2.0000      -0.208756        -5.6805
  33   2.0000      -0.185813        -5.0562
  34   2.0000      -0.185294        -5.0421
  35   2.0000      -0.163776        -4.4566
  36   2.0000      -0.145424        -3.9572
  37   2.0000      -0.139721        -3.8020
  38   2.0000      -0.127748        -3.4762
  39   2.0000      -0.117943        -3.2094
  40   0.0000       0.059799         1.6272
  41   0.0000       0.190029         5.1709
  42   0.0000       0.199512         5.4290
  43   0.0000       0.262551         7.1444
  44   0.0000       0.266375         7.2484

MULLIKEN ATOMIC CHARGES
-----------------------
   0 Pt:    0.153231
   1 Cl:   -0.434718
   2 Cl:   -0.300867
   3 Cl:   -0.432625
   4 C :   -0.915923
   5 H :    0.197287
   6 H :    0.276945
   7 H :    0.203999
   8 H :    0.252670
Sum of atomic charges:   -1.0000000

LOEWDIN ATOMIC CHARGES
----------------------
   0 Pt:   -0.826714
   1 Cl:   -0.133055
   2 Cl:    0.039471
   3 Cl:   -0.132266
   4 C :   -0.511564
   5 H :    0.117628
   6 H :    0.159166
   7 H :    0.122043
   8 H :    0.165291

  Mayer bond orders larger than 0.100000
B(  0-Pt,  1-Cl) :   0.8157 B(  0-Pt,  2-Cl) :   1.0298 B(  0-Pt,  3-Cl) :   0.8040
B(  1-Cl,  3-Cl) :   0.1092 B(  4-C ,  5-H ) :   0.9374 B(  4-C ,  6-H ) :   0.8872
B(  4-C ,  7-H ) :   0.9372 B(  4-C ,  8-H ) :   0.9018

Dispersion correction           -0.004440533
FINAL SINGLE POINT ENERGY     -1539.040832133596
Dispersion correction            ... done

DIPOLE MOMENT
-------------
                                X             Y             Z
Electronic contribution:     -7.01637      -3.20359       5.98184
Nuclear contribution   :      7.72429       3.86347      -6.31182
                        -----------------------------------------
Total Dipole Moment    :      0.70792       0.65988      -0.32998
                        -----------------------------------------
Magnitude (a.u.)       :      1.02248
Magnitude (Debye)      :      2.59895

Rotational constants in cm-1:     0.046441     0.043584     0.022635
Rotational constants in MHz :  1392.262817  1306.605712   678.574733

                             ****ORCA TERMINATED NORMALLY****
TOTAL RUN TIME: 0 days 0 hours 0 minutes 45 seconds 266 msec
