                         Program Version 5.0.3 -  RELEASE  -
|  1> ! EnGrad PBEh-3c
|  2> %output
|  3> xyzfile=True
|  4> end
|  5> %scf
|  6> maxiter 250
|  7> end
|  8> %output
|  9> Print[P_Hirshfeld] = 1
| 10> end
| 11> % maxcore
| 12> 4000
| 13> *xyz -1 1
| 14> Pt  -1.22290767  -1.00595906   0.62012871
| 15> Cl  -0.30194647  -0.82299127   2.73168611
| 16> Cl  -2.75542467  -2.50005323   1.18495329
| 17> Cl  -1.89530951  -0.91801256  -1.58377729
| 18> C    1.23095007   1.03620070  -0.56321773
| 19> H    1.44576479   2.07202665  -0.35854429
| 20> H    1.23713390   0.47795050   0.31118547
| 21> H    1.97546518   0.65010318  -1.23872988
| 22> H    0.28557709   1.00827485  -1.10238365
| 23> *
| 24>
| 25>                          ****END OF INPUT****

CARTESIAN COORDINATES (ANGSTROEM)
---------------------------------
  Pt    -1.222908   -1.005959    0.620129
  Cl    -0.301946   -0.822991    2.731686
  Cl    -2.755425   -2.500053    1.184953
  Cl    -1.895310   -0.918013   -1.583777
  C      1.230950    1.036201   -0.563218
  H      1.445765    2.072027   -0.358544
  H      1.237134    0.477951    0.311185
  H      1.975465    0.650103   -1.238730
  H      0.285577    1.008275   -1.102384

 Total Charge           Charge          ....   -1
 Multiplicity           Mult            ....    1
 Number of Electrons    NEL             ....   80
 Basis Dimension        Dim             ....  109

ORBITAL ENERGIES
----------------

  NO   OCC          E(Eh)            E(eV)
   0   2.0000    -102.122162     -2778.8853
   1   2.0000    -102.094844     -2778.1420
   2   2.0000    -102.094692     -2778.1378
   3   2.0000     -10.301701      -280.3235
   4   2.0000      -9.586422      -260.8598
   5   2.0000      -9.558986      -260.1132
   6   2.0000      -9.558962      -260.1126
   7   2.0000      -7.274085      -197.9379
   8   2.0000      -7.266367      -197.7279
   9   2.0000      -7.266075      -197.7199
  10   2.0000      -7.244773      -197.1403
  11   2.0000      -7.244675      -197.1376
  12   2.0000      -7.240252      -197.0173
  13   2.0000      -7.240088      -197.0128
  14   2.0000      -7.239733      -197.0031
  15   2.0000      -7.239727      -197.0030
  16   2.0000      -3.941864      -107.2636
  17   2.0000      -2.160455       -58.7890
  18   2.0000      -2.156182       -58.6727
  19   2.0000      -2.118631       -57.6509
  20   2.0000      -0.715102       -19.4589
  21   2.0000      -0.693580       -18.8733
  22   2.0000      -0.682253       -18.5650
  23   2.0000      -0.677473       -18.4350
  24   2.0000      -0.358598        -9.7579
  25   2.0000      -0.343909        -9.3582
  26   2.0000      -0.336614        -9.1597
  27   2.0000      -0.292311        -7.9542
  28   2.0000      -0.283850        -7.7240
  29   2.0000      -0.279479        -7.6050
  30   2.0000      -0.238382        -6.4867
  31   2.0000      -0.234214        -6.3733
  32   2.0000      -0.209455        -5.6996
  33   2.0000      -0.186282        -5.0690
  34   2.0000      -0.185986        -5.0609
  35   2.0000      -0.163811        -4.4575
  36   2.0000      -0.144958        -3.9445
  37   2.0000      -0.138449        -3.7674
  38   2.0000      -0.126277        -3.4362
  39   2.0000      -0.116957        -3.1826
  40   0.0000       0.062087         1.6895
  41   0.0000       0.192177         5.2294
  42   0.0000       0.200305         5.4506
  43   0.0000       0.264979         7.2104
  44   0.0000       0.267740         7.2856

MULLIKEN ATOMIC CHARGES
-----------------------
   0 Pt:    0.147122
   1 Cl:   -0.433794
   2 Cl:   -0.296564
   3 Cl:   -0.432036
   4 C :   -0.928151
   5 H :    0.202710
   6 H :    0.271094
   7 H :    0.209123
   8 H :    0.260496
Sum of atomic charges:   -1.0000000

LOEWDIN ATOMIC CHARGES
----------------------
   0 Pt:   -0.841723
   1 Cl:   -0.129848
   2 Cl:    0.049973
   3 Cl:   -0.127337
   4 C :   -0.513303
   5 H :    0.119473
   6 H :    0.158259
   7 H :    0.123568
   8 H :    0.160938

  Mayer bond orders larger than 0.100000
B(  0-Pt,  1-Cl) :   0.8173 B(  0-Pt,  2-Cl) :   1.0361 B(  0-Pt,  3-Cl) :   0.8065
B(  1-Cl,  3-Cl) :   0.1093 B(  4-C ,  5-H ) :   0.9377 B(  4-C ,  6-H ) :   0.8913
B(  4-C ,  7-H ) :   0.9376 B(  4-C ,  8-H ) :   0.9004

Dispersion correction           -0.004461949
FINAL SINGLE POINT ENERGY     -1539.045638874263
Dispersion correction            ... done

DIPOLE MOMENT
-------------
                                X             Y             Z
Electronic contribution:     -7.36532      -3.74400       6.00884
Nuclear contribution   :      8.04529       4.37179      -6.32520
                        -----------------------------------------
Total Dipole Moment    :      0.67997       0.62779      -0.31636
                        -----------------------------------------
Magnitude (a.u.)       :      0.97804
Magnitude (Debye)      :      2.48598

Rotational constants in cm-1:     0.046852     0.043804     0.022779
Rotational constants in MHz :  1404.594708  1313.217215   682.904832

                             ****ORCA TERMINATED NORMALLY****
TOTAL RUN TIME: 0 days 0 hours 0 minutes 44 seconds 299 msec
