                         Program Version 5.0.3 -  RELEASE  -
|  1> ! EnGrad PBEh-3c
|  2> %output
|  3> xyzfile=True
|  4> end
|  5> %scf
|  6> maxiter 250
|  7> end
|  8> %output
|  9> Print[P_Hirshfeld] = 1
| 10> end
| 11> % maxcore
| 12> 4000
| 13> *xyz -1 1
| 14> Pt  -1.21482193  -1.00143263   0.61666160
| 15> Cl  -0.30094041  -0.81384505   2.72893441
| 16> Cl  -2.75375180  -2.49160128   1.18609897
| 17> Cl  -1.88388165  -0.92465374  -1.58774525
| 18> C    1.22236169   1.04889169  -0.59254242
| 19> H    1.44837571   2.06391238  -0.34272007
| 20> H    1.23259016   0.45131821   0.32396589
| 21> H    1.96650278   0.65190647  -1.24417092
| 22> H    0.28259855   1.01293378  -1.08706371
| 23> *
| 24>
| 25>                          ****END OF INPUT****

CARTESIAN COORDINATES (ANGSTROEM)
---------------------------------
  Pt    -1.214822   -1.001433    0.616662
  Cl    -0.300940   -0.813845    2.728934
  Cl    -2.753752   -2.491601    1.186099
  Cl    -1.883882   -0.924654   -1.587745
  C      1.222362    1.048892   -0.592542
  H      1.448376    2.063912   -0.342720
  H      1.232590    0.451318    0.323966
  H      1.966503    0.651906   -1.244171
  H      0.282599    1.012934   -1.087064

 Total Charge           Charge          ....   -1
 Multiplicity           Mult            ....    1
 Number of Electrons    NEL             ....   80
 Basis Dimension        Dim             ....  109

ORBITAL ENERGIES
----------------

  NO   OCC          E(Eh)            E(eV)
   0   2.0000    -102.121933     -2778.8791
   1   2.0000    -102.094709     -2778.1383
   2   2.0000    -102.094652     -2778.1367
   3   2.0000     -10.303048      -280.3602
   4   2.0000      -9.586151      -260.8524
   5   2.0000      -9.558949      -260.1122
   6   2.0000      -9.558871      -260.1101
   7   2.0000      -7.273814      -197.9305
   8   2.0000      -7.266099      -197.7206
   9   2.0000      -7.265808      -197.7127
  10   2.0000      -7.244744      -197.1395
  11   2.0000      -7.244579      -197.1350
  12   2.0000      -7.240132      -197.0140
  13   2.0000      -7.240064      -197.0122
  14   2.0000      -7.239702      -197.0023
  15   2.0000      -7.239629      -197.0003
  16   2.0000      -3.941813      -107.2622
  17   2.0000      -2.160283       -58.7843
  18   2.0000      -2.156201       -58.6732
  19   2.0000      -2.118592       -57.6498
  20   2.0000      -0.714693       -19.4478
  21   2.0000      -0.693589       -18.8735
  22   2.0000      -0.682257       -18.5652
  23   2.0000      -0.676504       -18.4086
  24   2.0000      -0.349190        -9.5019
  25   2.0000      -0.347539        -9.4570
  26   2.0000      -0.341475        -9.2920
  27   2.0000      -0.292418        -7.9571
  28   2.0000      -0.283067        -7.7026
  29   2.0000      -0.279385        -7.6025
  30   2.0000      -0.237882        -6.4731
  31   2.0000      -0.234348        -6.3769
  32   2.0000      -0.209343        -5.6965
  33   2.0000      -0.186284        -5.0690
  34   2.0000      -0.185902        -5.0586
  35   2.0000      -0.163680        -4.4540
  36   2.0000      -0.144927        -3.9437
  37   2.0000      -0.138518        -3.7693
  38   2.0000      -0.126289        -3.4365
  39   2.0000      -0.116794        -3.1781
  40   0.0000       0.062096         1.6897
  41   0.0000       0.192416         5.2359
  42   0.0000       0.200165         5.4468
  43   0.0000       0.264720         7.2034
  44   0.0000       0.267224         7.2715

MULLIKEN ATOMIC CHARGES
-----------------------
   0 Pt:    0.145329
   1 Cl:   -0.433393
   2 Cl:   -0.297305
   3 Cl:   -0.432123
   4 C :   -0.925864
   5 H :    0.205738
   6 H :    0.257037
   7 H :    0.213292
   8 H :    0.267288
Sum of atomic charges:   -1.0000000

LOEWDIN ATOMIC CHARGES
----------------------
   0 Pt:   -0.844722
   1 Cl:   -0.128945
   2 Cl:    0.048107
   3 Cl:   -0.126995
   4 C :   -0.513024
   5 H :    0.119926
   6 H :    0.162315
   7 H :    0.124107
   8 H :    0.159230

  Mayer bond orders larger than 0.100000
B(  0-Pt,  1-Cl) :   0.8168 B(  0-Pt,  2-Cl) :   1.0343 B(  0-Pt,  3-Cl) :   0.8066
B(  1-Cl,  3-Cl) :   0.1094 B(  4-C ,  5-H ) :   0.9355 B(  4-C ,  6-H ) :   0.8968
B(  4-C ,  7-H ) :   0.9349 B(  4-C ,  8-H ) :   0.8963

Dispersion correction           -0.004472391
FINAL SINGLE POINT ENERGY     -1539.047132159398
Dispersion correction            ... done

DIPOLE MOMENT
-------------
                                X             Y             Z
Electronic contribution:     -7.03534      -3.68118       6.01091
Nuclear contribution   :      7.72810       4.31205      -6.32363
                        -----------------------------------------
Total Dipole Moment    :      0.69276       0.63087      -0.31271
                        -----------------------------------------
Magnitude (a.u.)       :      0.98778
Magnitude (Debye)      :      2.51073

Rotational constants in cm-1:     0.046995     0.043731     0.022787
Rotational constants in MHz :  1408.889154  1311.018051   683.140243

                             ****ORCA TERMINATED NORMALLY****
TOTAL RUN TIME: 0 days 0 hours 0 minutes 45 seconds 765 msec
