                         Program Version 5.0.3 -  RELEASE  -
|  1> ! EnGrad PBEh-3c
|  2> %output
|  3> xyzfile=True
|  4> end
|  5> %scf
|  6> maxiter 250
|  7> end
|  8> %output
|  9> Print[P_Hirshfeld] = 1
| 10> end
| 11> % maxcore
| 12> 4000
| 13> *xyz -1 1
| 14> Pt  -1.21228084  -0.99966811   0.61550775
| 15> Cl  -0.30073065  -0.81181462   2.72743853
| 16> Cl  -2.75441947  -2.49046833   1.18768389
| 17> Cl  -1.88103437  -0.92625886  -1.58896633
| 18> C    1.22351646   1.04690287  -0.58807339
| 19> H    1.45077549   2.06710860  -0.33748663
| 20> H    1.22958803   0.44840049   0.32104100
| 21> H    1.96913056   0.65055291  -1.24991674
| 22> H    0.27432125   1.01248289  -1.08566553
| 23> *
| 24>
| 25>                          ****END OF INPUT****

CARTESIAN COORDINATES (ANGSTROEM)
---------------------------------
  Pt    -1.212281   -0.999668    0.615508
  Cl    -0.300731   -0.811815    2.727439
  Cl    -2.754419   -2.490468    1.187684
  Cl    -1.881034   -0.926259   -1.588966
  C      1.223516    1.046903   -0.588073
  H      1.450775    2.067109   -0.337487
  H      1.229588    0.448400    0.321041
  H      1.969131    0.650553   -1.249917
  H      0.274321    1.012483   -1.085666

 Total Charge           Charge          ....   -1
 Multiplicity           Mult            ....    1
 Number of Electrons    NEL             ....   80
 Basis Dimension        Dim             ....  109

ORBITAL ENERGIES
----------------

  NO   OCC          E(Eh)            E(eV)
   0   2.0000    -102.121911     -2778.8785
   1   2.0000    -102.094839     -2778.1418
   2   2.0000    -102.094646     -2778.1365
   3   2.0000     -10.304871      -280.4098
   4   2.0000      -9.586077      -260.8504
   5   2.0000      -9.559021      -260.1142
   6   2.0000      -9.558942      -260.1120
   7   2.0000      -7.273742      -197.9286
   8   2.0000      -7.266029      -197.7187
   9   2.0000      -7.265740      -197.7108
  10   2.0000      -7.244742      -197.1395
  11   2.0000      -7.244726      -197.1390
  12   2.0000      -7.240275      -197.0179
  13   2.0000      -7.240061      -197.0121
  14   2.0000      -7.239772      -197.0042
  15   2.0000      -7.239699      -197.0022
  16   2.0000      -3.941889      -107.2642
  17   2.0000      -2.160253       -58.7835
  18   2.0000      -2.156334       -58.6768
  19   2.0000      -2.118678       -57.6521
  20   2.0000      -0.714406       -19.4400
  21   2.0000      -0.693666       -18.8756
  22   2.0000      -0.682347       -18.5676
  23   2.0000      -0.675072       -18.3696
  24   2.0000      -0.347909        -9.4671
  25   2.0000      -0.345713        -9.4073
  26   2.0000      -0.342321        -9.3150
  27   2.0000      -0.292600        -7.9620
  28   2.0000      -0.282628        -7.6907
  29   2.0000      -0.279154        -7.5962
  30   2.0000      -0.237506        -6.4629
  31   2.0000      -0.234514        -6.3814
  32   2.0000      -0.209360        -5.6970
  33   2.0000      -0.186357        -5.0710
  34   2.0000      -0.185979        -5.0607
  35   2.0000      -0.163736        -4.4555
  36   2.0000      -0.145033        -3.9465
  37   2.0000      -0.138766        -3.7760
  38   2.0000      -0.126436        -3.4405
  39   2.0000      -0.116815        -3.1787
  40   0.0000       0.061714         1.6793
  41   0.0000       0.192422         5.2361
  42   0.0000       0.200051         5.4437
  43   0.0000       0.264653         7.2016
  44   0.0000       0.266984         7.2650

MULLIKEN ATOMIC CHARGES
-----------------------
   0 Pt:    0.145274
   1 Cl:   -0.432959
   2 Cl:   -0.297919
   3 Cl:   -0.432076
   4 C :   -0.923742
   5 H :    0.204790
   6 H :    0.259209
   7 H :    0.211793
   8 H :    0.265630
Sum of atomic charges:   -1.0000000

LOEWDIN ATOMIC CHARGES
----------------------
   0 Pt:   -0.844327
   1 Cl:   -0.128070
   2 Cl:    0.046410
   3 Cl:   -0.126969
   4 C :   -0.512693
   5 H :    0.119789
   6 H :    0.161962
   7 H :    0.123962
   8 H :    0.159936

  Mayer bond orders larger than 0.100000
B(  0-Pt,  1-Cl) :   0.8175 B(  0-Pt,  2-Cl) :   1.0330 B(  0-Pt,  3-Cl) :   0.8065
B(  1-Cl,  3-Cl) :   0.1095 B(  4-C ,  5-H ) :   0.9356 B(  4-C ,  6-H ) :   0.8949
B(  4-C ,  7-H ) :   0.9354 B(  4-C ,  8-H ) :   0.8965

Dispersion correction           -0.004475181
FINAL SINGLE POINT ENERGY     -1539.047746066720
Dispersion correction            ... done

DIPOLE MOMENT
-------------
                                X             Y             Z
Electronic contribution:     -6.92205      -3.58841       5.94062
Nuclear contribution   :      7.61608       4.22081      -6.25198
                        -----------------------------------------
Total Dipole Moment    :      0.69403       0.63240      -0.31136
                        -----------------------------------------
Magnitude (a.u.)       :      0.98922
Magnitude (Debye)      :      2.51439

Rotational constants in cm-1:     0.046990     0.043761     0.022794
Rotational constants in MHz :  1408.737167  1311.923537   683.351295

                             ****ORCA TERMINATED NORMALLY****
TOTAL RUN TIME: 0 days 0 hours 0 minutes 44 seconds 380 msec
