                         Program Version 5.0.3 -  RELEASE  -
|  1> ! EnGrad PBEh-3c
|  2> %output
|  3> xyzfile=True
|  4> end
|  5> %scf
|  6> maxiter 250
|  7> end
|  8> %output
|  9> Print[P_Hirshfeld] = 1
| 10> end
| 11> % maxcore
| 12> 4000
| 13> *xyz -1 1
| 14> Pt  -1.20044489  -0.99192634   0.60918542
| 15> Cl  -0.29902901  -0.80006869   2.71956508
| 16> Cl  -2.75647993  -2.48219672   1.19620843
| 17> Cl  -1.86491463  -0.93530925  -1.59653251
| 18> C    1.22346573   1.04192540  -0.58226457
| 19> H    1.46252782   2.07638679  -0.30935948
| 20> H    1.21462694   0.42828619   0.31078863
| 21> H    1.97509790   0.64745010  -1.27451311
| 22> H    0.24298703   1.01158299  -1.07076824
| 23> *
| 24>
| 25>                          ****END OF INPUT****

CARTESIAN COORDINATES (ANGSTROEM)
---------------------------------
  Pt    -1.200445   -0.991926    0.609185
  Cl    -0.299029   -0.800069    2.719565
  Cl    -2.756480   -2.482197    1.196208
  Cl    -1.864915   -0.935309   -1.596533
  C      1.223466    1.041925   -0.582265
  H      1.462528    2.076387   -0.309359
  H      1.214627    0.428286    0.310789
  H      1.975098    0.647450   -1.274513
  H      0.242987    1.011583   -1.070768

 Total Charge           Charge          ....   -1
 Multiplicity           Mult            ....    1
 Number of Electrons    NEL             ....   80
 Basis Dimension        Dim             ....  109

ORBITAL ENERGIES
----------------

  NO   OCC          E(Eh)            E(eV)
   0   2.0000    -102.121784     -2778.8750
   1   2.0000    -102.095315     -2778.1547
   2   2.0000    -102.094648     -2778.1366
   3   2.0000     -10.311863      -280.6001
   4   2.0000      -9.585756      -260.8417
   5   2.0000      -9.559564      -260.1290
   6   2.0000      -9.558970      -260.1128
   7   2.0000      -7.273428      -197.9200
   8   2.0000      -7.265722      -197.7103
   9   2.0000      -7.265437      -197.7026
  10   2.0000      -7.245285      -197.1542
  11   2.0000      -7.244759      -197.1399
  12   2.0000      -7.240800      -197.0322
  13   2.0000      -7.240304      -197.0187
  14   2.0000      -7.240087      -197.0128
  15   2.0000      -7.239726      -197.0030
  16   2.0000      -3.942203      -107.2728
  17   2.0000      -2.160149       -58.7807
  18   2.0000      -2.156876       -58.6916
  19   2.0000      -2.119035       -57.6619
  20   2.0000      -0.713299       -19.4099
  21   2.0000      -0.694010       -18.8850
  22   2.0000      -0.682730       -18.5780
  23   2.0000      -0.669956       -18.2304
  24   2.0000      -0.345298        -9.3960
  25   2.0000      -0.342547        -9.3212
  26   2.0000      -0.340040        -9.2530
  27   2.0000      -0.293312        -7.9814
  28   2.0000      -0.280786        -7.6406
  29   2.0000      -0.278334        -7.5738
  30   2.0000      -0.236112        -6.4249
  31   2.0000      -0.235134        -6.3983
  32   2.0000      -0.209431        -5.6989
  33   2.0000      -0.186669        -5.0795
  34   2.0000      -0.186265        -5.0685
  35   2.0000      -0.163972        -4.4619
  36   2.0000      -0.145461        -3.9582
  37   2.0000      -0.139715        -3.8018
  38   2.0000      -0.126953        -3.4546
  39   2.0000      -0.116899        -3.1810
  40   0.0000       0.060250         1.6395
  41   0.0000       0.192413         5.2358
  42   0.0000       0.199557         5.4302
  43   0.0000       0.263919         7.1816
  44   0.0000       0.265963         7.2372

MULLIKEN ATOMIC CHARGES
-----------------------
   0 Pt:    0.144079
   1 Cl:   -0.431079
   2 Cl:   -0.300292
   3 Cl:   -0.432083
   4 C :   -0.914793
   5 H :    0.200908
   6 H :    0.263093
   7 H :    0.207658
   8 H :    0.262510
Sum of atomic charges:   -1.0000000

LOEWDIN ATOMIC CHARGES
----------------------
   0 Pt:   -0.844005
   1 Cl:   -0.124398
   2 Cl:    0.039690
   3 Cl:   -0.126921
   4 C :   -0.510789
   5 H :    0.119427
   6 H :    0.161545
   7 H :    0.123725
   8 H :    0.161727

  Mayer bond orders larger than 0.100000
B(  0-Pt,  1-Cl) :   0.8198 B(  0-Pt,  2-Cl) :   1.0276 B(  0-Pt,  3-Cl) :   0.8061
B(  1-Cl,  3-Cl) :   0.1099 B(  4-C ,  5-H ) :   0.9361 B(  4-C ,  6-H ) :   0.8889
B(  4-C ,  7-H ) :   0.9363 B(  4-C ,  8-H ) :   0.8952

Dispersion correction           -0.004490354
FINAL SINGLE POINT ENERGY     -1539.048007371758
Dispersion correction            ... done

DIPOLE MOMENT
-------------
                                X             Y             Z
Electronic contribution:     -6.43395      -3.25711       5.64515
Nuclear contribution   :      7.13577       3.89413      -5.94930
                        -----------------------------------------
Total Dipole Moment    :      0.70181       0.63702      -0.30416
                        -----------------------------------------
Magnitude (a.u.)       :      0.99541
Magnitude (Debye)      :      2.53014

Rotational constants in cm-1:     0.047056     0.043832     0.022826
Rotational constants in MHz :  1410.710977  1314.046799   684.318579

                             ****ORCA TERMINATED NORMALLY****
TOTAL RUN TIME: 0 days 0 hours 0 minutes 45 seconds 273 msec
