                         Program Version 5.0.3 -  RELEASE  -
|  1> ! EnGrad PBEh-3c
|  2> %output
|  3> xyzfile=True
|  4> end
|  5> %scf
|  6> maxiter 250
|  7> end
|  8> %output
|  9> Print[P_Hirshfeld] = 1
| 10> end
| 11> % maxcore
| 12> 4000
| 13> *xyz -1 1
| 14> Pt  -1.20282299  -0.99337736   0.60824513
| 15> Cl  -0.29691583  -0.79953859   2.71980000
| 16> Cl  -2.75807011  -2.48265189   1.19980665
| 17> Cl  -1.86519730  -0.93497530  -1.60084208
| 18> C    1.22374068   1.04837151  -0.58984531
| 19> H    1.46266796   2.07135932  -0.30912746
| 20> H    1.21737029   0.42541391   0.32154449
| 21> H    1.97364430   0.64923598  -1.27390533
| 22> H    0.24276044   1.01198557  -1.07332311
| 23> *
| 24>
| 25>                          ****END OF INPUT****

CARTESIAN COORDINATES (ANGSTROEM)
---------------------------------
  Pt    -1.202823   -0.993377    0.608245
  Cl    -0.296916   -0.799539    2.719800
  Cl    -2.758070   -2.482652    1.199807
  Cl    -1.865197   -0.934975   -1.600842
  C      1.223741    1.048372   -0.589845
  H      1.462668    2.071359   -0.309127
  H      1.217370    0.425414    0.321544
  H      1.973644    0.649236   -1.273905
  H      0.242760    1.011986   -1.073323

 Total Charge           Charge          ....   -1
 Multiplicity           Mult            ....    1
 Number of Electrons    NEL             ....   80
 Basis Dimension        Dim             ....  109

ORBITAL ENERGIES
----------------

  NO   OCC          E(Eh)            E(eV)
   0   2.0000    -102.121841     -2778.8766
   1   2.0000    -102.095342     -2778.1555
   2   2.0000    -102.094825     -2778.1414
   3   2.0000     -10.312359      -280.6136
   4   2.0000      -9.585815      -260.8433
   5   2.0000      -9.559550      -260.1286
   6   2.0000      -9.559104      -260.1164
   7   2.0000      -7.273487      -197.9216
   8   2.0000      -7.265781      -197.7119
   9   2.0000      -7.265497      -197.7042
  10   2.0000      -7.245276      -197.1540
  11   2.0000      -7.244892      -197.1435
  12   2.0000      -7.240783      -197.0317
  13   2.0000      -7.240294      -197.0184
  14   2.0000      -7.240230      -197.0167
  15   2.0000      -7.239864      -197.0067
  16   2.0000      -3.942343      -107.2766
  17   2.0000      -2.160285       -58.7844
  18   2.0000      -2.156940       -58.6933
  19   2.0000      -2.119153       -57.6651
  20   2.0000      -0.713283       -19.4094
  21   2.0000      -0.693847       -18.8805
  22   2.0000      -0.682668       -18.5764
  23   2.0000      -0.669513       -18.2184
  24   2.0000      -0.345976        -9.4145
  25   2.0000      -0.342259        -9.3134
  26   2.0000      -0.338893        -9.2217
  27   2.0000      -0.292880        -7.9697
  28   2.0000      -0.280711        -7.6385
  29   2.0000      -0.278177        -7.5696
  30   2.0000      -0.236073        -6.4239
  31   2.0000      -0.234940        -6.3930
  32   2.0000      -0.209418        -5.6986
  33   2.0000      -0.186628        -5.0784
  34   2.0000      -0.186189        -5.0665
  35   2.0000      -0.164108        -4.4656
  36   2.0000      -0.145546        -3.9605
  37   2.0000      -0.139776        -3.8035
  38   2.0000      -0.127118        -3.4591
  39   2.0000      -0.117243        -3.1903
  40   0.0000       0.060065         1.6344
  41   0.0000       0.191835         5.2201
  42   0.0000       0.199451         5.4273
  43   0.0000       0.263647         7.1742
  44   0.0000       0.265685         7.2297

MULLIKEN ATOMIC CHARGES
-----------------------
   0 Pt:    0.145043
   1 Cl:   -0.431467
   2 Cl:   -0.300451
   3 Cl:   -0.432627
   4 C :   -0.914486
   5 H :    0.203872
   6 H :    0.257836
   7 H :    0.209222
   8 H :    0.263058
Sum of atomic charges:   -1.0000000

LOEWDIN ATOMIC CHARGES
----------------------
   0 Pt:   -0.841952
   1 Cl:   -0.125827
   2 Cl:    0.039527
   3 Cl:   -0.128202
   4 C :   -0.511456
   5 H :    0.119726
   6 H :    0.162708
   7 H :    0.123874
   8 H :    0.161601

  Mayer bond orders larger than 0.100000
B(  0-Pt,  1-Cl) :   0.8183 B(  0-Pt,  2-Cl) :   1.0277 B(  0-Pt,  3-Cl) :   0.8053
B(  1-Cl,  3-Cl) :   0.1097 B(  4-C ,  5-H ) :   0.9341 B(  4-C ,  6-H ) :   0.8916
B(  4-C ,  7-H ) :   0.9353 B(  4-C ,  8-H ) :   0.8949

Dispersion correction           -0.004486076
FINAL SINGLE POINT ENERGY     -1539.048059405640
Dispersion correction            ... done

DIPOLE MOMENT
-------------
                                X             Y             Z
Electronic contribution:     -6.57754      -3.37558       5.62856
Nuclear contribution   :      7.28001       4.01279      -5.93274
                        -----------------------------------------
Total Dipole Moment    :      0.70247       0.63721      -0.30417
                        -----------------------------------------
Magnitude (a.u.)       :      0.99601
Magnitude (Debye)      :      2.53165

Rotational constants in cm-1:     0.046999     0.043689     0.022772
Rotational constants in MHz :  1408.994428  1309.754706   682.701523

                             ****ORCA TERMINATED NORMALLY****
TOTAL RUN TIME: 0 days 0 hours 0 minutes 45 seconds 145 msec
