                         Program Version 5.0.3 -  RELEASE  -
|  1> ! EnGrad PBEh-3c
|  2> %output
|  3> xyzfile=True
|  4> end
|  5> %scf
|  6> maxiter 250
|  7> end
|  8> %output
|  9> Print[P_Hirshfeld] = 1
| 10> end
| 11> % maxcore
| 12> 4000
| 13> %pal nprocs 4
| 14> end
| 15> *xyz -1 1
| 16> Pd  -2.44659000  -1.63153000   0.80274000
| 17> Cl  -4.22706000  -2.91186000   0.21375000
| 18> Cl  -1.45858000  -3.37397000   1.98667000
| 19> Cl  -3.29440000   0.23608000  -0.27989000
| 20> N   -0.89211000  -0.34937000   1.43289000
| 21> C   -1.13275000   0.12091000   2.64055000
| 22> C   -0.64559000   1.34875000   3.08813000
| 23> C    0.07284000   2.11701000   2.21172000
| 24> C   -0.05529000   0.31409000   0.60825000
| 25> C    0.38803000   1.60936000   0.94569000
| 26> H    0.41138000   3.10960000   2.48430000
| 27> H   -1.76317000  -0.48641000   3.27593000
| 28> H   -0.88378000   1.68983000   4.08535000
| 29> C    0.42302000  -0.29522000  -0.61300000
| 30> C    1.11689000   2.38290000  -0.00745000
| 31> C    1.42729000   1.87043000  -1.21530000
| 32> C    1.12571000   0.51081000  -1.53579000
| 33> H    1.39438000   3.39699000   0.25347000
| 34> H    1.95329000   2.46988000  -1.94848000
| 35> C    0.30207000  -1.67043000  -0.87804000
| 36> C    1.58287000  -0.04969000  -2.73988000
| 37> C    0.78299000  -2.19968000  -2.05187000
| 38> C    1.40292000  -1.38412000  -3.00326000
| 39> H    2.09782000   0.58561000  -3.45071000
| 40> H    1.76277000  -1.80931000  -3.93149000
| 41> H   -0.12550000  -2.33908000  -0.14383000
| 42> H    0.68054000  -3.26158000  -2.23046000
| 43> *
| 44>
| 45>                          ****END OF INPUT****

CARTESIAN COORDINATES (ANGSTROEM)
---------------------------------
  Pd    -2.446590   -1.631530    0.802740
  Cl    -4.227060   -2.911860    0.213750
  Cl    -1.458580   -3.373970    1.986670
  Cl    -3.294400    0.236080   -0.279890
  N     -0.892110   -0.349370    1.432890
  C     -1.132750    0.120910    2.640550
  C     -0.645590    1.348750    3.088130
  C      0.072840    2.117010    2.211720
  C     -0.055290    0.314090    0.608250
  C      0.388030    1.609360    0.945690
  H      0.411380    3.109600    2.484300
  H     -1.763170   -0.486410    3.275930
  H     -0.883780    1.689830    4.085350
  C      0.423020   -0.295220   -0.613000
  C      1.116890    2.382900   -0.007450
  C      1.427290    1.870430   -1.215300
  C      1.125710    0.510810   -1.535790
  H      1.394380    3.396990    0.253470
  H      1.953290    2.469880   -1.948480
  C      0.302070   -1.670430   -0.878040
  C      1.582870   -0.049690   -2.739880
  C      0.782990   -2.199680   -2.051870
  C      1.402920   -1.384120   -3.003260
  H      2.097820    0.585610   -3.450710
  H      1.762770   -1.809310   -3.931490
  H     -0.125500   -2.339080   -0.143830
  H      0.680540   -3.261580   -2.230460

 Total Charge           Charge          ....   -1
 Multiplicity           Mult            ....    1
 Number of Electrons    NEL             ....  164
 Basis Dimension        Dim             ....  313

ORBITAL ENERGIES
----------------

  NO   OCC          E(Eh)            E(eV)
   0   2.0000    -102.077492     -2777.6698
   1   2.0000    -102.072009     -2777.5206
   2   2.0000    -102.069613     -2777.4554
   3   2.0000     -14.589868      -397.0105
   4   2.0000     -10.417278      -283.4686
   5   2.0000     -10.406498      -283.1752
   6   2.0000     -10.393177      -282.8127
   7   2.0000     -10.387384      -282.6551
   8   2.0000     -10.380548      -282.4691
   9   2.0000     -10.379060      -282.4286
  10   2.0000     -10.378359      -282.4095
  11   2.0000     -10.377816      -282.3947
  12   2.0000     -10.376990      -282.3723
  13   2.0000     -10.368950      -282.1535
  14   2.0000     -10.368261      -282.1347
  15   2.0000     -10.359176      -281.8875
  16   2.0000     -10.354670      -281.7649
  17   2.0000      -9.541401      -259.6347
  18   2.0000      -9.535996      -259.4876
  19   2.0000      -9.534112      -259.4364
  20   2.0000      -7.227053      -196.6581
  21   2.0000      -7.222676      -196.5390
  22   2.0000      -7.222319      -196.5293
  23   2.0000      -7.221775      -196.5145
  24   2.0000      -7.220382      -196.4766
  25   2.0000      -7.217077      -196.3866
  26   2.0000      -7.216934      -196.3828
  27   2.0000      -7.214981      -196.3296
  28   2.0000      -7.214501      -196.3166
  29   2.0000      -3.503819       -95.3438
  30   2.0000      -2.151157       -58.5360
  31   2.0000      -2.147239       -58.4293
  32   2.0000      -2.114807       -57.5468
  33   2.0000      -0.989164       -26.9165
  34   2.0000      -0.895241       -24.3607
  35   2.0000      -0.854291       -23.2465
  36   2.0000      -0.820291       -22.3213
  37   2.0000      -0.788656       -21.4604
  38   2.0000      -0.753237       -20.4966
  39   2.0000      -0.737184       -20.0598
  40   2.0000      -0.673929       -18.3386
  41   2.0000      -0.661797       -18.0084
  42   2.0000      -0.657187       -17.8830
  43   2.0000      -0.653178       -17.7739
  44   2.0000      -0.646954       -17.6045
  45   2.0000      -0.618885       -16.8407
  46   2.0000      -0.591511       -16.0958
  47   2.0000      -0.541628       -14.7384
  48   2.0000      -0.527160       -14.3448
  49   2.0000      -0.501780       -13.6541
  50   2.0000      -0.474158       -12.9025
  51   2.0000      -0.469558       -12.7773
  52   2.0000      -0.439874       -11.9696
  53   2.0000      -0.419877       -11.4254
  54   2.0000      -0.412450       -11.2233
  55   2.0000      -0.409054       -11.1309
  56   2.0000      -0.400577       -10.9002
  57   2.0000      -0.397208       -10.8086
  58   2.0000      -0.379091       -10.3156
  59   2.0000      -0.353247        -9.6123
  60   2.0000      -0.351562        -9.5665
  61   2.0000      -0.326983        -8.8977
  62   2.0000      -0.313655        -8.5350
  63   2.0000      -0.307961        -8.3800
  64   2.0000      -0.291101        -7.9213
  65   2.0000      -0.272496        -7.4150
  66   2.0000      -0.260302        -7.0832
  67   2.0000      -0.248674        -6.7668
  68   2.0000      -0.237674        -6.4674
  69   2.0000      -0.223171        -6.0728
  70   2.0000      -0.213270        -5.8034
  71   2.0000      -0.210968        -5.7407
  72   2.0000      -0.195944        -5.3319
  73   2.0000      -0.182223        -4.9585
  74   2.0000      -0.176985        -4.8160
  75   2.0000      -0.167157        -4.5486
  76   2.0000      -0.155909        -4.2425
  77   2.0000      -0.145745        -3.9659
  78   2.0000      -0.133445        -3.6312
  79   2.0000      -0.129742        -3.5304
  80   2.0000      -0.128088        -3.4854
  81   2.0000      -0.123868        -3.3706
  82   0.0000       0.042289         1.1507
  83   0.0000       0.058592         1.5944
  84   0.0000       0.095904         2.6097
  85   0.0000       0.107826         2.9341
  86   0.0000       0.132600         3.6082

MULLIKEN ATOMIC CHARGES
-----------------------
   0 Pd:    0.055620
   1 Cl:   -0.339162
   2 Cl:   -0.426747
   3 Cl:   -0.410666
   4 N :   -0.527806
   5 C :    0.037476
   6 C :   -0.308632
   7 C :   -0.159146
   8 C :    0.347668
   9 C :    0.051296
  10 H :    0.210499
  11 H :    0.289617
  12 H :    0.220014
  13 C :    0.100129
  14 C :   -0.290169
  15 C :   -0.286867
  16 C :    0.119635
  17 H :    0.197912
  18 H :    0.198155
  19 C :   -0.262955
  20 C :   -0.290979
  21 C :   -0.228858
  22 C :   -0.213462
  23 H :    0.194029
  24 H :    0.201447
  25 H :    0.297047
  26 H :    0.224905
Sum of atomic charges:   -1.0000000

LOEWDIN ATOMIC CHARGES
----------------------
   0 Pd:   -1.020773
   1 Cl:   -0.075239
   2 Cl:   -0.166139
   3 Cl:   -0.147276
   4 N :    0.035061
   5 C :    0.021180
   6 C :   -0.161023
   7 C :   -0.082495
   8 C :    0.094131
   9 C :   -0.047708
  10 H :    0.135332
  11 H :    0.172245
  12 H :    0.141224
  13 C :   -0.012140
  14 C :   -0.130809
  15 C :   -0.118260
  16 C :   -0.026525
  17 H :    0.131832
  18 H :    0.132192
  19 C :   -0.071142
  20 C :   -0.136656
  21 C :   -0.127981
  22 C :   -0.129999
  23 H :    0.128133
  24 H :    0.129442
  25 H :    0.192652
  26 H :    0.140740

  Mayer bond orders larger than 0.100000
B(  0-Pd,  1-Cl) :   0.9485 B(  0-Pd,  2-Cl) :   0.7638 B(  0-Pd,  3-Cl) :   0.8320
B(  0-Pd,  4-N ) :   0.3391 B(  4-N ,  5-C ) :   1.4767 B(  4-N ,  8-C ) :   1.2395
B(  5-C ,  6-C ) :   1.3111 B(  5-C , 11-H ) :   0.8859 B(  6-C ,  7-C ) :   1.4684
B(  6-C , 12-H ) :   0.9195 B(  7-C ,  9-C ) :   1.2794 B(  7-C , 10-H ) :   0.9287
B(  8-C ,  9-C ) :   1.2444 B(  8-C , 13-C ) :   1.0994 B(  9-C , 14-C ) :   1.1602
B( 13-C , 16-C ) :   1.3050 B( 13-C , 19-C ) :   1.2812 B( 14-C , 15-C ) :   1.6537
B( 14-C , 17-H ) :   0.9292 B( 15-C , 16-C ) :   1.1572 B( 15-C , 18-H ) :   0.9279
B( 16-C , 20-C ) :   1.2731 B( 19-C , 21-C ) :   1.4982 B( 19-C , 25-H ) :   0.8504
B( 20-C , 22-C ) :   1.4962 B( 20-C , 23-H ) :   0.9307 B( 21-C , 22-C ) :   1.3407
B( 21-C , 26-H ) :   0.9181 B( 22-C , 24-H ) :   0.9248

Dispersion correction           -0.024662234
FINAL SINGLE POINT ENERGY     -2061.545669037343
Dispersion correction            ... done

DIPOLE MOMENT
-------------
                                X             Y             Z
Electronic contribution:    -95.94569     -63.77207      35.09771
Nuclear contribution   :    100.02208      66.89969     -35.04532
                        -----------------------------------------
Total Dipole Moment    :      4.07639       3.12762       0.05239
                        -----------------------------------------
Magnitude (a.u.)       :      5.13826
Magnitude (Debye)      :     13.06042

Rotational constants in cm-1:     0.012991     0.007307     0.006073
Rotational constants in MHz :   389.470948   219.068225   182.052220

                             ****ORCA TERMINATED NORMALLY****
TOTAL RUN TIME: 0 days 0 hours 2 minutes 55 seconds 700 msec
