                         Program Version 5.0.3 -  RELEASE  -
|  1> ! EnGrad PBEh-3c
|  2> %output
|  3> xyzfile=True
|  4> end
|  5> %scf
|  6> maxiter 250
|  7> end
|  8> %output
|  9> Print[P_Hirshfeld] = 1
| 10> end
| 11> % maxcore
| 12> 4000
| 13> *xyz -1 1
| 14> Pt  -0.86308782  -0.80401550   0.48370831
| 15> Cl  -0.20069529  -0.42748435   2.69676296
| 16> Cl  -2.66484724  -2.15901125   1.14983271
| 17> Cl  -1.46211705  -1.14818824  -1.75663972
| 18> C    0.92613044   1.00032375  -0.55939384
| 19> H    1.43323239   1.74005409   0.06002853
| 20> H    1.28425253  -0.38964123   0.27795066
| 21> H    1.54560107   0.74553787  -1.41620667
| 22> H    0.00153097   1.44242041  -0.93603184
| 23> *
| 24>
| 25>                          ****END OF INPUT****

CARTESIAN COORDINATES (ANGSTROEM)
---------------------------------
  Pt    -0.863088   -0.804015    0.483708
  Cl    -0.200695   -0.427484    2.696763
  Cl    -2.664847   -2.159011    1.149833
  Cl    -1.462117   -1.148188   -1.756640
  C      0.926130    1.000324   -0.559394
  H      1.433232    1.740054    0.060029
  H      1.284253   -0.389641    0.277951
  H      1.545601    0.745538   -1.416207
  H      0.001531    1.442420   -0.936032

 Total Charge           Charge          ....   -1
 Multiplicity           Mult            ....    1
 Number of Electrons    NEL             ....   80
 Basis Dimension        Dim             ....  109

ORBITAL ENERGIES
----------------

  NO   OCC          E(Eh)            E(eV)
   0   2.0000    -102.099633     -2778.2723
   1   2.0000    -102.086838     -2777.9241
   2   2.0000    -102.085722     -2777.8937
   3   2.0000     -10.371108      -282.2122
   4   2.0000      -9.562638      -260.2126
   5   2.0000      -9.550758      -259.8893
   6   2.0000      -9.549518      -259.8556
   7   2.0000      -7.249746      -197.2756
   8   2.0000      -7.243120      -197.0953
   9   2.0000      -7.242714      -197.0843
  10   2.0000      -7.236776      -196.9227
  11   2.0000      -7.235525      -196.8887
  12   2.0000      -7.231715      -196.7850
  13   2.0000      -7.231564      -196.7809
  14   2.0000      -7.230516      -196.7523
  15   2.0000      -7.230347      -196.7477
  16   2.0000      -3.948062      -107.4322
  17   2.0000      -2.161095       -58.8064
  18   2.0000      -2.159865       -58.7729
  19   2.0000      -2.125815       -57.8464
  20   2.0000      -0.691719       -18.8226
  21   2.0000      -0.678134       -18.4530
  22   2.0000      -0.673085       -18.3156
  23   2.0000      -0.666770       -18.1437
  24   2.0000      -0.367230        -9.9928
  25   2.0000      -0.361736        -9.8433
  26   2.0000      -0.308930        -8.4064
  27   2.0000      -0.280413        -7.6304
  28   2.0000      -0.260897        -7.0994
  29   2.0000      -0.240863        -6.5542
  30   2.0000      -0.228451        -6.2165
  31   2.0000      -0.213779        -5.8172
  32   2.0000      -0.195896        -5.3306
  33   2.0000      -0.177050        -4.8178
  34   2.0000      -0.167958        -4.5704
  35   2.0000      -0.150154        -4.0859
  36   2.0000      -0.148744        -4.0475
  37   2.0000      -0.138836        -3.7779
  38   2.0000      -0.129642        -3.5277
  39   2.0000      -0.117907        -3.2084
  40   0.0000       0.079666         2.1678
  41   0.0000       0.109546         2.9809
  42   0.0000       0.200430         5.4540
  43   0.0000       0.225911         6.1474
  44   0.0000       0.264241         7.1904

MULLIKEN ATOMIC CHARGES
-----------------------
   0 Pt:    0.080725
   1 Cl:   -0.429312
   2 Cl:   -0.346453
   3 Cl:   -0.437912
   4 C :   -0.831950
   5 H :    0.236070
   6 H :    0.194926
   7 H :    0.242746
   8 H :    0.291160
Sum of atomic charges:   -1.0000000

LOEWDIN ATOMIC CHARGES
----------------------
   0 Pt:   -0.908651
   1 Cl:   -0.145505
   2 Cl:   -0.063979
   3 Cl:   -0.151229
   4 C :   -0.419505
   5 H :    0.133513
   6 H :    0.234477
   7 H :    0.135982
   8 H :    0.184898

  Mayer bond orders larger than 0.100000
B(  0-Pt,  1-Cl) :   0.7971 B(  0-Pt,  2-Cl) :   0.9160 B(  0-Pt,  3-Cl) :   0.7805
B(  0-Pt,  4-C ) :   0.2505 B(  0-Pt,  6-H ) :   0.2274 B(  1-Cl,  3-Cl) :   0.1163
B(  4-C ,  5-H ) :   0.9030 B(  4-C ,  6-H ) :   0.6906 B(  4-C ,  7-H ) :   0.9045
B(  4-C ,  8-H ) :   0.8858

Dispersion correction           -0.005351597
FINAL SINGLE POINT ENERGY     -1538.967793903338
Dispersion correction            ... done

DIPOLE MOMENT
-------------
                                X             Y             Z
Electronic contribution:      7.09871       1.74352       1.04130
Nuclear contribution   :     -5.75967      -0.61081      -1.65377
                        -----------------------------------------
Total Dipole Moment    :      1.33904       1.13271      -0.61247
                        -----------------------------------------
Magnitude (a.u.)       :      1.85773
Magnitude (Debye)      :      4.72198

Rotational constants in cm-1:     0.053387     0.042595     0.023943
Rotational constants in MHz :  1600.489570  1276.976037   717.796311

                             ****ORCA TERMINATED NORMALLY****
TOTAL RUN TIME: 0 days 0 hours 0 minutes 34 seconds 703 msec
