                         Program Version 5.0.3 -  RELEASE  -
|  1> ! EnGrad PBEh-3c
|  2> %output
|  3> xyzfile=True
|  4> end
|  5> %scf
|  6> maxiter 250
|  7> end
|  8> %output
|  9> Print[P_Hirshfeld] = 1
| 10> end
| 11> % maxcore
| 12> 4000
| 13> *xyz -1 1
| 14> Pt  -0.83355057  -0.82940284   0.48498296
| 15> Cl  -0.20346933  -0.41943110   2.68048702
| 16> Cl  -2.60932584  -2.10754219   1.13235073
| 17> Cl  -1.44355745  -1.14157889  -1.74154324
| 18> C    0.99990467   0.88382147  -0.48944502
| 19> H    1.42863938   1.71093461   0.07644278
| 20> H    1.14123659  -0.22997024   0.16963399
| 21> H    1.53590488   0.73770792  -1.41074219
| 22> H   -0.01805274   1.39528463  -0.90187841
| 23> *
| 24>
| 25>                          ****END OF INPUT****

CARTESIAN COORDINATES (ANGSTROEM)
---------------------------------
  Pt    -0.833551   -0.829403    0.484983
  Cl    -0.203469   -0.419431    2.680487
  Cl    -2.609326   -2.107542    1.132351
  Cl    -1.443557   -1.141579   -1.741543
  C      0.999905    0.883821   -0.489445
  H      1.428639    1.710935    0.076443
  H      1.141237   -0.229970    0.169634
  H      1.535905    0.737708   -1.410742
  H     -0.018053    1.395285   -0.901878

 Total Charge           Charge          ....   -1
 Multiplicity           Mult            ....    1
 Number of Electrons    NEL             ....   80
 Basis Dimension        Dim             ....  109

ORBITAL ENERGIES
----------------

  NO   OCC          E(Eh)            E(eV)
   0   2.0000    -102.103326     -2778.3727
   1   2.0000    -102.086064     -2777.9030
   2   2.0000    -102.084348     -2777.8563
   3   2.0000     -10.359261      -281.8898
   4   2.0000      -9.567111      -260.3343
   5   2.0000      -9.550230      -259.8750
   6   2.0000      -9.548386      -259.8248
   7   2.0000      -7.254384      -197.4018
   8   2.0000      -7.247394      -197.2116
   9   2.0000      -7.247011      -197.2012
  10   2.0000      -7.236175      -196.9063
  11   2.0000      -7.234342      -196.8564
  12   2.0000      -7.231136      -196.7692
  13   2.0000      -7.231120      -196.7688
  14   2.0000      -7.229346      -196.7205
  15   2.0000      -7.229256      -196.7181
  16   2.0000      -3.943292      -107.3024
  17   2.0000      -2.159215       -58.7552
  18   2.0000      -2.156116       -58.6709
  19   2.0000      -2.120486       -57.7013
  20   2.0000      -0.697756       -18.9869
  21   2.0000      -0.681677       -18.5494
  22   2.0000      -0.673195       -18.3186
  23   2.0000      -0.668457       -18.1896
  24   2.0000      -0.367604       -10.0030
  25   2.0000      -0.359847        -9.7919
  26   2.0000      -0.328378        -8.9356
  27   2.0000      -0.283636        -7.7181
  28   2.0000      -0.266305        -7.2465
  29   2.0000      -0.254226        -6.9179
  30   2.0000      -0.228999        -6.2314
  31   2.0000      -0.221417        -6.0251
  32   2.0000      -0.197139        -5.3644
  33   2.0000      -0.176397        -4.8000
  34   2.0000      -0.170951        -4.6518
  35   2.0000      -0.149745        -4.0748
  36   2.0000      -0.145594        -3.9618
  37   2.0000      -0.135844        -3.6965
  38   2.0000      -0.127187        -3.4609
  39   2.0000      -0.114105        -3.1050
  40   0.0000       0.085990         2.3399
  41   0.0000       0.175852         4.7852
  42   0.0000       0.203693         5.5428
  43   0.0000       0.234796         6.3891
  44   0.0000       0.268016         7.2931

MULLIKEN ATOMIC CHARGES
-----------------------
   0 Pt:    0.074851
   1 Cl:   -0.431635
   2 Cl:   -0.320263
   3 Cl:   -0.440262
   4 C :   -0.887452
   5 H :    0.239865
   6 H :    0.246672
   7 H :    0.249466
   8 H :    0.268758
Sum of atomic charges:   -1.0000000

LOEWDIN ATOMIC CHARGES
----------------------
   0 Pt:   -0.932973
   1 Cl:   -0.139469
   2 Cl:   -0.017674
   3 Cl:   -0.147711
   4 C :   -0.453655
   5 H :    0.134669
   6 H :    0.224632
   7 H :    0.136547
   8 H :    0.195634

  Mayer bond orders larger than 0.100000
B(  0-Pt,  1-Cl) :   0.8022 B(  0-Pt,  2-Cl) :   0.9656 B(  0-Pt,  3-Cl) :   0.7799
B(  0-Pt,  4-C ) :   0.1797 B(  0-Pt,  6-H ) :   0.1377 B(  1-Cl,  3-Cl) :   0.1149
B(  4-C ,  5-H ) :   0.9023 B(  4-C ,  6-H ) :   0.7684 B(  4-C ,  7-H ) :   0.8989
B(  4-C ,  8-H ) :   0.8928

Dispersion correction           -0.004954038
FINAL SINGLE POINT ENERGY     -1539.014249196251
Dispersion correction            ... done

DIPOLE MOMENT
-------------
                                X             Y             Z
Electronic contribution:      7.40808      -0.29237       1.11733
Nuclear contribution   :     -6.19308       1.32061      -1.69172
                        -----------------------------------------
Total Dipole Moment    :      1.21500       1.02824      -0.57439
                        -----------------------------------------
Magnitude (a.u.)       :      1.69216
Magnitude (Debye)      :      4.30114

Rotational constants in cm-1:     0.056047     0.043369     0.024672
Rotational constants in MHz :  1680.255359  1300.175346   739.637439

                             ****ORCA TERMINATED NORMALLY****
TOTAL RUN TIME: 0 days 0 hours 0 minutes 37 seconds 919 msec
