                         Program Version 5.0.3 -  RELEASE  -
|  1> ! EnGrad PBEh-3c
|  2> %output
|  3> xyzfile=True
|  4> end
|  5> %scf
|  6> maxiter 250
|  7> end
|  8> %output
|  9> Print[P_Hirshfeld] = 1
| 10> end
| 11> % maxcore
| 12> 4000
| 13> *xyz -1 1
| 14> Pt  -0.85121646  -0.81421897   0.48422060
| 15> Cl  -0.20181020  -0.42424765   2.69022147
| 16> Cl  -2.64253254  -2.13832524   1.14280650
| 17> Cl  -1.45465773  -1.14553186  -1.75057227
| 18> C    0.95578116   0.95350013  -0.53128060
| 19> H    1.43138641   1.72835063   0.06662561
| 20> H    1.22677276  -0.32546759   0.23441692
| 21> H    1.54170405   0.74239092  -1.41401043
| 22> H   -0.00633995   1.42347599  -0.92230518
| 23> *
| 24>
| 25>                          ****END OF INPUT****

CARTESIAN COORDINATES (ANGSTROEM)
---------------------------------
  Pt    -0.851216   -0.814219    0.484221
  Cl    -0.201810   -0.424248    2.690221
  Cl    -2.642533   -2.138325    1.142807
  Cl    -1.454658   -1.145532   -1.750572
  C      0.955781    0.953500   -0.531281
  H      1.431386    1.728351    0.066626
  H      1.226773   -0.325468    0.234417
  H      1.541704    0.742391   -1.414010
  H     -0.006340    1.423476   -0.922305

 Total Charge           Charge          ....   -1
 Multiplicity           Mult            ....    1
 Number of Electrons    NEL             ....   80
 Basis Dimension        Dim             ....  109

ORBITAL ENERGIES
----------------

  NO   OCC          E(Eh)            E(eV)
   0   2.0000    -102.101044     -2778.3106
   1   2.0000    -102.086364     -2777.9112
   2   2.0000    -102.085041     -2777.8752
   3   2.0000     -10.367670      -282.1187
   4   2.0000      -9.564340      -260.2589
   5   2.0000      -9.550385      -259.8792
   6   2.0000      -9.548931      -259.8396
   7   2.0000      -7.251517      -197.3238
   8   2.0000      -7.244742      -197.1394
   9   2.0000      -7.244349      -197.1288
  10   2.0000      -7.236373      -196.9117
  11   2.0000      -7.234915      -196.8721
  12   2.0000      -7.231322      -196.7743
  13   2.0000      -7.231228      -196.7717
  14   2.0000      -7.229916      -196.7360
  15   2.0000      -7.229780      -196.7323
  16   2.0000      -3.945857      -107.3722
  17   2.0000      -2.159999       -58.7766
  18   2.0000      -2.158152       -58.7263
  19   2.0000      -2.123327       -57.7787
  20   2.0000      -0.693735       -18.8775
  21   2.0000      -0.679573       -18.4921
  22   2.0000      -0.672966       -18.3123
  23   2.0000      -0.666375       -18.1330
  24   2.0000      -0.363424        -9.8893
  25   2.0000      -0.355131        -9.6636
  26   2.0000      -0.324916        -8.8414
  27   2.0000      -0.281889        -7.6706
  28   2.0000      -0.262862        -7.1529
  29   2.0000      -0.246110        -6.6970
  30   2.0000      -0.228584        -6.2201
  31   2.0000      -0.216795        -5.8993
  32   2.0000      -0.196319        -5.3421
  33   2.0000      -0.176637        -4.8065
  34   2.0000      -0.169222        -4.6048
  35   2.0000      -0.149861        -4.0779
  36   2.0000      -0.147480        -4.0131
  37   2.0000      -0.137634        -3.7452
  38   2.0000      -0.128528        -3.4974
  39   2.0000      -0.116194        -3.1618
  40   0.0000       0.082472         2.2442
  41   0.0000       0.138899         3.7796
  42   0.0000       0.202269         5.5040
  43   0.0000       0.228717         6.2237
  44   0.0000       0.264955         7.2098

MULLIKEN ATOMIC CHARGES
-----------------------
   0 Pt:    0.080347
   1 Cl:   -0.430697
   2 Cl:   -0.336125
   3 Cl:   -0.439156
   4 C :   -0.859284
   5 H :    0.238091
   6 H :    0.216188
   7 H :    0.246421
   8 H :    0.284214
Sum of atomic charges:   -1.0000000

LOEWDIN ATOMIC CHARGES
----------------------
   0 Pt:   -0.919591
   1 Cl:   -0.143523
   2 Cl:   -0.045711
   3 Cl:   -0.150034
   4 C :   -0.437295
   5 H :    0.133518
   6 H :    0.235818
   7 H :    0.135802
   8 H :    0.191017

  Mayer bond orders larger than 0.100000
B(  0-Pt,  1-Cl) :   0.7994 B(  0-Pt,  2-Cl) :   0.9359 B(  0-Pt,  3-Cl) :   0.7802
B(  0-Pt,  4-C ) :   0.2164 B(  0-Pt,  6-H ) :   0.1865 B(  1-Cl,  3-Cl) :   0.1156
B(  4-C ,  5-H ) :   0.9017 B(  4-C ,  6-H ) :   0.7276 B(  4-C ,  7-H ) :   0.9009
B(  4-C ,  8-H ) :   0.8877

Dispersion correction           -0.005207118
FINAL SINGLE POINT ENERGY     -1538.989388031820
Dispersion correction            ... done

DIPOLE MOMENT
-------------
                                X             Y             Z
Electronic contribution:      7.22922       0.92549       1.07031
Nuclear contribution   :     -5.93387       0.16545      -1.66902
                        -----------------------------------------
Total Dipole Moment    :      1.29535       1.09094      -0.59871
                        -----------------------------------------
Magnitude (a.u.)       :      1.79626
Magnitude (Debye)      :      4.56572

Rotational constants in cm-1:     0.054444     0.042912     0.024234
Rotational constants in MHz :  1632.188513  1286.475380   726.513575

                             ****ORCA TERMINATED NORMALLY****
TOTAL RUN TIME: 0 days 0 hours 0 minutes 37 seconds 739 msec
