                         Program Version 5.0.3 -  RELEASE  -
|  1> ! EnGrad PBEh-3c
|  2> %output
|  3> xyzfile=True
|  4> end
|  5> %scf
|  6> maxiter 250
|  7> end
|  8> %output
|  9> Print[P_Hirshfeld] = 1
| 10> end
| 11> % maxcore
| 12> 4000
| 13> *xyz -1 1
| 14> Pt  -0.81533641  -0.83440816   0.47843471
| 15> Cl  -0.19704927  -0.40371815   2.66998469
| 16> Cl  -2.57774728  -2.07319722   1.12324683
| 17> Cl  -1.42072084  -1.14295053  -1.73905146
| 18> C    0.96985333   0.83231071  -0.45590480
| 19> H    1.43138223   1.68131852   0.09773795
| 20> H    1.06142120  -0.13505407   0.09195048
| 21> H    1.53095600   0.72827334  -1.41347677
| 22> H    0.01346756   1.34739821  -0.85219478
| 23> *
| 24>
| 25>                          ****END OF INPUT****

CARTESIAN COORDINATES (ANGSTROEM)
---------------------------------
  Pt    -0.815336   -0.834408    0.478435
  Cl    -0.197049   -0.403718    2.669985
  Cl    -2.577747   -2.073197    1.123247
  Cl    -1.420721   -1.142951   -1.739051
  C      0.969853    0.832311   -0.455905
  H      1.431382    1.681319    0.097738
  H      1.061421   -0.135054    0.091950
  H      1.530956    0.728273   -1.413477
  H      0.013468    1.347398   -0.852195

 Total Charge           Charge          ....   -1
 Multiplicity           Mult            ....    1
 Number of Electrons    NEL             ....   80
 Basis Dimension        Dim             ....  109

ORBITAL ENERGIES
----------------

  NO   OCC          E(Eh)            E(eV)
   0   2.0000    -102.104423     -2778.4026
   1   2.0000    -102.085356     -2777.8838
   2   2.0000    -102.084778     -2777.8680
   3   2.0000     -10.344193      -281.4798
   4   2.0000      -9.568682      -260.3771
   5   2.0000      -9.549570      -259.8570
   6   2.0000      -9.548965      -259.8405
   7   2.0000      -7.255986      -197.4454
   8   2.0000      -7.248888      -197.2523
   9   2.0000      -7.248508      -197.2419
  10   2.0000      -7.235487      -196.8876
  11   2.0000      -7.234905      -196.8718
  12   2.0000      -7.230495      -196.7518
  13   2.0000      -7.230463      -196.7509
  14   2.0000      -7.229900      -196.7356
  15   2.0000      -7.229843      -196.7340
  16   2.0000      -3.942063      -107.2690
  17   2.0000      -2.159507       -58.7632
  18   2.0000      -2.155100       -58.6432
  19   2.0000      -2.119090       -57.6634
  20   2.0000      -0.702046       -19.1036
  21   2.0000      -0.684365       -18.6225
  22   2.0000      -0.678190       -18.4545
  23   2.0000      -0.673284       -18.3210
  24   2.0000      -0.400992       -10.9115
  25   2.0000      -0.346567        -9.4306
  26   2.0000      -0.334070        -9.0905
  27   2.0000      -0.284913        -7.7529
  28   2.0000      -0.269627        -7.3369
  29   2.0000      -0.259806        -7.0697
  30   2.0000      -0.229677        -6.2498
  31   2.0000      -0.225217        -6.1285
  32   2.0000      -0.197855        -5.3839
  33   2.0000      -0.176717        -4.8087
  34   2.0000      -0.172165        -4.6848
  35   2.0000      -0.149514        -4.0685
  36   2.0000      -0.144531        -3.9329
  37   2.0000      -0.134429        -3.6580
  38   2.0000      -0.126422        -3.4401
  39   2.0000      -0.112961        -3.0738
  40   0.0000       0.090418         2.4604
  41   0.0000       0.192625         5.2416
  42   0.0000       0.206950         5.6314
  43   0.0000       0.250862         6.8263
  44   0.0000       0.272433         7.4133

MULLIKEN ATOMIC CHARGES
-----------------------
   0 Pt:    0.061338
   1 Cl:   -0.432392
   2 Cl:   -0.307424
   3 Cl:   -0.439693
   4 C :   -0.920113
   5 H :    0.234628
   6 H :    0.279345
   7 H :    0.238639
   8 H :    0.285672
Sum of atomic charges:   -1.0000000

LOEWDIN ATOMIC CHARGES
----------------------
   0 Pt:   -0.936624
   1 Cl:   -0.139122
   2 Cl:    0.003178
   3 Cl:   -0.142376
   4 C :   -0.459974
   5 H :    0.135862
   6 H :    0.205002
   7 H :    0.137730
   8 H :    0.196325

  Mayer bond orders larger than 0.100000
B(  0-Pt,  1-Cl) :   0.8030 B(  0-Pt,  2-Cl) :   0.9892 B(  0-Pt,  3-Cl) :   0.7801
B(  0-Pt,  4-C ) :   0.1706 B(  0-Pt,  6-H ) :   0.1124 B(  1-Cl,  3-Cl) :   0.1147
B(  4-C ,  5-H ) :   0.9091 B(  4-C ,  6-H ) :   0.7779 B(  4-C ,  7-H ) :   0.9090
B(  4-C ,  8-H ) :   0.8816

Dispersion correction           -0.005011520
FINAL SINGLE POINT ENERGY     -1539.033127389365
Dispersion correction            ... done

DIPOLE MOMENT
-------------
                                X             Y             Z
Electronic contribution:      7.69428      -1.09793       0.82747
Nuclear contribution   :     -6.54668       2.08012      -1.40077
                        -----------------------------------------
Total Dipole Moment    :      1.14760       0.98218      -0.57330
                        -----------------------------------------
Magnitude (a.u.)       :      1.61565
Magnitude (Debye)      :      4.10666

Rotational constants in cm-1:     0.058128     0.043671     0.025155
Rotational constants in MHz :  1742.621945  1309.229679   754.124454

                             ****ORCA TERMINATED NORMALLY****
TOTAL RUN TIME: 0 days 0 hours 0 minutes 37 seconds 989 msec
