                         Program Version 5.0.3 -  RELEASE  -
|  1> ! EnGrad PBEh-3c
|  2> %output
|  3> xyzfile=True
|  4> end
|  5> %scf
|  6> maxiter 250
|  7> end
|  8> %output
|  9> Print[P_Hirshfeld] = 1
| 10> end
| 11> % maxcore
| 12> 4000
| 13> *xyz -1 1
| 14> Pt  -0.83476149  -0.82347794   0.48156713
| 15> Cl  -0.19962679  -0.41483261   2.68094067
| 16> Cl  -2.61282134  -2.10845685   1.13383623
| 17> Cl  -1.43909392  -1.14434804  -1.74528871
| 18> C    0.96223480   0.89792140  -0.49671247
| 19> H    1.43138449   1.70678122   0.08089405
| 20> H    1.15094081  -0.23814197   0.16908033
| 21> H    1.53677488   0.73591645  -1.41376569
| 22> H    0.00274398   1.38858593  -0.89015182
| 23> *
| 24>
| 25>                          ****END OF INPUT****

CARTESIAN COORDINATES (ANGSTROEM)
---------------------------------
  Pt    -0.834761   -0.823478    0.481567
  Cl    -0.199627   -0.414833    2.680941
  Cl    -2.612821   -2.108457    1.133836
  Cl    -1.439094   -1.144348   -1.745289
  C      0.962235    0.897921   -0.496712
  H      1.431384    1.706781    0.080894
  H      1.150941   -0.238142    0.169080
  H      1.536775    0.735916   -1.413766
  H      0.002744    1.388586   -0.890152

 Total Charge           Charge          ....   -1
 Multiplicity           Mult            ....    1
 Number of Electrons    NEL             ....   80
 Basis Dimension        Dim             ....  109

ORBITAL ENERGIES
----------------

  NO   OCC          E(Eh)            E(eV)
   0   2.0000    -102.102538     -2778.3513
   1   2.0000    -102.085778     -2777.8952
   2   2.0000    -102.084801     -2777.8686
   3   2.0000     -10.358758      -281.8761
   4   2.0000      -9.566251      -260.3109
   5   2.0000      -9.549890      -259.8657
   6   2.0000      -9.548822      -259.8367
   7   2.0000      -7.253489      -197.3775
   8   2.0000      -7.246565      -197.1891
   9   2.0000      -7.246181      -197.1786
  10   2.0000      -7.235843      -196.8973
  11   2.0000      -7.234784      -196.8685
  12   2.0000      -7.230808      -196.7603
  13   2.0000      -7.230773      -196.7593
  14   2.0000      -7.229787      -196.7325
  15   2.0000      -7.229687      -196.7298
  16   2.0000      -3.943872      -107.3182
  17   2.0000      -2.159506       -58.7631
  18   2.0000      -2.156548       -58.6827
  19   2.0000      -2.121090       -57.7178
  20   2.0000      -0.696954       -18.9651
  21   2.0000      -0.681235       -18.5373
  22   2.0000      -0.673278       -18.3208
  23   2.0000      -0.669600       -18.2207
  24   2.0000      -0.367559       -10.0018
  25   2.0000      -0.355006        -9.6602
  26   2.0000      -0.336732        -9.1629
  27   2.0000      -0.283316        -7.7094
  28   2.0000      -0.265774        -7.2321
  29   2.0000      -0.252398        -6.8681
  30   2.0000      -0.228865        -6.2277
  31   2.0000      -0.220731        -6.0064
  32   2.0000      -0.197003        -5.3607
  33   2.0000      -0.176553        -4.8043
  34   2.0000      -0.170639        -4.6433
  35   2.0000      -0.149648        -4.0721
  36   2.0000      -0.146058        -3.9745
  37   2.0000      -0.136251        -3.7076
  38   2.0000      -0.127479        -3.4689
  39   2.0000      -0.114552        -3.1171
  40   0.0000       0.086354         2.3498
  41   0.0000       0.172020         4.6809
  42   0.0000       0.204562         5.5664
  43   0.0000       0.237664         6.4672
  44   0.0000       0.268333         7.3017

MULLIKEN ATOMIC CHARGES
-----------------------
   0 Pt:    0.073582
   1 Cl:   -0.431894
   2 Cl:   -0.323134
   3 Cl:   -0.439587
   4 C :   -0.893338
   5 H :    0.237115
   6 H :    0.246666
   7 H :    0.243963
   8 H :    0.286626
Sum of atomic charges:   -1.0000000

LOEWDIN ATOMIC CHARGES
----------------------
   0 Pt:   -0.929044
   1 Cl:   -0.141925
   2 Cl:   -0.023701
   3 Cl:   -0.146721
   4 C :   -0.452805
   5 H :    0.134126
   6 H :    0.229541
   7 H :    0.136357
   8 H :    0.194172

  Mayer bond orders larger than 0.100000
B(  0-Pt,  1-Cl) :   0.8013 B(  0-Pt,  2-Cl) :   0.9597 B(  0-Pt,  3-Cl) :   0.7801
B(  0-Pt,  4-C ) :   0.1895 B(  0-Pt,  6-H ) :   0.1472 B(  1-Cl,  3-Cl) :   0.1151
B(  4-C ,  5-H ) :   0.9040 B(  4-C ,  6-H ) :   0.7570 B(  4-C ,  7-H ) :   0.9030
B(  4-C ,  8-H ) :   0.8839

Dispersion correction           -0.004957642
FINAL SINGLE POINT ENERGY     -1539.016659661542
Dispersion correction            ... done

DIPOLE MOMENT
-------------
                                X             Y             Z
Electronic contribution:      7.44903      -0.00452       0.95838
Nuclear contribution   :     -6.21491       1.04353      -1.54600
                        -----------------------------------------
Total Dipole Moment    :      1.23412       1.03901      -0.58762
                        -----------------------------------------
Magnitude (a.u.)       :      1.71695
Magnitude (Debye)      :      4.36413

Rotational constants in cm-1:     0.056098     0.043266     0.024652
Rotational constants in MHz :  1681.790266  1297.080244   739.061380

                             ****ORCA TERMINATED NORMALLY****
TOTAL RUN TIME: 0 days 0 hours 0 minutes 37 seconds 629 msec
