                         Program Version 5.0.3 -  RELEASE  -
|  1> ! EnGrad PBEh-3c
|  2> %output
|  3> xyzfile=True
|  4> end
|  5> %scf
|  6> maxiter 250
|  7> end
|  8> %output
|  9> Print[P_Hirshfeld] = 1
| 10> end
| 11> % maxcore
| 12> 4000
| 13> *xyz -1 1
| 14> Pt  -0.80131930  -0.82576020   0.47167355
| 15> Cl  -0.19058763  -0.39287981   2.66743585
| 16> Cl  -2.57401695  -2.06505405   1.12277964
| 17> Cl  -1.40847210  -1.14710647  -1.74402620
| 18> C    0.96563425   0.84062147  -0.46396736
| 19> H    1.42678579   1.65913839   0.10485313
| 20> H    1.05006438  -0.13834361   0.08324054
| 21> H    1.51577121   0.72559927  -1.40178245
| 22> H    0.01222586   1.34403244  -0.83913672
| 23> *
| 24>
| 25>                          ****END OF INPUT****

CARTESIAN COORDINATES (ANGSTROEM)
---------------------------------
  Pt    -0.801319   -0.825760    0.471674
  Cl    -0.190588   -0.392880    2.667436
  Cl    -2.574017   -2.065054    1.122780
  Cl    -1.408472   -1.147106   -1.744026
  C      0.965634    0.840621   -0.463967
  H      1.426786    1.659138    0.104853
  H      1.050064   -0.138344    0.083241
  H      1.515771    0.725599   -1.401782
  H      0.012226    1.344032   -0.839137

 Total Charge           Charge          ....   -1
 Multiplicity           Mult            ....    1
 Number of Electrons    NEL             ....   80
 Basis Dimension        Dim             ....  109

ORBITAL ENERGIES
----------------

  NO   OCC          E(Eh)            E(eV)
   0   2.0000    -102.103430     -2778.3756
   1   2.0000    -102.085202     -2777.8796
   2   2.0000    -102.084958     -2777.8729
   3   2.0000     -10.340882      -281.3897
   4   2.0000      -9.567569      -260.3468
   5   2.0000      -9.549384      -259.8519
   6   2.0000      -9.549133      -259.8451
   7   2.0000      -7.254845      -197.4144
   8   2.0000      -7.247808      -197.2229
   9   2.0000      -7.247426      -197.2125
  10   2.0000      -7.235312      -196.8828
  11   2.0000      -7.235081      -196.8766
  12   2.0000      -7.230300      -196.7465
  13   2.0000      -7.230283      -196.7460
  14   2.0000      -7.230071      -196.7402
  15   2.0000      -7.230002      -196.7384
  16   2.0000      -3.942526      -107.2816
  17   2.0000      -2.159765       -58.7702
  18   2.0000      -2.155508       -58.6544
  19   2.0000      -2.119567       -57.6763
  20   2.0000      -0.701566       -19.0906
  21   2.0000      -0.685705       -18.6590
  22   2.0000      -0.679984       -18.5033
  23   2.0000      -0.673280       -18.3209
  24   2.0000      -0.399952       -10.8833
  25   2.0000      -0.353433        -9.6174
  26   2.0000      -0.339397        -9.2355
  27   2.0000      -0.284795        -7.7497
  28   2.0000      -0.268933        -7.3180
  29   2.0000      -0.257906        -7.0180
  30   2.0000      -0.229550        -6.2464
  31   2.0000      -0.224073        -6.0973
  32   2.0000      -0.197556        -5.3758
  33   2.0000      -0.176605        -4.8057
  34   2.0000      -0.171896        -4.6775
  35   2.0000      -0.149203        -4.0600
  36   2.0000      -0.144969        -3.9448
  37   2.0000      -0.134923        -3.6714
  38   2.0000      -0.126923        -3.4537
  39   2.0000      -0.113272        -3.0823
  40   0.0000       0.090623         2.4660
  41   0.0000       0.192212         5.2304
  42   0.0000       0.207250         5.6396
  43   0.0000       0.253760         6.9052
  44   0.0000       0.272507         7.4153

MULLIKEN ATOMIC CHARGES
-----------------------
   0 Pt:    0.058011
   1 Cl:   -0.431962
   2 Cl:   -0.309967
   3 Cl:   -0.439524
   4 C :   -0.921911
   5 H :    0.239236
   6 H :    0.273793
   7 H :    0.245184
   8 H :    0.287139
Sum of atomic charges:   -1.0000000

LOEWDIN ATOMIC CHARGES
----------------------
   0 Pt:   -0.933607
   1 Cl:   -0.140133
   2 Cl:   -0.004472
   3 Cl:   -0.142228
   4 C :   -0.456201
   5 H :    0.137131
   6 H :    0.204799
   7 H :    0.139079
   8 H :    0.195632

  Mayer bond orders larger than 0.100000
B(  0-Pt,  1-Cl) :   0.8026 B(  0-Pt,  2-Cl) :   0.9827 B(  0-Pt,  3-Cl) :   0.7798
B(  0-Pt,  4-C ) :   0.1789 B(  0-Pt,  6-H ) :   0.1207 B(  1-Cl,  3-Cl) :   0.1150
B(  4-C ,  5-H ) :   0.9075 B(  4-C ,  6-H ) :   0.7716 B(  4-C ,  7-H ) :   0.9062
B(  4-C ,  8-H ) :   0.8813

Dispersion correction           -0.005026801
FINAL SINGLE POINT ENERGY     -1539.036206558863
Dispersion correction            ... done

DIPOLE MOMENT
-------------
                                X             Y             Z
Electronic contribution:      8.25273      -0.81270       0.56045
Nuclear contribution   :     -7.07876       1.81278      -1.14712
                        -----------------------------------------
Total Dipole Moment    :      1.17397       1.00008      -0.58666
                        -----------------------------------------
Magnitude (a.u.)       :      1.65001
Magnitude (Debye)      :      4.19399

Rotational constants in cm-1:     0.058162     0.043608     0.025145
Rotational constants in MHz :  1743.660909  1307.327393   753.820462

                             ****ORCA TERMINATED NORMALLY****
TOTAL RUN TIME: 0 days 0 hours 0 minutes 37 seconds 213 msec
