                         Program Version 5.0.3 -  RELEASE  -
|  1> ! EnGrad PBEh-3c
|  2> %output
|  3> xyzfile=True
|  4> end
|  5> %scf
|  6> maxiter 250
|  7> end
|  8> %output
|  9> Print[P_Hirshfeld] = 1
| 10> end
| 11> % maxcore
| 12> 4000
| 13> *xyz -1 1
| 14> Pt  -0.79599039  -0.82551501   0.46751973
| 15> Cl  -0.18479246  -0.38315492   2.66301404
| 16> Cl  -2.55842818  -2.04946944   1.12012889
| 17> Cl  -1.39464084  -1.14854337  -1.74603502
| 18> C    0.95287041   0.86116732  -0.47749549
| 19> H    1.42710059   1.62940508   0.11861956
| 20> H    1.01214974  -0.10645744   0.05636889
| 21> H    1.50941838   0.71562951  -1.39304883
| 22> H    0.02731999   1.30753563  -0.80727133
| 23> *
| 24>
| 25>                          ****END OF INPUT****

CARTESIAN COORDINATES (ANGSTROEM)
---------------------------------
  Pt    -0.795990   -0.825515    0.467520
  Cl    -0.184792   -0.383155    2.663014
  Cl    -2.558428   -2.049469    1.120129
  Cl    -1.394641   -1.148543   -1.746035
  C      0.952870    0.861167   -0.477495
  H      1.427101    1.629405    0.118620
  H      1.012150   -0.106457    0.056369
  H      1.509418    0.715630   -1.393049
  H      0.027320    1.307536   -0.807271

 Total Charge           Charge          ....   -1
 Multiplicity           Mult            ....    1
 Number of Electrons    NEL             ....   80
 Basis Dimension        Dim             ....  109

ORBITAL ENERGIES
----------------

  NO   OCC          E(Eh)            E(eV)
   0   2.0000    -102.103936     -2778.3894
   1   2.0000    -102.085542     -2777.8888
   2   2.0000    -102.084818     -2777.8691
   3   2.0000     -10.330155      -281.0978
   4   2.0000      -9.568322      -260.3673
   5   2.0000      -9.549763      -259.8623
   6   2.0000      -9.548984      -259.8411
   7   2.0000      -7.255598      -197.4348
   8   2.0000      -7.248535      -197.2427
   9   2.0000      -7.248146      -197.2321
  10   2.0000      -7.235699      -196.8934
  11   2.0000      -7.234903      -196.8717
  12   2.0000      -7.230694      -196.7572
  13   2.0000      -7.230639      -196.7557
  14   2.0000      -7.229916      -196.7360
  15   2.0000      -7.229885      -196.7352
  16   2.0000      -3.942289      -107.2751
  17   2.0000      -2.160116       -58.7797
  18   2.0000      -2.155192       -58.6458
  19   2.0000      -2.119272       -57.6683
  20   2.0000      -0.704917       -19.1818
  21   2.0000      -0.691600       -18.8194
  22   2.0000      -0.681519       -18.5451
  23   2.0000      -0.673481       -18.3264
  24   2.0000      -0.399553       -10.8724
  25   2.0000      -0.358764        -9.7625
  26   2.0000      -0.352863        -9.6019
  27   2.0000      -0.285129        -7.7588
  28   2.0000      -0.270767        -7.3679
  29   2.0000      -0.260242        -7.0815
  30   2.0000      -0.229824        -6.2538
  31   2.0000      -0.226064        -6.1515
  32   2.0000      -0.198023        -5.3885
  33   2.0000      -0.176897        -4.8136
  34   2.0000      -0.172386        -4.6909
  35   2.0000      -0.149279        -4.0621
  36   2.0000      -0.144661        -3.9364
  37   2.0000      -0.134370        -3.6564
  38   2.0000      -0.126635        -3.4459
  39   2.0000      -0.113082        -3.0771
  40   0.0000       0.092296         2.5115
  41   0.0000       0.194076         5.2811
  42   0.0000       0.208447         5.6721
  43   0.0000       0.264579         7.1996
  44   0.0000       0.273101         7.4315

MULLIKEN ATOMIC CHARGES
-----------------------
   0 Pt:    0.048567
   1 Cl:   -0.432409
   2 Cl:   -0.306223
   3 Cl:   -0.439681
   4 C :   -0.921478
   5 H :    0.241135
   6 H :    0.268880
   7 H :    0.245426
   8 H :    0.295784
Sum of atomic charges:   -1.0000000

LOEWDIN ATOMIC CHARGES
----------------------
   0 Pt:   -0.936044
   1 Cl:   -0.141733
   2 Cl:    0.004628
   3 Cl:   -0.140034
   4 C :   -0.450711
   5 H :    0.138064
   6 H :    0.196598
   7 H :    0.139893
   8 H :    0.189339

  Mayer bond orders larger than 0.100000
B(  0-Pt,  1-Cl) :   0.8025 B(  0-Pt,  2-Cl) :   0.9891 B(  0-Pt,  3-Cl) :   0.7799
B(  0-Pt,  4-C ) :   0.1817 B(  0-Pt,  6-H ) :   0.1224 B(  1-Cl,  3-Cl) :   0.1146
B(  4-C ,  5-H ) :   0.9091 B(  4-C ,  6-H ) :   0.7708 B(  4-C ,  7-H ) :   0.9094
B(  4-C ,  8-H ) :   0.8770

Dispersion correction           -0.005053451
FINAL SINGLE POINT ENERGY     -1539.041248791897
Dispersion correction            ... done

DIPOLE MOMENT
-------------
                                X             Y             Z
Electronic contribution:      8.10636      -1.25130       0.50482
Nuclear contribution   :     -6.95558       2.22176      -1.08578
                        -----------------------------------------
Total Dipole Moment    :      1.15078       0.97046      -0.58096
                        -----------------------------------------
Magnitude (a.u.)       :      1.61357
Magnitude (Debye)      :      4.10137

Rotational constants in cm-1:     0.058721     0.043654     0.025264
Rotational constants in MHz :  1760.418253  1308.704944   757.397953

                             ****ORCA TERMINATED NORMALLY****
TOTAL RUN TIME: 0 days 0 hours 0 minutes 37 seconds 609 msec
