                         Program Version 5.0.3 -  RELEASE  -
|  1> ! EnGrad PBEh-3c
|  2> %output
|  3> xyzfile=True
|  4> end
|  5> %scf
|  6> maxiter 250
|  7> end
|  8> %output
|  9> Print[P_Hirshfeld] = 1
| 10> end
| 11> % maxcore
| 12> 4000
| 13> *xyz -1 1
| 14> Pt  -0.79814080  -0.82434882   0.46685638
| 15> Cl  -0.18213226  -0.38015405   2.66201676
| 16> Cl  -2.55562266  -2.04733886   1.12099848
| 17> Cl  -1.39017055  -1.14902786  -1.74818469
| 18> C    0.95282424   0.87486488  -0.48631708
| 19> H    1.43038819   1.62107616   0.12626149
| 20> H    1.00259284  -0.10167683   0.05246570
| 21> H    1.51096686   0.71084290  -1.39297656
| 22> H    0.02370155   1.29660120  -0.79880282
| 23> *
| 24>
| 25>                          ****END OF INPUT****

CARTESIAN COORDINATES (ANGSTROEM)
---------------------------------
  Pt    -0.798141   -0.824349    0.466856
  Cl    -0.182132   -0.380154    2.662017
  Cl    -2.555623   -2.047339    1.120998
  Cl    -1.390171   -1.149028   -1.748185
  C      0.952824    0.874865   -0.486317
  H      1.430388    1.621076    0.126261
  H      1.002593   -0.101677    0.052466
  H      1.510967    0.710843   -1.392977
  H      0.023702    1.296601   -0.798803

 Total Charge           Charge          ....   -1
 Multiplicity           Mult            ....    1
 Number of Electrons    NEL             ....   80
 Basis Dimension        Dim             ....  109

ORBITAL ENERGIES
----------------

  NO   OCC          E(Eh)            E(eV)
   0   2.0000    -102.104187     -2778.3962
   1   2.0000    -102.085803     -2777.8959
   2   2.0000    -102.084824     -2777.8693
   3   2.0000     -10.329011      -281.0667
   4   2.0000      -9.568632      -260.3757
   5   2.0000      -9.550019      -259.8692
   6   2.0000      -9.548975      -259.8408
   7   2.0000      -7.255906      -197.4432
   8   2.0000      -7.248840      -197.2510
   9   2.0000      -7.248450      -197.2403
  10   2.0000      -7.235951      -196.9002
  11   2.0000      -7.234893      -196.8714
  12   2.0000      -7.230952      -196.7642
  13   2.0000      -7.230902      -196.7628
  14   2.0000      -7.229912      -196.7359
  15   2.0000      -7.229875      -196.7349
  16   2.0000      -3.942319      -107.2760
  17   2.0000      -2.160250       -58.7834
  18   2.0000      -2.155170       -58.6452
  19   2.0000      -2.119297       -57.6690
  20   2.0000      -0.705376       -19.1943
  21   2.0000      -0.692203       -18.8358
  22   2.0000      -0.681715       -18.5504
  23   2.0000      -0.673558       -18.3284
  24   2.0000      -0.394845       -10.7443
  25   2.0000      -0.361679        -9.8418
  26   2.0000      -0.357086        -9.7168
  27   2.0000      -0.285120        -7.7585
  28   2.0000      -0.271195        -7.3796
  29   2.0000      -0.260732        -7.0949
  30   2.0000      -0.229874        -6.2552
  31   2.0000      -0.226589        -6.1658
  32   2.0000      -0.198257        -5.3948
  33   2.0000      -0.177034        -4.8174
  34   2.0000      -0.172548        -4.6953
  35   2.0000      -0.149491        -4.0679
  36   2.0000      -0.144675        -3.9368
  37   2.0000      -0.134280        -3.6539
  38   2.0000      -0.126584        -3.4445
  39   2.0000      -0.113213        -3.0807
  40   0.0000       0.092223         2.5095
  41   0.0000       0.194044         5.2802
  42   0.0000       0.208180         5.6649
  43   0.0000       0.266135         7.2419
  44   0.0000       0.273056         7.4302

MULLIKEN ATOMIC CHARGES
-----------------------
   0 Pt:    0.046112
   1 Cl:   -0.432560
   2 Cl:   -0.305863
   3 Cl:   -0.439880
   4 C :   -0.915417
   5 H :    0.241808
   6 H :    0.263614
   7 H :    0.245646
   8 H :    0.296539
Sum of atomic charges:   -1.0000000

LOEWDIN ATOMIC CHARGES
----------------------
   0 Pt:   -0.937282
   1 Cl:   -0.142516
   2 Cl:    0.006852
   3 Cl:   -0.139993
   4 C :   -0.447799
   5 H :    0.138270
   6 H :    0.194988
   7 H :    0.140026
   8 H :    0.187456

  Mayer bond orders larger than 0.100000
B(  0-Pt,  1-Cl) :   0.8024 B(  0-Pt,  2-Cl) :   0.9896 B(  0-Pt,  3-Cl) :   0.7799
B(  0-Pt,  4-C ) :   0.1827 B(  0-Pt,  6-H ) :   0.1246 B(  1-Cl,  3-Cl) :   0.1144
B(  4-C ,  5-H ) :   0.9090 B(  4-C ,  6-H ) :   0.7705 B(  4-C ,  7-H ) :   0.9099
B(  4-C ,  8-H ) :   0.8764

Dispersion correction           -0.005056695
FINAL SINGLE POINT ENERGY     -1539.042172018748
Dispersion correction            ... done

DIPOLE MOMENT
-------------
                                X             Y             Z
Electronic contribution:      7.83280      -1.31648       0.53939
Nuclear contribution   :     -6.68997       2.27693      -1.11550
                        -----------------------------------------
Total Dipole Moment    :      1.14284       0.96046      -0.57611
                        -----------------------------------------
Magnitude (a.u.)       :      1.60014
Magnitude (Debye)      :      4.06724

Rotational constants in cm-1:     0.058693     0.043628     0.025249
Rotational constants in MHz :  1759.581826  1307.938580   756.957359

                             ****ORCA TERMINATED NORMALLY****
TOTAL RUN TIME: 0 days 0 hours 0 minutes 37 seconds 742 msec
