                         Program Version 5.0.3 -  RELEASE  -
|  1> ! EnGrad PBEh-3c
|  2> %output
|  3> xyzfile=True
|  4> end
|  5> %scf
|  6> maxiter 250
|  7> end
|  8> %output
|  9> Print[P_Hirshfeld] = 1
| 10> end
| 11> % maxcore
| 12> 4000
| 13> *xyz -1 1
| 14> Pt  -0.80323234  -0.81904784   0.46571399
| 15> Cl  -0.17507269  -0.37264486   2.65937964
| 16> Cl  -2.55261950  -2.04592703   1.12528792
| 17> Cl  -1.37907767  -1.15037866  -1.75492364
| 18> C    0.96351093   0.88604609  -0.49506060
| 19> H    1.44260539   1.60874482   0.14815977
| 20> H    0.98285571  -0.08921519   0.04348186
| 21> H    1.51916169   0.70025569  -1.40025352
| 22> H   -0.00541562   1.28371221  -0.78791996
| 23> *
| 24>
| 25>                          ****END OF INPUT****

CARTESIAN COORDINATES (ANGSTROEM)
---------------------------------
  Pt    -0.803232   -0.819048    0.465714
  Cl    -0.175073   -0.372645    2.659380
  Cl    -2.552619   -2.045927    1.125288
  Cl    -1.379078   -1.150379   -1.754924
  C      0.963511    0.886046   -0.495061
  H      1.442605    1.608745    0.148160
  H      0.982856   -0.089215    0.043482
  H      1.519162    0.700256   -1.400254
  H     -0.005416    1.283712   -0.787920

 Total Charge           Charge          ....   -1
 Multiplicity           Mult            ....    1
 Number of Electrons    NEL             ....   80
 Basis Dimension        Dim             ....  109

ORBITAL ENERGIES
----------------

  NO   OCC          E(Eh)            E(eV)
   0   2.0000    -102.104868     -2778.4147
   1   2.0000    -102.086325     -2777.9101
   2   2.0000    -102.085254     -2777.8810
   3   2.0000     -10.331061      -281.1225
   4   2.0000      -9.569339      -260.3950
   5   2.0000      -9.550508      -259.8825
   6   2.0000      -9.549375      -259.8517
   7   2.0000      -7.256619      -197.4626
   8   2.0000      -7.249538      -197.2700
   9   2.0000      -7.249154      -197.2595
  10   2.0000      -7.236432      -196.9133
  11   2.0000      -7.235293      -196.8823
  12   2.0000      -7.231443      -196.7776
  13   2.0000      -7.231404      -196.7765
  14   2.0000      -7.230319      -196.7470
  15   2.0000      -7.230271      -196.7457
  16   2.0000      -3.942584      -107.2832
  17   2.0000      -2.160632       -58.7938
  18   2.0000      -2.155402       -58.6515
  19   2.0000      -2.119554       -57.6760
  20   2.0000      -0.705186       -19.1891
  21   2.0000      -0.690958       -18.8019
  22   2.0000      -0.681822       -18.5533
  23   2.0000      -0.673882       -18.3373
  24   2.0000      -0.387212       -10.5366
  25   2.0000      -0.364166        -9.9095
  26   2.0000      -0.358844        -9.7646
  27   2.0000      -0.285126        -7.7587
  28   2.0000      -0.271469        -7.3871
  29   2.0000      -0.261478        -7.1152
  30   2.0000      -0.229952        -6.2573
  31   2.0000      -0.227121        -6.1803
  32   2.0000      -0.198812        -5.4099
  33   2.0000      -0.177332        -4.8255
  34   2.0000      -0.173057        -4.7091
  35   2.0000      -0.150223        -4.0878
  36   2.0000      -0.144978        -3.9450
  37   2.0000      -0.134409        -3.6575
  38   2.0000      -0.126788        -3.4501
  39   2.0000      -0.113796        -3.0966
  40   0.0000       0.091086         2.4786
  41   0.0000       0.194732         5.2989
  42   0.0000       0.206504         5.6193
  43   0.0000       0.266107         7.2411
  44   0.0000       0.272899         7.4260

MULLIKEN ATOMIC CHARGES
-----------------------
   0 Pt:    0.043695
   1 Cl:   -0.432590
   2 Cl:   -0.305273
   3 Cl:   -0.440291
   4 C :   -0.903270
   5 H :    0.241752
   6 H :    0.260140
   7 H :    0.245447
   8 H :    0.290390
Sum of atomic charges:   -1.0000000

LOEWDIN ATOMIC CHARGES
----------------------
   0 Pt:   -0.937622
   1 Cl:   -0.143284
   2 Cl:    0.009072
   3 Cl:   -0.141061
   4 C :   -0.445253
   5 H :    0.138840
   6 H :    0.189986
   7 H :    0.140411
   8 H :    0.188911

  Mayer bond orders larger than 0.100000
B(  0-Pt,  1-Cl) :   0.8022 B(  0-Pt,  2-Cl) :   0.9906 B(  0-Pt,  3-Cl) :   0.7795
B(  0-Pt,  4-C ) :   0.1823 B(  0-Pt,  6-H ) :   0.1238 B(  1-Cl,  3-Cl) :   0.1142
B(  4-C ,  5-H ) :   0.9083 B(  4-C ,  6-H ) :   0.7705 B(  4-C ,  7-H ) :   0.9098
B(  4-C ,  8-H ) :   0.8783

Dispersion correction           -0.005060233
FINAL SINGLE POINT ENERGY     -1539.043595894341
Dispersion correction            ... done

DIPOLE MOMENT
-------------
                                X             Y             Z
Electronic contribution:      7.16956      -1.17427       0.59178
Nuclear contribution   :     -6.04858       2.11854      -1.15455
                        -----------------------------------------
Total Dipole Moment    :      1.12097       0.94428      -0.56277
                        -----------------------------------------
Magnitude (a.u.)       :      1.57001
Magnitude (Debye)      :      3.99066

Rotational constants in cm-1:     0.058543     0.043551     0.025188
Rotational constants in MHz :  1755.086060  1305.640313   755.120485

                             ****ORCA TERMINATED NORMALLY****
TOTAL RUN TIME: 0 days 0 hours 0 minutes 37 seconds 991 msec
