                         Program Version 5.0.3 -  RELEASE  -
|  1> ! EnGrad PBEh-3c
|  2> %output
|  3> xyzfile=True
|  4> end
|  5> %scf
|  6> maxiter 250
|  7> end
|  8> %output
|  9> Print[P_Hirshfeld] = 1
| 10> end
| 11> % maxcore
| 12> 4000
| 13> *xyz 0 1
| 14> Lu   0.10743513  -0.32828573   0.25865978
| 15> C    0.53260629   0.47718102   2.65836960
| 16> C    1.68511290  -0.24811782   2.28472366
| 17> C    2.34257667   0.47611280   1.26928434
| 18> C    1.57669456   1.62224593   0.97735878
| 19> C    0.47937904   1.63629424   1.86658362
| 20> H    1.83011353   2.39864061   0.26883400
| 21> H   -0.19808887   2.46627789   2.00319782
| 22> H   -0.13303254   0.24402777   3.47513842
| 23> H    2.00875735  -1.18352799   2.72090708
| 24> H    3.27166626   0.19578378   0.79604021
| 25> C    0.64775033  -0.14253019  -2.23719113
| 26> C   -0.52216133  -0.92799045  -2.17116701
| 27> C    1.18948065  -2.13354584  -1.26624318
| 28> C    1.70837039  -0.89838149  -1.70180324
| 29> H    0.72950703   0.82386840  -2.71333376
| 30> C   -0.18910281  -2.15000111  -1.56974721
| 31> H   -1.47011039  -0.69139319  -2.62826560
| 32> H    2.74343677  -0.59805902  -1.64241999
| 33> H    1.74499482  -2.93730284  -0.80279471
| 34> H   -0.85759925  -2.98657026  -1.43480425
| 35> C   -2.00347473  -1.34791306   1.13203332
| 36> H   -2.37401100  -0.98037186   2.09055454
| 37> H   -2.00389447  -2.44563976   1.20801385
| 38> H   -2.77186487  -1.16071023   0.37506989
| 39> C   -1.93482005   2.22052199  -1.08549786
| 40> H   -2.35557116   1.08350028  -0.04520269
| 41> H   -0.93726732   2.62950115  -1.24043885
| 42> H   -2.56300991   3.06726723  -0.80981531
| 43> H   -2.28388300   1.81913761  -2.03605648
| 44> *
| 45>
| 46>                          ****END OF INPUT****

CARTESIAN COORDINATES (ANGSTROEM)
---------------------------------
  Lu     0.107435   -0.328286    0.258660
  C      0.532606    0.477181    2.658370
  C      1.685113   -0.248118    2.284724
  C      2.342577    0.476113    1.269284
  C      1.576695    1.622246    0.977359
  C      0.479379    1.636294    1.866584
  H      1.830114    2.398641    0.268834
  H     -0.198089    2.466278    2.003198
  H     -0.133033    0.244028    3.475138
  H      2.008757   -1.183528    2.720907
  H      3.271666    0.195784    0.796040
  C      0.647750   -0.142530   -2.237191
  C     -0.522161   -0.927990   -2.171167
  C      1.189481   -2.133546   -1.266243
  C      1.708370   -0.898381   -1.701803
  H      0.729507    0.823868   -2.713334
  C     -0.189103   -2.150001   -1.569747
  H     -1.470110   -0.691393   -2.628266
  H      2.743437   -0.598059   -1.642420
  H      1.744995   -2.937303   -0.802795
  H     -0.857599   -2.986570   -1.434804
  C     -2.003475   -1.347913    1.132033
  H     -2.374011   -0.980372    2.090555
  H     -2.003894   -2.445640    1.208014
  H     -2.771865   -1.160710    0.375070
  C     -1.934820    2.220522   -1.085498
  H     -2.355571    1.083500   -0.045203
  H     -0.937267    2.629501   -1.240439
  H     -2.563010    3.067267   -0.809815
  H     -2.283883    1.819138   -2.036056

 Total Charge           Charge          ....    0
 Multiplicity           Mult            ....    1
 Number of Electrons    NEL             ....  132
 Basis Dimension        Dim             ....  295

ORBITAL ENERGIES
----------------

  NO   OCC          E(Eh)            E(eV)
   0   2.0000     -19.245715      -523.7025
   1   2.0000     -12.618189      -343.3584
   2   2.0000     -12.615666      -343.2897
   3   2.0000     -12.615285      -343.2794
   4   2.0000     -10.482497      -285.2432
   5   2.0000     -10.448718      -284.3241
   6   2.0000     -10.446692      -284.2689
   7   2.0000     -10.445912      -284.2477
   8   2.0000     -10.445762      -284.2436
   9   2.0000     -10.444596      -284.2119
  10   2.0000     -10.443976      -284.1950
  11   2.0000     -10.443677      -284.1869
  12   2.0000     -10.443080      -284.1706
  13   2.0000     -10.441819      -284.1363
  14   2.0000     -10.441028      -284.1148
  15   2.0000     -10.358479      -281.8685
  16   2.0000      -5.887230      -160.1997
  17   2.0000      -5.886878      -160.1901
  18   2.0000      -5.886399      -160.1770
  19   2.0000      -5.884909      -160.1365
  20   2.0000      -5.884826      -160.1343
  21   2.0000      -2.429381       -66.1068
  22   2.0000      -1.269891       -34.5555
  23   2.0000      -1.267497       -34.4903
  24   2.0000      -1.256060       -34.1791
  25   2.0000      -0.981735       -26.7144
  26   2.0000      -0.971172       -26.4269
  27   2.0000      -0.795629       -21.6502
  28   2.0000      -0.794965       -21.6321
  29   2.0000      -0.793270       -21.5860
  30   2.0000      -0.791485       -21.5374
  31   2.0000      -0.782947       -21.3051
  32   2.0000      -0.691306       -18.8114
  33   2.0000      -0.616248       -16.7690
  34   2.0000      -0.612062       -16.6551
  35   2.0000      -0.610670       -16.6172
  36   2.0000      -0.609075       -16.5738
  37   2.0000      -0.597683       -16.2638
  38   2.0000      -0.592199       -16.1146
  39   2.0000      -0.555001       -15.1023
  40   2.0000      -0.553678       -15.0663
  41   2.0000      -0.553503       -15.0616
  42   2.0000      -0.552393       -15.0314
  43   2.0000      -0.551936       -15.0189
  44   2.0000      -0.550690       -14.9850
  45   2.0000      -0.549082       -14.9413
  46   2.0000      -0.478646       -13.0246
  47   2.0000      -0.474292       -12.9061
  48   2.0000      -0.468100       -12.7376
  49   2.0000      -0.453625       -12.3438
  50   2.0000      -0.452430       -12.3113
  51   2.0000      -0.450296       -12.2532
  52   2.0000      -0.449358       -12.2277
  53   2.0000      -0.434520       -11.8239
  54   2.0000      -0.433005       -11.7827
  55   2.0000      -0.431572       -11.7437
  56   2.0000      -0.430817       -11.7231
  57   2.0000      -0.428001       -11.6465
  58   2.0000      -0.405717       -11.0401
  59   2.0000      -0.389086       -10.5876
  60   2.0000      -0.369704       -10.0602
  61   2.0000      -0.289957        -7.8901
  62   2.0000      -0.287990        -7.8366
  63   2.0000      -0.279008        -7.5922
  64   2.0000      -0.268508        -7.3065
  65   2.0000      -0.242408        -6.5963
  66   0.0000      -0.012422        -0.3380
  67   0.0000      -0.006784        -0.1846
  68   0.0000       0.022990         0.6256
  69   0.0000       0.049525         1.3476
  70   0.0000       0.054513         1.4834

MULLIKEN ATOMIC CHARGES
-----------------------
   0 Lu:    0.798149
   1 C :   -0.261612
   2 C :   -0.305741
   3 C :   -0.252226
   4 C :   -0.317683
   5 C :   -0.281854
   6 H :    0.236878
   7 H :    0.237739
   8 H :    0.242517
   9 H :    0.244251
  10 H :    0.235509
  11 C :   -0.320339
  12 C :   -0.279394
  13 C :   -0.304646
  14 C :   -0.256495
  15 H :    0.232471
  16 C :   -0.251256
  17 H :    0.233006
  18 H :    0.232785
  19 H :    0.240453
  20 H :    0.241744
  21 C :   -1.033499
  22 H :    0.207465
  23 H :    0.210024
  24 H :    0.195056
  25 C :   -0.854427
  26 H :    0.176562
  27 H :    0.244622
  28 H :    0.255490
  29 H :    0.254450
Sum of atomic charges:   -0.0000000

LOEWDIN ATOMIC CHARGES
----------------------
   0 Lu:   -0.065765
   1 C :   -0.120445
   2 C :   -0.143092
   3 C :   -0.124951
   4 C :   -0.150143
   5 C :   -0.136802
   6 H :    0.154470
   7 H :    0.156219
   8 H :    0.160379
   9 H :    0.157378
  10 H :    0.152937
  11 C :   -0.153671
  12 C :   -0.136708
  13 C :   -0.147917
  14 C :   -0.127127
  15 H :    0.152083
  16 C :   -0.118709
  17 H :    0.154480
  18 H :    0.151851
  19 H :    0.155201
  20 H :    0.158565
  21 C :   -0.653104
  22 H :    0.123520
  23 H :    0.130373
  24 H :    0.123326
  25 C :   -0.471397
  26 H :    0.189172
  27 H :    0.149344
  28 H :    0.140332
  29 H :    0.140201

  Mayer bond orders larger than 0.100000
B(  0-Lu,  1-C ) :   0.2386 B(  0-Lu,  2-C ) :   0.2751 B(  0-Lu,  3-C ) :   0.2613
B(  0-Lu,  4-C ) :   0.2807 B(  0-Lu,  5-C ) :   0.2712 B(  0-Lu, 11-C ) :   0.2793
B(  0-Lu, 12-C ) :   0.2594 B(  0-Lu, 13-C ) :   0.2718 B(  0-Lu, 14-C ) :   0.2608
B(  0-Lu, 16-C ) :   0.2335 B(  0-Lu, 21-C ) :   0.7980 B(  0-Lu, 25-C ) :   0.1048
B(  1-C ,  2-C ) :   1.2829 B(  1-C ,  5-C ) :   1.3034 B(  1-C ,  8-H ) :   0.9208
B(  2-C ,  3-C ) :   1.2906 B(  2-C ,  9-H ) :   0.9126 B(  3-C ,  4-C ) :   1.2876
B(  3-C , 10-H ) :   0.9160 B(  4-C ,  5-C ) :   1.2645 B(  4-C ,  6-H ) :   0.9166
B(  5-C ,  7-H ) :   0.9218 B( 11-C , 12-C ) :   1.2625 B( 11-C , 14-C ) :   1.2931
B( 11-C , 15-H ) :   0.9192 B( 12-C , 16-C ) :   1.3176 B( 12-C , 17-H ) :   0.9227
B( 13-C , 14-C ) :   1.2877 B( 13-C , 16-C ) :   1.2883 B( 13-C , 19-H ) :   0.9135
B( 14-C , 18-H ) :   0.9176 B( 16-C , 20-H ) :   0.9188 B( 21-C , 22-H ) :   0.9167
B( 21-C , 23-H ) :   0.9135 B( 21-C , 24-H ) :   0.9050 B( 25-C , 26-H ) :   0.8692
B( 25-C , 27-H ) :   0.9027 B( 25-C , 28-H ) :   0.9065 B( 25-C , 29-H ) :   0.9016

Dispersion correction           -0.018062886
FINAL SINGLE POINT ENERGY     -1702.312435730955
Dispersion correction            ... done

DIPOLE MOMENT
-------------
                                X             Y             Z
Electronic contribution:     -1.37097     -13.67679      12.12835
Nuclear contribution   :      1.74969      14.49074     -12.65057
                        -----------------------------------------
Total Dipole Moment    :      0.37872       0.81394      -0.52223
                        -----------------------------------------
Magnitude (a.u.)       :      1.03858
Magnitude (Debye)      :      2.63987

Rotational constants in cm-1:     0.028160     0.019719     0.017805
Rotational constants in MHz :   844.218446   591.159324   533.771436

                             ****ORCA TERMINATED NORMALLY****
TOTAL RUN TIME: 0 days 0 hours 9 minutes 19 seconds 752 msec
