                         Program Version 5.0.3 -  RELEASE  -
|  1> ! EnGrad PBEh-3c
|  2> %output
|  3> xyzfile=True
|  4> end
|  5> %scf
|  6> maxiter 250
|  7> end
|  8> %output
|  9> Print[P_Hirshfeld] = 1
| 10> end
| 11> % maxcore
| 12> 4000
| 13> *xyz 0 1
| 14> Lu   0.01379546  -0.34214082   0.26450775
| 15> C    0.49495184   0.62840118   2.61838735
| 16> C    1.57171819  -0.21742310   2.26907260
| 17> C    2.31426644   0.42061108   1.25430495
| 18> C    1.68276692   1.63906776   0.94908647
| 19> C    0.56304438   1.77200615   1.80086103
| 20> H    2.04473218   2.37656874   0.24532693
| 21> H   -0.09288879   2.63235391   1.84820991
| 22> H   -0.23656803   0.43844518   3.38921694
| 23> H    1.81183135  -1.16534450   2.72973489
| 24> H    3.23420389   0.05647077   0.82101023
| 25> C    0.75177611  -0.10919634  -2.29764130
| 26> C   -0.45938076  -0.83888155  -2.29311651
| 27> C    1.12199459  -2.08714316  -1.22759926
| 28> C    1.72820746  -0.88931545  -1.65906580
| 29> H    0.92626047   0.84224891  -2.78375421
| 30> C   -0.22943015  -2.06115608  -1.64129421
| 31> H   -1.38742990  -0.52883149  -2.75280405
| 32> H    2.77598493  -0.64189192  -1.56947660
| 33> H    1.62531722  -2.91010847  -0.74092598
| 34> H   -0.96242415  -2.83430041  -1.46758021
| 35> C   -1.96518920  -1.42366542   1.12380032
| 36> H   -2.26966235  -1.12345783   2.13577263
| 37> H   -1.82786288  -2.51789988   1.19029166
| 38> H   -2.87692651  -1.30471400   0.51425005
| 39> C   -2.07368212   2.05364180  -0.94563603
| 40> H   -2.14716715   1.25137021  -0.19086360
| 41> H   -0.97859425   2.29599158  -1.00131624
| 42> H   -2.66607771   2.90247896  -0.54776637
| 43> H   -2.47797072   1.65688687  -1.90126420
| 44> *
| 45>
| 46>                          ****END OF INPUT****

CARTESIAN COORDINATES (ANGSTROEM)
---------------------------------
  Lu     0.013795   -0.342141    0.264508
  C      0.494952    0.628401    2.618387
  C      1.571718   -0.217423    2.269073
  C      2.314266    0.420611    1.254305
  C      1.682767    1.639068    0.949086
  C      0.563044    1.772006    1.800861
  H      2.044732    2.376569    0.245327
  H     -0.092889    2.632354    1.848210
  H     -0.236568    0.438445    3.389217
  H      1.811831   -1.165345    2.729735
  H      3.234204    0.056471    0.821010
  C      0.751776   -0.109196   -2.297641
  C     -0.459381   -0.838882   -2.293117
  C      1.121995   -2.087143   -1.227599
  C      1.728207   -0.889315   -1.659066
  H      0.926260    0.842249   -2.783754
  C     -0.229430   -2.061156   -1.641294
  H     -1.387430   -0.528831   -2.752804
  H      2.775985   -0.641892   -1.569477
  H      1.625317   -2.910108   -0.740926
  H     -0.962424   -2.834300   -1.467580
  C     -1.965189   -1.423665    1.123800
  H     -2.269662   -1.123458    2.135773
  H     -1.827863   -2.517900    1.190292
  H     -2.876927   -1.304714    0.514250
  C     -2.073682    2.053642   -0.945636
  H     -2.147167    1.251370   -0.190864
  H     -0.978594    2.295992   -1.001316
  H     -2.666078    2.902479   -0.547766
  H     -2.477971    1.656887   -1.901264

 Total Charge           Charge          ....    0
 Multiplicity           Mult            ....    1
 Number of Electrons    NEL             ....  132
 Basis Dimension        Dim             ....  295

ORBITAL ENERGIES
----------------

  NO   OCC          E(Eh)            E(eV)
   0   2.0000     -19.253232      -523.9071
   1   2.0000     -12.625758      -343.5643
   2   2.0000     -12.623248      -343.4961
   3   2.0000     -12.622744      -343.4823
   4   2.0000     -10.454336      -284.4770
   5   2.0000     -10.448293      -284.3125
   6   2.0000     -10.446887      -284.2742
   7   2.0000     -10.446267      -284.2574
   8   2.0000     -10.446160      -284.2545
   9   2.0000     -10.445437      -284.2348
  10   2.0000     -10.444615      -284.2124
  11   2.0000     -10.444437      -284.2076
  12   2.0000     -10.443758      -284.1891
  13   2.0000     -10.442550      -284.1562
  14   2.0000     -10.441663      -284.1321
  15   2.0000     -10.363391      -282.0022
  16   2.0000      -5.894833      -160.4066
  17   2.0000      -5.894505      -160.3976
  18   2.0000      -5.893956      -160.3827
  19   2.0000      -5.892468      -160.3422
  20   2.0000      -5.892352      -160.3390
  21   2.0000      -2.436777       -66.3081
  22   2.0000      -1.275233       -34.7008
  23   2.0000      -1.274520       -34.6815
  24   2.0000      -1.262896       -34.3651
  25   2.0000      -0.980328       -26.6761
  26   2.0000      -0.971785       -26.4436
  27   2.0000      -0.799496       -21.7554
  28   2.0000      -0.795391       -21.6437
  29   2.0000      -0.793714       -21.5980
  30   2.0000      -0.791216       -21.5301
  31   2.0000      -0.790907       -21.5217
  32   2.0000      -0.697501       -18.9800
  33   2.0000      -0.615216       -16.7409
  34   2.0000      -0.613241       -16.6871
  35   2.0000      -0.610507       -16.6127
  36   2.0000      -0.608820       -16.5668
  37   2.0000      -0.597104       -16.2480
  38   2.0000      -0.591720       -16.1015
  39   2.0000      -0.562640       -15.3102
  40   2.0000      -0.561195       -15.2709
  41   2.0000      -0.561032       -15.2664
  42   2.0000      -0.560116       -15.2415
  43   2.0000      -0.559337       -15.2203
  44   2.0000      -0.558338       -15.1932
  45   2.0000      -0.556451       -15.1418
  46   2.0000      -0.480599       -13.0778
  47   2.0000      -0.474491       -12.9115
  48   2.0000      -0.464073       -12.6281
  49   2.0000      -0.460863       -12.5407
  50   2.0000      -0.454471       -12.3668
  51   2.0000      -0.451923       -12.2974
  52   2.0000      -0.450140       -12.2489
  53   2.0000      -0.449502       -12.2316
  54   2.0000      -0.434642       -11.8272
  55   2.0000      -0.432867       -11.7789
  56   2.0000      -0.431560       -11.7434
  57   2.0000      -0.430305       -11.7092
  58   2.0000      -0.428625       -11.6635
  59   2.0000      -0.388449       -10.5702
  60   2.0000      -0.387781       -10.5520
  61   2.0000      -0.293204        -7.9785
  62   2.0000      -0.285734        -7.7752
  63   2.0000      -0.279998        -7.6191
  64   2.0000      -0.264047        -7.1851
  65   2.0000      -0.257496        -7.0068
  66   0.0000      -0.017731        -0.4825
  67   0.0000       0.008473         0.2305
  68   0.0000       0.042197         1.1482
  69   0.0000       0.052429         1.4267
  70   0.0000       0.056400         1.5347

MULLIKEN ATOMIC CHARGES
-----------------------
   0 Lu:    0.830585
   1 C :   -0.267215
   2 C :   -0.332980
   3 C :   -0.259832
   4 C :   -0.288489
   5 C :   -0.289589
   6 H :    0.232381
   7 H :    0.236803
   8 H :    0.247528
   9 H :    0.247889
  10 H :    0.233987
  11 C :   -0.299406
  12 C :   -0.283116
  13 C :   -0.343408
  14 C :   -0.247129
  15 H :    0.232560
  16 C :   -0.246423
  17 H :    0.230902
  18 H :    0.230202
  19 H :    0.243245
  20 H :    0.252045
  21 C :   -1.064937
  22 H :    0.212484
  23 H :    0.211175
  24 H :    0.211333
  25 C :   -0.920608
  26 H :    0.254125
  27 H :    0.232988
  28 H :    0.253474
  29 H :    0.249427
Sum of atomic charges:   -0.0000000

LOEWDIN ATOMIC CHARGES
----------------------
   0 Lu:    0.010355
   1 C :   -0.133756
   2 C :   -0.151962
   3 C :   -0.131027
   4 C :   -0.147463
   5 C :   -0.146182
   6 H :    0.151405
   7 H :    0.152389
   8 H :    0.160356
   9 H :    0.159100
  10 H :    0.151807
  11 C :   -0.151380
  12 C :   -0.142721
  13 C :   -0.156321
  14 C :   -0.126391
  15 H :    0.150750
  16 C :   -0.125715
  17 H :    0.151536
  18 H :    0.150403
  19 H :    0.157273
  20 H :    0.161819
  21 C :   -0.652001
  22 H :    0.128524
  23 H :    0.135063
  24 H :    0.131602
  25 C :   -0.486035
  26 H :    0.158764
  27 H :    0.147792
  28 H :    0.145969
  29 H :    0.146046

  Mayer bond orders larger than 0.100000
B(  0-Lu,  1-C ) :   0.2400 B(  0-Lu,  2-C ) :   0.2927 B(  0-Lu,  3-C ) :   0.2504
B(  0-Lu,  4-C ) :   0.2461 B(  0-Lu,  5-C ) :   0.2595 B(  0-Lu, 11-C ) :   0.2566
B(  0-Lu, 12-C ) :   0.2551 B(  0-Lu, 13-C ) :   0.2998 B(  0-Lu, 14-C ) :   0.2495
B(  0-Lu, 16-C ) :   0.2399 B(  0-Lu, 21-C ) :   0.8158 B(  1-C ,  2-C ) :   1.2765
B(  1-C ,  5-C ) :   1.3066 B(  1-C ,  8-H ) :   0.9137 B(  2-C ,  3-C ) :   1.2814
B(  2-C ,  9-H ) :   0.9104 B(  3-C ,  4-C ) :   1.3100 B(  3-C , 10-H ) :   0.9177
B(  4-C ,  5-C ) :   1.2829 B(  4-C ,  6-H ) :   0.9200 B(  5-C ,  7-H ) :   0.9171
B( 11-C , 12-C ) :   1.2715 B( 11-C , 14-C ) :   1.3155 B( 11-C , 15-H ) :   0.9195
B( 12-C , 16-C ) :   1.3205 B( 12-C , 17-H ) :   0.9184 B( 13-C , 14-C ) :   1.2768
B( 13-C , 16-C ) :   1.2709 B( 13-C , 19-H ) :   0.9139 B( 14-C , 18-H ) :   0.9205
B( 16-C , 20-H ) :   0.9089 B( 21-C , 22-H ) :   0.9111 B( 21-C , 23-H ) :   0.9056
B( 21-C , 24-H ) :   0.9071 B( 25-C , 26-H ) :   0.8634 B( 25-C , 27-H ) :   0.9006
B( 25-C , 28-H ) :   0.9132 B( 25-C , 29-H ) :   0.9128

Dispersion correction           -0.017600263
FINAL SINGLE POINT ENERGY     -1702.387252948683
Dispersion correction            ... done

DIPOLE MOMENT
-------------
                                X             Y             Z
Electronic contribution:     -6.17172     -14.85554      12.68041
Nuclear contribution   :      6.39872      15.53579     -13.05271
                        -----------------------------------------
Total Dipole Moment    :      0.22700       0.68025      -0.37229
                        -----------------------------------------
Magnitude (a.u.)       :      0.80800
Magnitude (Debye)      :      2.05378

Rotational constants in cm-1:     0.028274     0.019682     0.017829
Rotational constants in MHz :   847.618915   590.050497   534.504400

                             ****ORCA TERMINATED NORMALLY****
TOTAL RUN TIME: 0 days 0 hours 9 minutes 36 seconds 698 msec
