                         Program Version 5.0.3 -  RELEASE  -
|  1> ! EnGrad PBEh-3c
|  2> %output
|  3> xyzfile=True
|  4> end
|  5> %scf
|  6> maxiter 250
|  7> end
|  8> %output
|  9> Print[P_Hirshfeld] = 1
| 10> end
| 11> % maxcore
| 12> 4000
| 13> *xyz 0 1
| 14> Lu   0.05061574  -0.33244310   0.26623676
| 15> C    0.52914774   0.51206975   2.65713047
| 16> C    1.66137854  -0.24000298   2.27813144
| 17> C    2.34053796   0.46128403   1.26471791
| 18> C    1.60812091   1.63101556   0.98273031
| 19> C    0.49817526   1.67144108   1.85330145
| 20> H    1.87027730   2.39480299   0.26203780
| 21> H   -0.17475358   2.49885271   1.97502680
| 22> H   -0.15041762   0.28191452   3.45703036
| 23> H    1.97052598  -1.17938408   2.72080957
| 24> H    3.26978955   0.17146608   0.80498415
| 25> C    0.67359149  -0.13473926  -2.26071591
| 26> C   -0.50735889  -0.91176177  -2.19846752
| 27> C    1.17202929  -2.12191133  -1.25992449
| 28> C    1.71945433  -0.89716724  -1.69469065
| 29> H    0.76721045   0.82867450  -2.72686765
| 30> C   -0.19827083  -2.14001900  -1.58146824
| 31> H   -1.45368380  -0.66118417  -2.65419890
| 32> H    2.75307924  -0.60864892  -1.63350702
| 33> H    1.72281067  -2.93236664  -0.79391841
| 34> H   -0.87583523  -2.95599735  -1.44401962
| 35> C   -1.96607032  -1.36624123   1.11971189
| 36> H   -2.36726829  -1.01216738   2.10656665
| 37> H   -1.98075327  -2.46694443   1.21345677
| 38> H   -2.80072992  -1.19482130   0.39855708
| 39> C   -2.02024050   2.10320212  -0.98729204
| 40> H   -2.30982622   1.17868023  -0.12520471
| 41> H   -0.93088467   2.59045015  -1.21626230
| 42> H   -2.56707483   3.03328263  -0.76732970
| 43> H   -2.30456798   1.79853782  -1.99965287
| 44> *
| 45>
| 46>                          ****END OF INPUT****

CARTESIAN COORDINATES (ANGSTROEM)
---------------------------------
  Lu     0.050616   -0.332443    0.266237
  C      0.529148    0.512070    2.657130
  C      1.661379   -0.240003    2.278131
  C      2.340538    0.461284    1.264718
  C      1.608121    1.631016    0.982730
  C      0.498175    1.671441    1.853301
  H      1.870277    2.394803    0.262038
  H     -0.174754    2.498853    1.975027
  H     -0.150418    0.281915    3.457030
  H      1.970526   -1.179384    2.720810
  H      3.269790    0.171466    0.804984
  C      0.673591   -0.134739   -2.260716
  C     -0.507359   -0.911762   -2.198468
  C      1.172029   -2.121911   -1.259924
  C      1.719454   -0.897167   -1.694691
  H      0.767210    0.828674   -2.726868
  C     -0.198271   -2.140019   -1.581468
  H     -1.453684   -0.661184   -2.654199
  H      2.753079   -0.608649   -1.633507
  H      1.722811   -2.932367   -0.793918
  H     -0.875835   -2.955997   -1.444020
  C     -1.966070   -1.366241    1.119712
  H     -2.367268   -1.012167    2.106567
  H     -1.980753   -2.466944    1.213457
  H     -2.800730   -1.194821    0.398557
  C     -2.020240    2.103202   -0.987292
  H     -2.309826    1.178680   -0.125205
  H     -0.930885    2.590450   -1.216262
  H     -2.567075    3.033283   -0.767330
  H     -2.304568    1.798538   -1.999653

 Total Charge           Charge          ....    0
 Multiplicity           Mult            ....    1
 Number of Electrons    NEL             ....  132
 Basis Dimension        Dim             ....  295

ORBITAL ENERGIES
----------------

  NO   OCC          E(Eh)            E(eV)
   0   2.0000     -19.248746      -523.7850
   1   2.0000     -12.621260      -343.4419
   2   2.0000     -12.618722      -343.3729
   3   2.0000     -12.618291      -343.3611
   4   2.0000     -10.477461      -285.1062
   5   2.0000     -10.446336      -284.2592
   6   2.0000     -10.445767      -284.2438
   7   2.0000     -10.445112      -284.2260
   8   2.0000     -10.444078      -284.1978
   9   2.0000     -10.444032      -284.1966
  10   2.0000     -10.443512      -284.1824
  11   2.0000     -10.442930      -284.1666
  12   2.0000     -10.441750      -284.1345
  13   2.0000     -10.441717      -284.1336
  14   2.0000     -10.439853      -284.0828
  15   2.0000     -10.365988      -282.0729
  16   2.0000      -5.890323      -160.2838
  17   2.0000      -5.889969      -160.2742
  18   2.0000      -5.889459      -160.2603
  19   2.0000      -5.887963      -160.2196
  20   2.0000      -5.887855      -160.2167
  21   2.0000      -2.432335       -66.1872
  22   2.0000      -1.271030       -34.5865
  23   2.0000      -1.270502       -34.5721
  24   2.0000      -1.258867       -34.2555
  25   2.0000      -0.979082       -26.6422
  26   2.0000      -0.969589       -26.3838
  27   2.0000      -0.794477       -21.6188
  28   2.0000      -0.792892       -21.5757
  29   2.0000      -0.791790       -21.5457
  30   2.0000      -0.789942       -21.4954
  31   2.0000      -0.781322       -21.2609
  32   2.0000      -0.693283       -18.8652
  33   2.0000      -0.615022       -16.7356
  34   2.0000      -0.611880       -16.6501
  35   2.0000      -0.609609       -16.5883
  36   2.0000      -0.608643       -16.5620
  37   2.0000      -0.596464       -16.2306
  38   2.0000      -0.591577       -16.0976
  39   2.0000      -0.558047       -15.1852
  40   2.0000      -0.556756       -15.1501
  41   2.0000      -0.556633       -15.1467
  42   2.0000      -0.555525       -15.1166
  43   2.0000      -0.554945       -15.1008
  44   2.0000      -0.553745       -15.0682
  45   2.0000      -0.552082       -15.0229
  46   2.0000      -0.471464       -12.8292
  47   2.0000      -0.466925       -12.7057
  48   2.0000      -0.464882       -12.6501
  49   2.0000      -0.452641       -12.3170
  50   2.0000      -0.451469       -12.2851
  51   2.0000      -0.450536       -12.2597
  52   2.0000      -0.447596       -12.1797
  53   2.0000      -0.433804       -11.8044
  54   2.0000      -0.433284       -11.7903
  55   2.0000      -0.431264       -11.7353
  56   2.0000      -0.429898       -11.6981
  57   2.0000      -0.428534       -11.6610
  58   2.0000      -0.426838       -11.6149
  59   2.0000      -0.384174       -10.4539
  60   2.0000      -0.379850       -10.3362
  61   2.0000      -0.289896        -7.8885
  62   2.0000      -0.285690        -7.7740
  63   2.0000      -0.278079        -7.5669
  64   2.0000      -0.264042        -7.1849
  65   2.0000      -0.257294        -7.0013
  66   0.0000      -0.011485        -0.3125
  67   0.0000       0.005935         0.1615
  68   0.0000       0.035453         0.9647
  69   0.0000       0.052684         1.4336
  70   0.0000       0.056054         1.5253

MULLIKEN ATOMIC CHARGES
-----------------------
   0 Lu:    0.843482
   1 C :   -0.260079
   2 C :   -0.313187
   3 C :   -0.259256
   4 C :   -0.291411
   5 C :   -0.303307
   6 H :    0.234619
   7 H :    0.237176
   8 H :    0.244296
   9 H :    0.243320
  10 H :    0.233341
  11 C :   -0.303626
  12 C :   -0.296162
  13 C :   -0.310435
  14 C :   -0.255972
  15 H :    0.231788
  16 C :   -0.248894
  17 H :    0.232735
  18 H :    0.230933
  19 H :    0.238896
  20 H :    0.243837
  21 C :   -1.055371
  22 H :    0.204523
  23 H :    0.217445
  24 H :    0.197663
  25 C :   -0.909944
  26 H :    0.235831
  27 H :    0.219168
  28 H :    0.259320
  29 H :    0.259275
Sum of atomic charges:   -0.0000000

LOEWDIN ATOMIC CHARGES
----------------------
   0 Lu:   -0.021892
   1 C :   -0.126882
   2 C :   -0.145875
   3 C :   -0.129330
   4 C :   -0.146870
   5 C :   -0.145472
   6 H :    0.152179
   7 H :    0.154680
   8 H :    0.159736
   9 H :    0.156666
  10 H :    0.151940
  11 C :   -0.151595
  12 C :   -0.143132
  13 C :   -0.148611
  14 C :   -0.128830
  15 H :    0.150708
  16 C :   -0.123231
  17 H :    0.153253
  18 H :    0.150721
  19 H :    0.154335
  20 H :    0.159138
  21 C :   -0.646737
  22 H :    0.125333
  23 H :    0.134351
  24 H :    0.127107
  25 C :   -0.500018
  26 H :    0.193751
  27 H :    0.152532
  28 H :    0.141497
  29 H :    0.140547

  Mayer bond orders larger than 0.100000
B(  0-Lu,  1-C ) :   0.2393 B(  0-Lu,  2-C ) :   0.2762 B(  0-Lu,  3-C ) :   0.2515
B(  0-Lu,  4-C ) :   0.2628 B(  0-Lu,  5-C ) :   0.2727 B(  0-Lu, 11-C ) :   0.2686
B(  0-Lu, 12-C ) :   0.2650 B(  0-Lu, 13-C ) :   0.2738 B(  0-Lu, 14-C ) :   0.2511
B(  0-Lu, 16-C ) :   0.2361 B(  0-Lu, 21-C ) :   0.8006 B(  1-C ,  2-C ) :   1.2860
B(  1-C ,  5-C ) :   1.2975 B(  1-C ,  8-H ) :   0.9181 B(  2-C ,  3-C ) :   1.2896
B(  2-C ,  9-H ) :   0.9131 B(  3-C ,  4-C ) :   1.3013 B(  3-C , 10-H ) :   0.9184
B(  4-C ,  5-C ) :   1.2734 B(  4-C ,  6-H ) :   0.9164 B(  5-C ,  7-H ) :   0.9213
B( 11-C , 12-C ) :   1.2675 B( 11-C , 14-C ) :   1.3029 B( 11-C , 15-H ) :   0.9191
B( 12-C , 16-C ) :   1.3093 B( 12-C , 17-H ) :   0.9211 B( 13-C , 14-C ) :   1.2891
B( 13-C , 16-C ) :   1.2879 B( 13-C , 19-H ) :   0.9146 B( 14-C , 18-H ) :   0.9195
B( 16-C , 20-H ) :   0.9178 B( 21-C , 22-H ) :   0.9150 B( 21-C , 23-H ) :   0.9088
B( 21-C , 24-H ) :   0.9019 B( 25-C , 26-H ) :   0.8793 B( 25-C , 27-H ) :   0.9128
B( 25-C , 28-H ) :   0.9037 B( 25-C , 29-H ) :   0.8980

Dispersion correction           -0.017501755
FINAL SINGLE POINT ENERGY     -1702.353418264279
Dispersion correction            ... done

DIPOLE MOMENT
-------------
                                X             Y             Z
Electronic contribution:     -4.32539     -13.90094      12.51011
Nuclear contribution   :      4.56929      14.67566     -12.98656
                        -----------------------------------------
Total Dipole Moment    :      0.24390       0.77471      -0.47645
                        -----------------------------------------
Magnitude (a.u.)       :      0.94163
Magnitude (Debye)      :      2.39344

Rotational constants in cm-1:     0.028286     0.019737     0.017764
Rotational constants in MHz :   847.995720   591.713692   532.536714

                             ****ORCA TERMINATED NORMALLY****
TOTAL RUN TIME: 0 days 0 hours 9 minutes 28 seconds 996 msec
