                         Program Version 5.0.3 -  RELEASE  -
|  1> ! EnGrad PBEh-3c
|  2> %output
|  3> xyzfile=True
|  4> end
|  5> %scf
|  6> maxiter 250
|  7> end
|  8> %output
|  9> Print[P_Hirshfeld] = 1
| 10> end
| 11> % maxcore
| 12> 4000
| 13> *xyz 0 1
| 14> Lu   0.00712532  -0.33358209   0.27005450
| 15> C    0.52669987   0.54968391   2.64923189
| 16> C    1.63784825  -0.23593487   2.27495060
| 17> C    2.33451229   0.45061987   1.26035313
| 18> C    1.63835753   1.63952556   0.98341768
| 19> C    0.52005800   1.69828413   1.84245558
| 20> H    1.91181305   2.39034768   0.25623883
| 21> H   -0.15384669   2.53606713   1.94626654
| 22> H   -0.16997595   0.32019789   3.44121112
| 23> H    1.93065534  -1.17396120   2.72010131
| 24> H    3.26887537   0.14552859   0.81279571
| 25> C    0.69922167  -0.13555394  -2.27777909
| 26> C   -0.49155687  -0.89548446  -2.22557578
| 27> C    1.16116727  -2.11405793  -1.25011444
| 28> C    1.72031373  -0.89487067  -1.68946941
| 29> H    0.80610471   0.83717696  -2.74291509
| 30> C   -0.20456652  -2.11726331  -1.59787315
| 31> H   -1.43637472  -0.63030948  -2.68070003
| 32> H    2.76579864  -0.61906530  -1.62333914
| 33> H    1.69836574  -2.92527992  -0.78526487
| 34> H   -0.89872253  -2.93000836  -1.45181034
| 35> C   -1.95330391  -1.38171370   1.11878893
| 36> H   -2.35170646  -1.04877257   2.10906593
| 37> H   -1.95529215  -2.48577274   1.21656313
| 38> H   -2.82146645  -1.23011566   0.42947429
| 39> C   -2.05174615   2.02497081  -0.91142548
| 40> H   -2.26427597   1.27262115  -0.20703021
| 41> H   -0.97047878   2.52435885  -1.17602934
| 42> H   -2.57370961   2.98876399  -0.72047332
| 43> H   -2.33112525   1.77219843  -1.95704016
| 44> *
| 45>
| 46>                          ****END OF INPUT****

CARTESIAN COORDINATES (ANGSTROEM)
---------------------------------
  Lu     0.007125   -0.333582    0.270054
  C      0.526700    0.549684    2.649232
  C      1.637848   -0.235935    2.274951
  C      2.334512    0.450620    1.260353
  C      1.638358    1.639526    0.983418
  C      0.520058    1.698284    1.842456
  H      1.911813    2.390348    0.256239
  H     -0.153847    2.536067    1.946267
  H     -0.169976    0.320198    3.441211
  H      1.930655   -1.173961    2.720101
  H      3.268875    0.145529    0.812796
  C      0.699222   -0.135554   -2.277779
  C     -0.491557   -0.895484   -2.225576
  C      1.161167   -2.114058   -1.250114
  C      1.720314   -0.894871   -1.689469
  H      0.806105    0.837177   -2.742915
  C     -0.204567   -2.117263   -1.597873
  H     -1.436375   -0.630309   -2.680700
  H      2.765799   -0.619065   -1.623339
  H      1.698366   -2.925280   -0.785265
  H     -0.898723   -2.930008   -1.451810
  C     -1.953304   -1.381714    1.118789
  H     -2.351706   -1.048773    2.109066
  H     -1.955292   -2.485773    1.216563
  H     -2.821466   -1.230116    0.429474
  C     -2.051746    2.024971   -0.911425
  H     -2.264276    1.272621   -0.207030
  H     -0.970479    2.524359   -1.176029
  H     -2.573710    2.988764   -0.720473
  H     -2.331125    1.772198   -1.957040

 Total Charge           Charge          ....    0
 Multiplicity           Mult            ....    1
 Number of Electrons    NEL             ....  132
 Basis Dimension        Dim             ....  295

ORBITAL ENERGIES
----------------

  NO   OCC          E(Eh)            E(eV)
   0   2.0000     -19.251440      -523.8583
   1   2.0000     -12.623949      -343.5151
   2   2.0000     -12.621442      -343.4469
   3   2.0000     -12.620995      -343.4347
   4   2.0000     -10.460131      -284.6346
   5   2.0000     -10.444948      -284.2215
   6   2.0000     -10.444832      -284.2183
   7   2.0000     -10.443914      -284.1934
   8   2.0000     -10.443598      -284.1847
   9   2.0000     -10.442942      -284.1669
  10   2.0000     -10.442100      -284.1440
  11   2.0000     -10.441117      -284.1172
  12   2.0000     -10.440778      -284.1080
  13   2.0000     -10.440720      -284.1064
  14   2.0000     -10.439404      -284.0706
  15   2.0000     -10.367242      -282.1070
  16   2.0000      -5.893041      -160.3578
  17   2.0000      -5.892688      -160.3482
  18   2.0000      -5.892172      -160.3341
  19   2.0000      -5.890703      -160.2942
  20   2.0000      -5.890574      -160.2907
  21   2.0000      -2.434973       -66.2590
  22   2.0000      -1.273060       -34.6417
  23   2.0000      -1.272512       -34.6268
  24   2.0000      -1.261438       -34.3255
  25   2.0000      -0.978892       -26.6370
  26   2.0000      -0.970442       -26.4071
  27   2.0000      -0.799527       -21.7562
  28   2.0000      -0.793468       -21.5914
  29   2.0000      -0.791490       -21.5375
  30   2.0000      -0.790005       -21.4971
  31   2.0000      -0.788710       -21.4619
  32   2.0000      -0.697380       -18.9767
  33   2.0000      -0.613301       -16.6888
  34   2.0000      -0.610291       -16.6069
  35   2.0000      -0.607925       -16.5425
  36   2.0000      -0.607563       -16.5326
  37   2.0000      -0.595212       -16.1965
  38   2.0000      -0.590155       -16.0589
  39   2.0000      -0.560720       -15.2580
  40   2.0000      -0.559490       -15.2245
  41   2.0000      -0.559374       -15.2213
  42   2.0000      -0.558268       -15.1913
  43   2.0000      -0.557620       -15.1736
  44   2.0000      -0.556492       -15.1429
  45   2.0000      -0.554774       -15.0962
  46   2.0000      -0.516732       -14.0610
  47   2.0000      -0.466121       -12.6838
  48   2.0000      -0.461221       -12.5504
  49   2.0000      -0.451831       -12.2949
  50   2.0000      -0.449983       -12.2447
  51   2.0000      -0.448937       -12.2162
  52   2.0000      -0.445693       -12.1279
  53   2.0000      -0.433069       -11.7844
  54   2.0000      -0.431469       -11.7409
  55   2.0000      -0.430419       -11.7123
  56   2.0000      -0.429438       -11.6856
  57   2.0000      -0.427622       -11.6362
  58   2.0000      -0.425414       -11.5761
  59   2.0000      -0.385586       -10.4923
  60   2.0000      -0.382831       -10.4173
  61   2.0000      -0.290906        -7.9160
  62   2.0000      -0.283177        -7.7056
  63   2.0000      -0.277042        -7.5387
  64   2.0000      -0.265870        -7.2347
  65   2.0000      -0.261074        -7.1042
  66   0.0000      -0.011874        -0.3231
  67   0.0000       0.009686         0.2636
  68   0.0000       0.039493         1.0747
  69   0.0000       0.053425         1.4538
  70   0.0000       0.057235         1.5575

MULLIKEN ATOMIC CHARGES
-----------------------
   0 Lu:    0.870060
   1 C :   -0.257409
   2 C :   -0.320735
   3 C :   -0.267238
   4 C :   -0.271715
   5 C :   -0.317896
   6 H :    0.233065
   7 H :    0.236135
   8 H :    0.245233
   9 H :    0.243332
  10 H :    0.230996
  11 C :   -0.292304
  12 C :   -0.302721
  13 C :   -0.317071
  14 C :   -0.254433
  15 H :    0.230060
  16 C :   -0.251760
  17 H :    0.232835
  18 H :    0.228658
  19 H :    0.238797
  20 H :    0.244913
  21 C :   -1.075950
  22 H :    0.210386
  23 H :    0.220588
  24 H :    0.203712
  25 C :   -0.956252
  26 H :    0.277584
  27 H :    0.222067
  28 H :    0.260796
  29 H :    0.256268
Sum of atomic charges:   -0.0000000

LOEWDIN ATOMIC CHARGES
----------------------
   0 Lu:    0.015531
   1 C :   -0.131347
   2 C :   -0.150090
   3 C :   -0.131075
   4 C :   -0.146677
   5 C :   -0.151400
   6 H :    0.150706
   7 H :    0.153643
   8 H :    0.159557
   9 H :    0.156427
  10 H :    0.150864
  11 C :   -0.151406
  12 C :   -0.148891
  13 C :   -0.152196
  14 C :   -0.128650
  15 H :    0.149837
  16 C :   -0.125624
  17 H :    0.152864
  18 H :    0.149945
  19 H :    0.154291
  20 H :    0.159661
  21 C :   -0.645780
  22 H :    0.128401
  23 H :    0.137160
  24 H :    0.130961
  25 C :   -0.504747
  26 H :    0.171858
  27 H :    0.156534
  28 H :    0.145677
  29 H :    0.143966

  Mayer bond orders larger than 0.100000
B(  0-Lu,  1-C ) :   0.2380 B(  0-Lu,  2-C ) :   0.2794 B(  0-Lu,  3-C ) :   0.2439
B(  0-Lu,  4-C ) :   0.2489 B(  0-Lu,  5-C ) :   0.2707 B(  0-Lu, 11-C ) :   0.2590
B(  0-Lu, 12-C ) :   0.2660 B(  0-Lu, 13-C ) :   0.2785 B(  0-Lu, 14-C ) :   0.2420
B(  0-Lu, 16-C ) :   0.2382 B(  0-Lu, 21-C ) :   0.8040 B(  1-C ,  2-C ) :   1.2842
B(  1-C ,  5-C ) :   1.2999 B(  1-C ,  8-H ) :   0.9155 B(  2-C ,  3-C ) :   1.2888
B(  2-C ,  9-H ) :   0.9136 B(  3-C ,  4-C ) :   1.3143 B(  3-C , 10-H ) :   0.9200
B(  4-C ,  5-C ) :   1.2757 B(  4-C ,  6-H ) :   0.9162 B(  5-C ,  7-H ) :   0.9200
B( 11-C , 12-C ) :   1.2661 B( 11-C , 14-C ) :   1.3168 B( 11-C , 15-H ) :   0.9185
B( 12-C , 16-C ) :   1.3103 B( 12-C , 17-H ) :   0.9195 B( 13-C , 14-C ) :   1.2880
B( 13-C , 16-C ) :   1.2843 B( 13-C , 19-H ) :   0.9158 B( 14-C , 18-H ) :   0.9205
B( 16-C , 20-H ) :   0.9157 B( 21-C , 22-H ) :   0.9117 B( 21-C , 23-H ) :   0.9071
B( 21-C , 24-H ) :   0.9004 B( 25-C , 26-H ) :   0.8731 B( 25-C , 27-H ) :   0.9120
B( 25-C , 28-H ) :   0.9081 B( 25-C , 29-H ) :   0.9055

Dispersion correction           -0.017504195
FINAL SINGLE POINT ENERGY     -1702.368746343900
Dispersion correction            ... done

DIPOLE MOMENT
-------------
                                X             Y             Z
Electronic contribution:     -6.61964     -13.98882      12.69300
Nuclear contribution   :      6.76402      14.75784     -13.15171
                        -----------------------------------------
Total Dipole Moment    :      0.14438       0.76902      -0.45871
                        -----------------------------------------
Magnitude (a.u.)       :      0.90701
Magnitude (Debye)      :      2.30543

Rotational constants in cm-1:     0.028390     0.019751     0.017744
Rotational constants in MHz :   851.105327   592.116506   531.957833

                             ****ORCA TERMINATED NORMALLY****
TOTAL RUN TIME: 0 days 0 hours 9 minutes 29 seconds 74 msec
