                         Program Version 5.0.3 -  RELEASE  -
|  1> ! EnGrad PBEh-3c
|  2> %output
|  3> xyzfile=True
|  4> end
|  5> %scf
|  6> maxiter 250
|  7> end
|  8> %output
|  9> Print[P_Hirshfeld] = 1
| 10> end
| 11> % maxcore
| 12> 4000
| 13> *xyz 0 1
| 14> Lu   0.00983269  -0.33380451   0.26937069
| 15> C    0.52615543   0.55350762   2.64734824
| 16> C    1.63480991  -0.23647747   2.27537836
| 17> C    2.33238504   0.45063049   1.25958109
| 18> C    1.64069859   1.63986810   0.98079252
| 19> C    0.52320418   1.70005268   1.84218217
| 20> H    1.91784935   2.38957146   0.25596093
| 21> H   -0.15263425   2.54177669   1.94180464
| 22> H   -0.17331753   0.32505992   3.43951436
| 23> H    1.92539298  -1.17338451   2.72036415
| 24> H    3.26830798   0.14130885   0.81290131
| 25> C    0.70096737  -0.13663504  -2.27796060
| 26> C   -0.49048357  -0.89303492  -2.22966534
| 27> C    1.16198140  -2.11334214  -1.24737344
| 28> C    1.71876735  -0.89462151  -1.68810772
| 29> H    0.81153240   0.83852629  -2.74517148
| 30> C   -0.20494443  -2.11142455  -1.60176158
| 31> H   -1.43380890  -0.62594054  -2.68328485
| 32> H    2.76692613  -0.62014697  -1.62112616
| 33> H    1.69498726  -2.92427580  -0.78376473
| 34> H   -0.90311538  -2.92790337  -1.45167609
| 35> C   -1.96636724  -1.38289967   1.12436736
| 36> H   -2.34400933  -1.05496718   2.10107779
| 37> H   -1.94884650  -2.48497743   1.21531514
| 38> H   -2.81793699  -1.23423886   0.43739333
| 39> C   -2.02066464   2.06290391  -0.94095629
| 40> H   -2.25887320   1.27275367  -0.20645899
| 41> H   -1.00463420   2.49283521  -1.15464330
| 42> H   -2.57650120   2.97259944  -0.71031847
| 43> H   -2.33834165   1.76403541  -1.94290397
| 44> *
| 45>
| 46>                          ****END OF INPUT****

CARTESIAN COORDINATES (ANGSTROEM)
---------------------------------
  Lu     0.009833   -0.333805    0.269371
  C      0.526155    0.553508    2.647348
  C      1.634810   -0.236477    2.275378
  C      2.332385    0.450630    1.259581
  C      1.640699    1.639868    0.980793
  C      0.523204    1.700053    1.842182
  H      1.917849    2.389571    0.255961
  H     -0.152634    2.541777    1.941805
  H     -0.173318    0.325060    3.439514
  H      1.925393   -1.173385    2.720364
  H      3.268308    0.141309    0.812901
  C      0.700967   -0.136635   -2.277961
  C     -0.490484   -0.893035   -2.229665
  C      1.161981   -2.113342   -1.247373
  C      1.718767   -0.894622   -1.688108
  H      0.811532    0.838526   -2.745171
  C     -0.204944   -2.111425   -1.601762
  H     -1.433809   -0.625941   -2.683285
  H      2.766926   -0.620147   -1.621126
  H      1.694987   -2.924276   -0.783765
  H     -0.903115   -2.927903   -1.451676
  C     -1.966367   -1.382900    1.124367
  H     -2.344009   -1.054967    2.101078
  H     -1.948846   -2.484977    1.215315
  H     -2.817937   -1.234239    0.437393
  C     -2.020665    2.062904   -0.940956
  H     -2.258873    1.272754   -0.206459
  H     -1.004634    2.492835   -1.154643
  H     -2.576501    2.972599   -0.710318
  H     -2.338342    1.764035   -1.942904

 Total Charge           Charge          ....    0
 Multiplicity           Mult            ....    1
 Number of Electrons    NEL             ....  132
 Basis Dimension        Dim             ....  295

ORBITAL ENERGIES
----------------

  NO   OCC          E(Eh)            E(eV)
   0   2.0000     -19.251860      -523.8698
   1   2.0000     -12.624367      -343.5265
   2   2.0000     -12.621865      -343.4584
   3   2.0000     -12.621421      -343.4463
   4   2.0000     -10.450603      -284.3754
   5   2.0000     -10.445544      -284.2377
   6   2.0000     -10.445212      -284.2287
   7   2.0000     -10.444377      -284.2059
   8   2.0000     -10.443926      -284.1937
   9   2.0000     -10.443690      -284.1872
  10   2.0000     -10.442389      -284.1518
  11   2.0000     -10.441261      -284.1212
  12   2.0000     -10.441212      -284.1198
  13   2.0000     -10.441004      -284.1142
  14   2.0000     -10.440067      -284.0887
  15   2.0000     -10.362938      -281.9899
  16   2.0000      -5.893460      -160.3692
  17   2.0000      -5.893109      -160.3597
  18   2.0000      -5.892598      -160.3457
  19   2.0000      -5.891130      -160.3058
  20   2.0000      -5.891004      -160.3024
  21   2.0000      -2.435373       -66.2699
  22   2.0000      -1.273423       -34.6516
  23   2.0000      -1.272979       -34.6395
  24   2.0000      -1.261650       -34.3312
  25   2.0000      -0.979809       -26.6620
  26   2.0000      -0.971359       -26.4320
  27   2.0000      -0.803570       -21.8663
  28   2.0000      -0.793991       -21.6056
  29   2.0000      -0.792002       -21.5515
  30   2.0000      -0.790155       -21.5012
  31   2.0000      -0.789789       -21.4912
  32   2.0000      -0.699350       -19.0303
  33   2.0000      -0.613648       -16.6982
  34   2.0000      -0.610483       -16.6121
  35   2.0000      -0.608422       -16.5560
  36   2.0000      -0.607658       -16.5352
  37   2.0000      -0.595506       -16.2045
  38   2.0000      -0.590277       -16.0623
  39   2.0000      -0.561141       -15.2694
  40   2.0000      -0.559893       -15.2355
  41   2.0000      -0.559779       -15.2324
  42   2.0000      -0.558690       -15.2027
  43   2.0000      -0.558032       -15.1848
  44   2.0000      -0.556929       -15.1548
  45   2.0000      -0.555179       -15.1072
  46   2.0000      -0.502158       -13.6644
  47   2.0000      -0.469255       -12.7691
  48   2.0000      -0.465664       -12.6714
  49   2.0000      -0.452807       -12.3215
  50   2.0000      -0.451140       -12.2762
  51   2.0000      -0.449308       -12.2263
  52   2.0000      -0.447331       -12.1725
  53   2.0000      -0.444374       -12.0920
  54   2.0000      -0.433240       -11.7891
  55   2.0000      -0.431400       -11.7390
  56   2.0000      -0.430453       -11.7132
  57   2.0000      -0.429552       -11.6887
  58   2.0000      -0.426368       -11.6021
  59   2.0000      -0.389728       -10.6050
  60   2.0000      -0.383417       -10.4333
  61   2.0000      -0.291567        -7.9339
  62   2.0000      -0.283551        -7.7158
  63   2.0000      -0.277536        -7.5521
  64   2.0000      -0.263802        -7.1784
  65   2.0000      -0.260807        -7.0969
  66   0.0000      -0.012719        -0.3461
  67   0.0000       0.009716         0.2644
  68   0.0000       0.042066         1.1447
  69   0.0000       0.053369         1.4522
  70   0.0000       0.057283         1.5588

MULLIKEN ATOMIC CHARGES
-----------------------
   0 Lu:    0.863499
   1 C :   -0.256960
   2 C :   -0.321568
   3 C :   -0.267306
   4 C :   -0.273445
   5 C :   -0.315786
   6 H :    0.233559
   7 H :    0.236029
   8 H :    0.245464
   9 H :    0.243852
  10 H :    0.231117
  11 C :   -0.294747
  12 C :   -0.298880
  13 C :   -0.318903
  14 C :   -0.253167
  15 H :    0.230435
  16 C :   -0.253185
  17 H :    0.233284
  18 H :    0.228717
  19 H :    0.239461
  20 H :    0.245118
  21 C :   -1.075350
  22 H :    0.215036
  23 H :    0.217895
  24 H :    0.206661
  25 C :   -0.962017
  26 H :    0.262681
  27 H :    0.242112
  28 H :    0.260873
  29 H :    0.255518
Sum of atomic charges:    0.0000000

LOEWDIN ATOMIC CHARGES
----------------------
   0 Lu:    0.019352
   1 C :   -0.130849
   2 C :   -0.150532
   3 C :   -0.130435
   4 C :   -0.147339
   5 C :   -0.150789
   6 H :    0.151004
   7 H :    0.153676
   8 H :    0.159782
   9 H :    0.156710
  10 H :    0.150917
  11 C :   -0.152087
  12 C :   -0.148372
  13 C :   -0.153069
  14 C :   -0.127782
  15 H :    0.150084
  16 C :   -0.125185
  17 H :    0.153096
  18 H :    0.150067
  19 H :    0.154685
  20 H :    0.159817
  21 C :   -0.650085
  22 H :    0.128904
  23 H :    0.136328
  24 H :    0.131124
  25 C :   -0.506230
  26 H :    0.174940
  27 H :    0.155228
  28 H :    0.144360
  29 H :    0.142681

  Mayer bond orders larger than 0.100000
B(  0-Lu,  1-C ) :   0.2375 B(  0-Lu,  2-C ) :   0.2808 B(  0-Lu,  3-C ) :   0.2451
B(  0-Lu,  4-C ) :   0.2499 B(  0-Lu,  5-C ) :   0.2699 B(  0-Lu, 11-C ) :   0.2600
B(  0-Lu, 12-C ) :   0.2642 B(  0-Lu, 13-C ) :   0.2802 B(  0-Lu, 14-C ) :   0.2426
B(  0-Lu, 16-C ) :   0.2386 B(  0-Lu, 21-C ) :   0.8100 B(  1-C ,  2-C ) :   1.2833
B(  1-C ,  5-C ) :   1.3021 B(  1-C ,  8-H ) :   0.9154 B(  2-C ,  3-C ) :   1.2879
B(  2-C ,  9-H ) :   0.9135 B(  3-C ,  4-C ) :   1.3143 B(  3-C , 10-H ) :   0.9198
B(  4-C ,  5-C ) :   1.2743 B(  4-C ,  6-H ) :   0.9163 B(  5-C ,  7-H ) :   0.9195
B( 11-C , 12-C ) :   1.2647 B( 11-C , 14-C ) :   1.3171 B( 11-C , 15-H ) :   0.9182
B( 12-C , 16-C ) :   1.3133 B( 12-C , 17-H ) :   0.9194 B( 13-C , 14-C ) :   1.2874
B( 13-C , 16-C ) :   1.2823 B( 13-C , 19-H ) :   0.9159 B( 14-C , 18-H ) :   0.9204
B( 16-C , 20-H ) :   0.9151 B( 21-C , 22-H ) :   0.9109 B( 21-C , 23-H ) :   0.9089
B( 21-C , 24-H ) :   0.9011 B( 25-C , 26-H ) :   0.8776 B( 25-C , 27-H ) :   0.9044
B( 25-C , 28-H ) :   0.9105 B( 25-C , 29-H ) :   0.9081

Dispersion correction           -0.017499368
FINAL SINGLE POINT ENERGY     -1702.383200922029
Dispersion correction            ... done

DIPOLE MOMENT
-------------
                                X             Y             Z
Electronic contribution:     -6.48715     -14.07475      12.70740
Nuclear contribution   :      6.65520      14.83218     -13.15572
                        -----------------------------------------
Total Dipole Moment    :      0.16805       0.75743      -0.44832
                        -----------------------------------------
Magnitude (a.u.)       :      0.89606
Magnitude (Debye)      :      2.27761

Rotational constants in cm-1:     0.028330     0.019702     0.017765
Rotational constants in MHz :   849.318373   590.645734   532.576416

                             ****ORCA TERMINATED NORMALLY****
TOTAL RUN TIME: 0 days 0 hours 8 minutes 30 seconds 996 msec
