                         Program Version 5.0.3 -  RELEASE  -
|  1> ! EnGrad PBEh-3c
|  2> %output
|  3> xyzfile=True
|  4> end
|  5> %scf
|  6> maxiter 250
|  7> end
|  8> %output
|  9> Print[P_Hirshfeld] = 1
| 10> end
| 11> % maxcore
| 12> 4000
| 13> *xyz 0 1
| 14> Lu   0.00344158  -0.33485035   0.27020473
| 15> C    0.52410293   0.55938916   2.64802888
| 16> C    1.62898550  -0.23386285   2.27334471
| 17> C    2.33215861   0.44692314   1.25835839
| 18> C    1.64622378   1.64086276   0.98000658
| 19> C    0.52682122   1.71008403   1.83890276
| 20> H    1.92863083   2.38886535   0.25443439
| 21> H   -0.14710110   2.54930131   1.93406453
| 22> H   -0.17778161   0.33480905   3.43455927
| 23> H    1.91596209  -1.17322174   2.72103436
| 24> H    3.26651179   0.13475802   0.81458313
| 25> C    0.70551818  -0.13192231  -2.28343045
| 26> C   -0.48813015  -0.88818867  -2.23704475
| 27> C    1.15738236  -2.10911059  -1.24573574
| 28> C    1.72363370  -0.89488937  -1.68487975
| 29> H    0.82121550   0.83824775  -2.74799984
| 30> C   -0.20794825  -2.11058122  -1.60469586
| 31> H   -1.42953322  -0.61801385  -2.68916325
| 32> H    2.76732428  -0.62272032  -1.61817968
| 33> H    1.68993687  -2.92398407  -0.78049141
| 34> H   -0.90740543  -2.91931539  -1.45337330
| 35> C   -1.96583625  -1.38836303   1.12362168
| 36> H   -2.33909639  -1.06257485   2.10212613
| 37> H   -1.94035998  -2.48747186   1.21503043
| 38> H   -2.82213930  -1.24168113   0.44526376
| 39> C   -2.02207230   2.06448472  -0.94404150
| 40> H   -2.24647099   1.28567037  -0.21669530
| 41> H   -1.01691056   2.46881307  -1.13744043
| 42> H   -2.58048793   2.95958059  -0.69625454
| 43> H   -2.34695338   1.75524380  -1.93007506
| 44> *
| 45>
| 46>                          ****END OF INPUT****

CARTESIAN COORDINATES (ANGSTROEM)
---------------------------------
  Lu     0.003442   -0.334850    0.270205
  C      0.524103    0.559389    2.648029
  C      1.628985   -0.233863    2.273345
  C      2.332159    0.446923    1.258358
  C      1.646224    1.640863    0.980007
  C      0.526821    1.710084    1.838903
  H      1.928631    2.388865    0.254434
  H     -0.147101    2.549301    1.934065
  H     -0.177782    0.334809    3.434559
  H      1.915962   -1.173222    2.721034
  H      3.266512    0.134758    0.814583
  C      0.705518   -0.131922   -2.283430
  C     -0.488130   -0.888189   -2.237045
  C      1.157382   -2.109111   -1.245736
  C      1.723634   -0.894889   -1.684880
  H      0.821215    0.838248   -2.748000
  C     -0.207948   -2.110581   -1.604696
  H     -1.429533   -0.618014   -2.689163
  H      2.767324   -0.622720   -1.618180
  H      1.689937   -2.923984   -0.780491
  H     -0.907405   -2.919315   -1.453373
  C     -1.965836   -1.388363    1.123622
  H     -2.339096   -1.062575    2.102126
  H     -1.940360   -2.487472    1.215030
  H     -2.822139   -1.241681    0.445264
  C     -2.022072    2.064485   -0.944041
  H     -2.246471    1.285670   -0.216695
  H     -1.016911    2.468813   -1.137440
  H     -2.580488    2.959581   -0.696255
  H     -2.346953    1.755244   -1.930075

 Total Charge           Charge          ....    0
 Multiplicity           Mult            ....    1
 Number of Electrons    NEL             ....  132
 Basis Dimension        Dim             ....  295

ORBITAL ENERGIES
----------------

  NO   OCC          E(Eh)            E(eV)
   0   2.0000     -19.252333      -523.8826
   1   2.0000     -12.624847      -343.5395
   2   2.0000     -12.622342      -343.4714
   3   2.0000     -12.621888      -343.4590
   4   2.0000     -10.445416      -284.2342
   5   2.0000     -10.445358      -284.2326
   6   2.0000     -10.444880      -284.2196
   7   2.0000     -10.444692      -284.2145
   8   2.0000     -10.444344      -284.2051
   9   2.0000     -10.444062      -284.1974
  10   2.0000     -10.442605      -284.1577
  11   2.0000     -10.441753      -284.1345
  12   2.0000     -10.441632      -284.1312
  13   2.0000     -10.441365      -284.1240
  14   2.0000     -10.440184      -284.0918
  15   2.0000     -10.362558      -281.9795
  16   2.0000      -5.893941      -160.3823
  17   2.0000      -5.893591      -160.3728
  18   2.0000      -5.893075      -160.3587
  19   2.0000      -5.891606      -160.3187
  20   2.0000      -5.891477      -160.3152
  21   2.0000      -2.435831       -66.2823
  22   2.0000      -1.273898       -34.6645
  23   2.0000      -1.273203       -34.6456
  24   2.0000      -1.262048       -34.3421
  25   2.0000      -0.978726       -26.6325
  26   2.0000      -0.970345       -26.4044
  27   2.0000      -0.807736       -21.9796
  28   2.0000      -0.793761       -21.5993
  29   2.0000      -0.791947       -21.5500
  30   2.0000      -0.790157       -21.5013
  31   2.0000      -0.789434       -21.4816
  32   2.0000      -0.700278       -19.0555
  33   2.0000      -0.613836       -16.7033
  34   2.0000      -0.611038       -16.6272
  35   2.0000      -0.608382       -16.5549
  36   2.0000      -0.608289       -16.5524
  37   2.0000      -0.595617       -16.2076
  38   2.0000      -0.590595       -16.0709
  39   2.0000      -0.561629       -15.2827
  40   2.0000      -0.560360       -15.2482
  41   2.0000      -0.560249       -15.2451
  42   2.0000      -0.559183       -15.2162
  43   2.0000      -0.558506       -15.1977
  44   2.0000      -0.557405       -15.1678
  45   2.0000      -0.555657       -15.1202
  46   2.0000      -0.502724       -13.6798
  47   2.0000      -0.471334       -12.8257
  48   2.0000      -0.466823       -12.7029
  49   2.0000      -0.454686       -12.3726
  50   2.0000      -0.451414       -12.2836
  51   2.0000      -0.449536       -12.2325
  52   2.0000      -0.447822       -12.1859
  53   2.0000      -0.447048       -12.1648
  54   2.0000      -0.432865       -11.7788
  55   2.0000      -0.431421       -11.7396
  56   2.0000      -0.430854       -11.7241
  57   2.0000      -0.429249       -11.6805
  58   2.0000      -0.426791       -11.6136
  59   2.0000      -0.389923       -10.6103
  60   2.0000      -0.384739       -10.4693
  61   2.0000      -0.291262        -7.9256
  62   2.0000      -0.283599        -7.7171
  63   2.0000      -0.277785        -7.5589
  64   2.0000      -0.263733        -7.1765
  65   2.0000      -0.260604        -7.0914
  66   0.0000      -0.013122        -0.3571
  67   0.0000       0.009760         0.2656
  68   0.0000       0.042752         1.1633
  69   0.0000       0.053213         1.4480
  70   0.0000       0.057562         1.5663

MULLIKEN ATOMIC CHARGES
-----------------------
   0 Lu:    0.865540
   1 C :   -0.257631
   2 C :   -0.323502
   3 C :   -0.266891
   4 C :   -0.272196
   5 C :   -0.316879
   6 H :    0.233176
   7 H :    0.236150
   8 H :    0.245920
   9 H :    0.243871
  10 H :    0.231211
  11 C :   -0.294530
  12 C :   -0.300316
  13 C :   -0.321911
  14 C :   -0.252227
  15 H :    0.230920
  16 C :   -0.251760
  17 H :    0.233164
  18 H :    0.228925
  19 H :    0.239301
  20 H :    0.246129
  21 C :   -1.078124
  22 H :    0.215496
  23 H :    0.218807
  24 H :    0.208274
  25 C :   -0.964453
  26 H :    0.261710
  27 H :    0.244890
  28 H :    0.260740
  29 H :    0.256197
Sum of atomic charges:    0.0000000

LOEWDIN ATOMIC CHARGES
----------------------
   0 Lu:    0.025445
   1 C :   -0.131952
   2 C :   -0.150479
   3 C :   -0.131478
   4 C :   -0.146778
   5 C :   -0.151484
   6 H :    0.150665
   7 H :    0.153304
   8 H :    0.159654
   9 H :    0.156742
  10 H :    0.150997
  11 C :   -0.152083
  12 C :   -0.148155
  13 C :   -0.152626
  14 C :   -0.128218
  15 H :    0.149860
  16 C :   -0.126404
  17 H :    0.152641
  18 H :    0.149976
  19 H :    0.154686
  20 H :    0.160067
  21 C :   -0.650459
  22 H :    0.129318
  23 H :    0.136716
  24 H :    0.131798
  25 C :   -0.504171
  26 H :    0.171028
  27 H :    0.153725
  28 H :    0.144614
  29 H :    0.143053

  Mayer bond orders larger than 0.100000
B(  0-Lu,  1-C ) :   0.2379 B(  0-Lu,  2-C ) :   0.2811 B(  0-Lu,  3-C ) :   0.2442
B(  0-Lu,  4-C ) :   0.2475 B(  0-Lu,  5-C ) :   0.2694 B(  0-Lu, 11-C ) :   0.2590
B(  0-Lu, 12-C ) :   0.2639 B(  0-Lu, 13-C ) :   0.2807 B(  0-Lu, 14-C ) :   0.2421
B(  0-Lu, 16-C ) :   0.2391 B(  0-Lu, 21-C ) :   0.8113 B(  1-C ,  2-C ) :   1.2841
B(  1-C ,  5-C ) :   1.3004 B(  1-C ,  8-H ) :   0.9150 B(  2-C ,  3-C ) :   1.2874
B(  2-C ,  9-H ) :   0.9133 B(  3-C ,  4-C ) :   1.3145 B(  3-C , 10-H ) :   0.9201
B(  4-C ,  5-C ) :   1.2771 B(  4-C ,  6-H ) :   0.9164 B(  5-C ,  7-H ) :   0.9194
B( 11-C , 12-C ) :   1.2678 B( 11-C , 14-C ) :   1.3154 B( 11-C , 15-H ) :   0.9183
B( 12-C , 16-C ) :   1.3116 B( 12-C , 17-H ) :   0.9192 B( 13-C , 14-C ) :   1.2884
B( 13-C , 16-C ) :   1.2813 B( 13-C , 19-H ) :   0.9160 B( 14-C , 18-H ) :   0.9208
B( 16-C , 20-H ) :   0.9146 B( 21-C , 22-H ) :   0.9108 B( 21-C , 23-H ) :   0.9083
B( 21-C , 24-H ) :   0.9011 B( 25-C , 26-H ) :   0.8779 B( 25-C , 27-H ) :   0.9035
B( 25-C , 28-H ) :   0.9120 B( 25-C , 29-H ) :   0.9093

Dispersion correction           -0.017502098
FINAL SINGLE POINT ENERGY     -1702.386077765658
Dispersion correction            ... done

DIPOLE MOMENT
-------------
                                X             Y             Z
Electronic contribution:     -6.81972     -14.17129      12.78061
Nuclear contribution   :      6.97867      14.91673     -13.21794
                        -----------------------------------------
Total Dipole Moment    :      0.15895       0.74544      -0.43733
                        -----------------------------------------
Magnitude (a.u.)       :      0.87875
Magnitude (Debye)      :      2.23361

Rotational constants in cm-1:     0.028284     0.019674     0.017757
Rotational constants in MHz :   847.942043   589.813335   532.331435

                             ****ORCA TERMINATED NORMALLY****
TOTAL RUN TIME: 0 days 0 hours 8 minutes 19 seconds 749 msec
