                         Program Version 5.0.3 -  RELEASE  -
|  1> ! EnGrad PBEh-3c
|  2> %output
|  3> xyzfile=True
|  4> end
|  5> %scf
|  6> maxiter 250
|  7> end
|  8> %output
|  9> Print[P_Hirshfeld] = 1
| 10> end
| 11> % maxcore
| 12> 4000
| 13> *xyz 0 1
| 14> Lu  -0.01744140  -0.33955636   0.27300991
| 15> C    0.51707512   0.59172887   2.64149089
| 16> C    1.60462688  -0.22706674   2.26816293
| 17> C    2.32694712   0.43419643   1.25374337
| 18> C    1.66792782   1.64473559   0.97447645
| 19> C    0.54598371   1.74221940   1.82784970
| 20> H    1.97613361   2.38532552   0.24841679
| 21> H   -0.12602744   2.58548804   1.89992231
| 22> H   -0.20033309   0.37594877   3.41632898
| 23> H    1.87425416  -1.17056899   2.72325159
| 24> H    3.25914735   0.10479261   0.82028943
| 25> C    0.72782433  -0.12395474  -2.29792840
| 26> C   -0.47342454  -0.87013042  -2.26596754
| 27> C    1.14171356  -2.09667461  -1.23592002
| 28> C    1.72867628  -0.89165589  -1.67518926
| 29> H    0.86397823   0.84206173  -2.76301063
| 30> C   -0.21761836  -2.09421153  -1.62151276
| 31> H   -1.41331314  -0.58237857  -2.71541220
| 32> H    2.77419899  -0.63252521  -1.60345618
| 33> H    1.66586145  -2.91989479  -0.76700727
| 34> H   -0.92944870  -2.88602262  -1.45928747
| 35> C   -1.96545766  -1.41029354   1.12168740
| 36> H   -2.31583628  -1.09407772   2.10736327
| 37> H   -1.90070031  -2.49921338   1.21230209
| 38> H   -2.84096971  -1.27251323   0.47822018
| 39> C   -2.03375391   2.07813676  -0.96259165
| 40> H   -2.19217321   1.32555111  -0.24659429
| 41> H   -1.05243354   2.36723529  -1.06193406
| 42> H   -2.60407459   2.91017082  -0.63306378
| 43> H   -2.38988891   1.71365376  -1.88552737
| 44> *
| 45>
| 46>                          ****END OF INPUT****

CARTESIAN COORDINATES (ANGSTROEM)
---------------------------------
  Lu    -0.017441   -0.339556    0.273010
  C      0.517075    0.591729    2.641491
  C      1.604627   -0.227067    2.268163
  C      2.326947    0.434196    1.253743
  C      1.667928    1.644736    0.974476
  C      0.545984    1.742219    1.827850
  H      1.976134    2.385326    0.248417
  H     -0.126027    2.585488    1.899922
  H     -0.200333    0.375949    3.416329
  H      1.874254   -1.170569    2.723252
  H      3.259147    0.104793    0.820289
  C      0.727824   -0.123955   -2.297928
  C     -0.473425   -0.870130   -2.265968
  C      1.141714   -2.096675   -1.235920
  C      1.728676   -0.891656   -1.675189
  H      0.863978    0.842062   -2.763011
  C     -0.217618   -2.094212   -1.621513
  H     -1.413313   -0.582379   -2.715412
  H      2.774199   -0.632525   -1.603456
  H      1.665861   -2.919895   -0.767007
  H     -0.929449   -2.886023   -1.459287
  C     -1.965458   -1.410294    1.121687
  H     -2.315836   -1.094078    2.107363
  H     -1.900700   -2.499213    1.212302
  H     -2.840970   -1.272513    0.478220
  C     -2.033754    2.078137   -0.962592
  H     -2.192173    1.325551   -0.246594
  H     -1.052434    2.367235   -1.061934
  H     -2.604075    2.910171   -0.633064
  H     -2.389889    1.713654   -1.885527

 Total Charge           Charge          ....    0
 Multiplicity           Mult            ....    1
 Number of Electrons    NEL             ....  132
 Basis Dimension        Dim             ....  295

ORBITAL ENERGIES
----------------

  NO   OCC          E(Eh)            E(eV)
   0   2.0000     -19.254446      -523.9401
   1   2.0000     -12.626963      -343.5971
   2   2.0000     -12.624471      -343.5293
   3   2.0000     -12.623994      -343.5163
   4   2.0000     -10.446027      -284.2508
   5   2.0000     -10.445604      -284.2393
   6   2.0000     -10.445529      -284.2373
   7   2.0000     -10.444988      -284.2226
   8   2.0000     -10.444905      -284.2203
   9   2.0000     -10.443105      -284.1713
  10   2.0000     -10.442980      -284.1679
  11   2.0000     -10.442087      -284.1436
  12   2.0000     -10.442072      -284.1432
  13   2.0000     -10.440629      -284.1040
  14   2.0000     -10.428141      -283.7641
  15   2.0000     -10.361418      -281.9485
  16   2.0000      -5.896067      -160.4401
  17   2.0000      -5.895724      -160.4308
  18   2.0000      -5.895198      -160.4165
  19   2.0000      -5.893735      -160.3767
  20   2.0000      -5.893599      -160.3730
  21   2.0000      -2.437911       -66.3389
  22   2.0000      -1.276008       -34.7219
  23   2.0000      -1.274687       -34.6860
  24   2.0000      -1.263970       -34.3944
  25   2.0000      -0.978113       -26.6158
  26   2.0000      -0.970150       -26.3991
  27   2.0000      -0.821298       -22.3487
  28   2.0000      -0.793943       -21.6043
  29   2.0000      -0.791784       -21.5455
  30   2.0000      -0.790177       -21.5018
  31   2.0000      -0.789218       -21.4757
  32   2.0000      -0.703569       -19.1451
  33   2.0000      -0.613801       -16.7024
  34   2.0000      -0.611598       -16.6424
  35   2.0000      -0.608914       -16.5694
  36   2.0000      -0.607935       -16.5428
  37   2.0000      -0.595486       -16.2040
  38   2.0000      -0.590604       -16.0711
  39   2.0000      -0.563771       -15.3410
  40   2.0000      -0.562446       -15.3049
  41   2.0000      -0.562330       -15.3018
  42   2.0000      -0.561341       -15.2749
  43   2.0000      -0.560598       -15.2546
  44   2.0000      -0.559548       -15.2261
  45   2.0000      -0.557758       -15.1774
  46   2.0000      -0.497505       -13.5378
  47   2.0000      -0.482886       -13.1400
  48   2.0000      -0.479011       -13.0346
  49   2.0000      -0.460419       -12.5286
  50   2.0000      -0.453505       -12.3405
  51   2.0000      -0.449738       -12.2380
  52   2.0000      -0.449218       -12.2238
  53   2.0000      -0.447869       -12.1871
  54   2.0000      -0.432927       -11.7805
  55   2.0000      -0.431650       -11.7458
  56   2.0000      -0.430727       -11.7207
  57   2.0000      -0.429310       -11.6821
  58   2.0000      -0.427197       -11.6246
  59   2.0000      -0.391158       -10.6439
  60   2.0000      -0.389819       -10.6075
  61   2.0000      -0.291848        -7.9416
  62   2.0000      -0.283450        -7.7131
  63   2.0000      -0.278476        -7.5777
  64   2.0000      -0.265089        -7.2134
  65   2.0000      -0.259840        -7.0706
  66   0.0000      -0.015540        -0.4229
  67   0.0000       0.010179         0.2770
  68   0.0000       0.043878         1.1940
  69   0.0000       0.052445         1.4271
  70   0.0000       0.058075         1.5803

MULLIKEN ATOMIC CHARGES
-----------------------
   0 Lu:    0.867233
   1 C :   -0.259855
   2 C :   -0.331857
   3 C :   -0.266186
   4 C :   -0.270282
   5 C :   -0.315221
   6 H :    0.232280
   7 H :    0.236232
   8 H :    0.247154
   9 H :    0.244798
  10 H :    0.231213
  11 C :   -0.291970
  12 C :   -0.300941
  13 C :   -0.335415
  14 C :   -0.247840
  15 H :    0.231844
  16 C :   -0.248478
  17 H :    0.232461
  18 H :    0.228554
  19 H :    0.239647
  20 H :    0.249049
  21 C :   -1.085862
  22 H :    0.217471
  23 H :    0.221102
  24 H :    0.214063
  25 C :   -0.967330
  26 H :    0.256744
  27 H :    0.253336
  28 H :    0.260331
  29 H :    0.257722
Sum of atomic charges:   -0.0000000

LOEWDIN ATOMIC CHARGES
----------------------
   0 Lu:    0.044607
   1 C :   -0.135493
   2 C :   -0.152401
   3 C :   -0.132876
   4 C :   -0.146919
   5 C :   -0.152992
   6 H :    0.150075
   7 H :    0.152409
   8 H :    0.159718
   9 H :    0.157255
  10 H :    0.151000
  11 C :   -0.152384
  12 C :   -0.148866
  13 C :   -0.154659
  14 C :   -0.128097
  15 H :    0.149833
  16 C :   -0.128471
  17 H :    0.151699
  18 H :    0.149772
  19 H :    0.155207
  20 H :    0.160899
  21 C :   -0.652339
  22 H :    0.130838
  23 H :    0.138083
  24 H :    0.134057
  25 C :   -0.496311
  26 H :    0.158929
  27 H :    0.146824
  28 H :    0.145914
  29 H :    0.144691

  Mayer bond orders larger than 0.100000
B(  0-Lu,  1-C ) :   0.2385 B(  0-Lu,  2-C ) :   0.2854 B(  0-Lu,  3-C ) :   0.2414
B(  0-Lu,  4-C ) :   0.2402 B(  0-Lu,  5-C ) :   0.2651 B(  0-Lu, 11-C ) :   0.2535
B(  0-Lu, 12-C ) :   0.2617 B(  0-Lu, 13-C ) :   0.2879 B(  0-Lu, 14-C ) :   0.2396
B(  0-Lu, 16-C ) :   0.2399 B(  0-Lu, 21-C ) :   0.8171 B(  1-C ,  2-C ) :   1.2819
B(  1-C ,  5-C ) :   1.3012 B(  1-C ,  8-H ) :   0.9132 B(  2-C ,  3-C ) :   1.2855
B(  2-C ,  9-H ) :   0.9128 B(  3-C ,  4-C ) :   1.3178 B(  3-C , 10-H ) :   0.9205
B(  4-C ,  5-C ) :   1.2824 B(  4-C ,  6-H ) :   0.9171 B(  5-C ,  7-H ) :   0.9179
B( 11-C , 12-C ) :   1.2712 B( 11-C , 14-C ) :   1.3189 B( 11-C , 15-H ) :   0.9181
B( 12-C , 16-C ) :   1.3128 B( 12-C , 17-H ) :   0.9181 B( 13-C , 14-C ) :   1.2860
B( 13-C , 16-C ) :   1.2763 B( 13-C , 19-H ) :   0.9162 B( 14-C , 18-H ) :   0.9215
B( 16-C , 20-H ) :   0.9120 B( 21-C , 22-H ) :   0.9098 B( 21-C , 23-H ) :   0.9061
B( 21-C , 24-H ) :   0.9015 B( 25-C , 26-H ) :   0.8770 B( 25-C , 27-H ) :   0.8997
B( 25-C , 28-H ) :   0.9163 B( 25-C , 29-H ) :   0.9137

Dispersion correction           -0.017516832
FINAL SINGLE POINT ENERGY     -1702.385178695209
Dispersion correction            ... done

DIPOLE MOMENT
-------------
                                X             Y             Z
Electronic contribution:     -7.90140     -14.59539      13.06130
Nuclear contribution   :      8.03083      15.28823     -13.44633
                        -----------------------------------------
Total Dipole Moment    :      0.12943       0.69285      -0.38503
                        -----------------------------------------
Magnitude (a.u.)       :      0.80314
Magnitude (Debye)      :      2.04142

Rotational constants in cm-1:     0.028127     0.019583     0.017736
Rotational constants in MHz :   843.218995   587.072078   531.700881

                             ****ORCA TERMINATED NORMALLY****
TOTAL RUN TIME: 0 days 0 hours 8 minutes 31 seconds 176 msec
