                         Program Version 5.0.3 -  RELEASE  -
|  1> ! EnGrad PBEh-3c
|  2> %output
|  3> xyzfile=True
|  4> end
|  5> %scf
|  6> maxiter 250
|  7> end
|  8> %output
|  9> Print[P_Hirshfeld] = 1
| 10> end
| 11> % maxcore
| 12> 4000
| 13> *xyz 0 1
| 14> Lu  -0.01086722  -0.34031914   0.27200847
| 15> C    0.51390877   0.59316290   2.64081965
| 16> C    1.60165889  -0.22577305   2.26761166
| 17> C    2.32582994   0.43285323   1.25388560
| 18> C    1.66846734   1.64362969   0.97067642
| 19> C    0.54663623   1.74723486   1.82534338
| 20> H    1.98317198   2.38456401   0.24825405
| 21> H   -0.12255008   2.58925714   1.89453345
| 22> H   -0.20351097   0.38223670   3.41318337
| 23> H    1.86833972  -1.17058297   2.72427898
| 24> H    3.25610828   0.09986890   0.82014544
| 25> C    0.72908890  -0.11932986  -2.29856921
| 26> C   -0.47406577  -0.86682089  -2.26942444
| 27> C    1.13891941  -2.09512648  -1.23501499
| 28> C    1.73129866  -0.89197148  -1.67243974
| 29> H    0.87008864   0.84065241  -2.76439847
| 30> C   -0.21879214  -2.09286498  -1.62297652
| 31> H   -1.41036873  -0.57709236  -2.71853714
| 32> H    2.77272149  -0.63351304  -1.59998238
| 33> H    1.66235262  -2.91941007  -0.76410141
| 34> H   -0.93219730  -2.88020341  -1.45988138
| 35> C   -1.96679482  -1.41208505   1.12179343
| 36> H   -2.31095837  -1.09594377   2.11079426
| 37> H   -1.89203628  -2.50150069   1.20994669
| 38> H   -2.84450344  -1.27503328   0.48094751
| 39> C   -2.04882079   2.08632640  -0.97192512
| 40> H   -2.18682179   1.30752428  -0.23000214
| 41> H   -1.02683793   2.36067630  -1.05295843
| 42> H   -2.61471404   2.91365937  -0.62179436
| 43> H   -2.40233105   1.70410985  -1.89335091
| 44> *
| 45>
| 46>                          ****END OF INPUT****

CARTESIAN COORDINATES (ANGSTROEM)
---------------------------------
  Lu    -0.010867   -0.340319    0.272008
  C      0.513909    0.593163    2.640820
  C      1.601659   -0.225773    2.267612
  C      2.325830    0.432853    1.253886
  C      1.668467    1.643630    0.970676
  C      0.546636    1.747235    1.825343
  H      1.983172    2.384564    0.248254
  H     -0.122550    2.589257    1.894533
  H     -0.203511    0.382237    3.413183
  H      1.868340   -1.170583    2.724279
  H      3.256108    0.099869    0.820145
  C      0.729089   -0.119330   -2.298569
  C     -0.474066   -0.866821   -2.269424
  C      1.138919   -2.095126   -1.235015
  C      1.731299   -0.891971   -1.672440
  H      0.870089    0.840652   -2.764398
  C     -0.218792   -2.092865   -1.622977
  H     -1.410369   -0.577092   -2.718537
  H      2.772721   -0.633513   -1.599982
  H      1.662353   -2.919410   -0.764101
  H     -0.932197   -2.880203   -1.459881
  C     -1.966795   -1.412085    1.121793
  H     -2.310958   -1.095944    2.110794
  H     -1.892036   -2.501501    1.209947
  H     -2.844503   -1.275033    0.480948
  C     -2.048821    2.086326   -0.971925
  H     -2.186822    1.307524   -0.230002
  H     -1.026838    2.360676   -1.052958
  H     -2.614714    2.913659   -0.621794
  H     -2.402331    1.704110   -1.893351

 Total Charge           Charge          ....    0
 Multiplicity           Mult            ....    1
 Number of Electrons    NEL             ....  132
 Basis Dimension        Dim             ....  295

ORBITAL ENERGIES
----------------

  NO   OCC          E(Eh)            E(eV)
   0   2.0000     -19.254136      -523.9317
   1   2.0000     -12.626659      -343.5889
   2   2.0000     -12.624159      -343.5208
   3   2.0000     -12.623676      -343.5077
   4   2.0000     -10.446559      -284.2653
   5   2.0000     -10.445985      -284.2497
   6   2.0000     -10.445937      -284.2484
   7   2.0000     -10.445334      -284.2320
   8   2.0000     -10.445313      -284.2314
   9   2.0000     -10.443731      -284.1884
  10   2.0000     -10.443444      -284.1806
  11   2.0000     -10.442568      -284.1567
  12   2.0000     -10.442510      -284.1552
  13   2.0000     -10.440953      -284.1128
  14   2.0000     -10.435870      -283.9745
  15   2.0000     -10.361446      -281.9493
  16   2.0000      -5.895756      -160.4317
  17   2.0000      -5.895415      -160.4224
  18   2.0000      -5.894885      -160.4080
  19   2.0000      -5.893414      -160.3679
  20   2.0000      -5.893282      -160.3644
  21   2.0000      -2.437608       -66.3307
  22   2.0000      -1.275765       -34.7153
  23   2.0000      -1.274515       -34.6813
  24   2.0000      -1.263640       -34.3854
  25   2.0000      -0.977716       -26.6050
  26   2.0000      -0.969542       -26.3826
  27   2.0000      -0.814615       -22.1668
  28   2.0000      -0.794062       -21.6075
  29   2.0000      -0.792167       -21.5560
  30   2.0000      -0.790395       -21.5077
  31   2.0000      -0.789391       -21.4804
  32   2.0000      -0.702466       -19.1151
  33   2.0000      -0.614506       -16.7215
  34   2.0000      -0.612446       -16.6655
  35   2.0000      -0.609587       -16.5877
  36   2.0000      -0.608330       -16.5535
  37   2.0000      -0.595916       -16.2157
  38   2.0000      -0.591089       -16.0843
  39   2.0000      -0.563481       -15.3331
  40   2.0000      -0.562126       -15.2962
  41   2.0000      -0.562006       -15.2930
  42   2.0000      -0.561034       -15.2665
  43   2.0000      -0.560287       -15.2462
  44   2.0000      -0.559234       -15.2175
  45   2.0000      -0.557437       -15.1686
  46   2.0000      -0.486234       -13.2311
  47   2.0000      -0.485501       -13.2111
  48   2.0000      -0.476511       -12.9665
  49   2.0000      -0.459991       -12.5170
  50   2.0000      -0.454017       -12.3544
  51   2.0000      -0.450218       -12.2511
  52   2.0000      -0.449777       -12.2391
  53   2.0000      -0.448588       -12.2067
  54   2.0000      -0.433372       -11.7926
  55   2.0000      -0.431718       -11.7476
  56   2.0000      -0.431307       -11.7365
  57   2.0000      -0.428848       -11.6696
  58   2.0000      -0.427519       -11.6334
  59   2.0000      -0.390682       -10.6310
  60   2.0000      -0.389498       -10.5988
  61   2.0000      -0.291727        -7.9383
  62   2.0000      -0.283991        -7.7278
  63   2.0000      -0.278850        -7.5879
  64   2.0000      -0.263977        -7.1832
  65   2.0000      -0.259695        -7.0667
  66   0.0000      -0.016002        -0.4354
  67   0.0000       0.009354         0.2545
  68   0.0000       0.043325         1.1789
  69   0.0000       0.052491         1.4283
  70   0.0000       0.057829         1.5736

MULLIKEN ATOMIC CHARGES
-----------------------
   0 Lu:    0.858820
   1 C :   -0.261447
   2 C :   -0.332019
   3 C :   -0.263906
   4 C :   -0.274577
   5 C :   -0.310634
   6 H :    0.232423
   7 H :    0.236526
   8 H :    0.247343
   9 H :    0.245207
  10 H :    0.231808
  11 C :   -0.294693
  12 C :   -0.298342
  13 C :   -0.336948
  14 C :   -0.247423
  15 H :    0.232390
  16 C :   -0.247004
  17 H :    0.232174
  18 H :    0.229139
  19 H :    0.240092
  20 H :    0.249698
  21 C :   -1.081590
  22 H :    0.216372
  23 H :    0.219458
  24 H :    0.213736
  25 C :   -0.951164
  26 H :    0.249245
  27 H :    0.245343
  28 H :    0.261304
  29 H :    0.258670
Sum of atomic charges:   -0.0000000

LOEWDIN ATOMIC CHARGES
----------------------
   0 Lu:    0.036639
   1 C :   -0.135079
   2 C :   -0.151910
   3 C :   -0.132739
   4 C :   -0.146805
   5 C :   -0.151720
   6 H :    0.150264
   7 H :    0.152296
   8 H :    0.159704
   9 H :    0.157529
  10 H :    0.151256
  11 C :   -0.152219
  12 C :   -0.147462
  13 C :   -0.154301
  14 C :   -0.127970
  15 H :    0.149835
  16 C :   -0.128157
  17 H :    0.151445
  18 H :    0.149843
  19 H :    0.155490
  20 H :    0.161032
  21 C :   -0.652470
  22 H :    0.130344
  23 H :    0.137453
  24 H :    0.133580
  25 C :   -0.491772
  26 H :    0.159227
  27 H :    0.146930
  28 H :    0.145235
  29 H :    0.144503

  Mayer bond orders larger than 0.100000
B(  0-Lu,  1-C ) :   0.2391 B(  0-Lu,  2-C ) :   0.2861 B(  0-Lu,  3-C ) :   0.2430
B(  0-Lu,  4-C ) :   0.2416 B(  0-Lu,  5-C ) :   0.2648 B(  0-Lu, 11-C ) :   0.2548
B(  0-Lu, 12-C ) :   0.2607 B(  0-Lu, 13-C ) :   0.2889 B(  0-Lu, 14-C ) :   0.2418
B(  0-Lu, 16-C ) :   0.2398 B(  0-Lu, 21-C ) :   0.8173 B(  1-C ,  2-C ) :   1.2818
B(  1-C ,  5-C ) :   1.3009 B(  1-C ,  8-H ) :   0.9134 B(  2-C ,  3-C ) :   1.2846
B(  2-C ,  9-H ) :   0.9125 B(  3-C ,  4-C ) :   1.3157 B(  3-C , 10-H ) :   0.9201
B(  4-C ,  5-C ) :   1.2832 B(  4-C ,  6-H ) :   0.9175 B(  5-C ,  7-H ) :   0.9179
B( 11-C , 12-C ) :   1.2726 B( 11-C , 14-C ) :   1.3162 B( 11-C , 15-H ) :   0.9184
B( 12-C , 16-C ) :   1.3128 B( 12-C , 17-H ) :   0.9183 B( 13-C , 14-C ) :   1.2851
B( 13-C , 16-C ) :   1.2758 B( 13-C , 19-H ) :   0.9159 B( 14-C , 18-H ) :   0.9214
B( 16-C , 20-H ) :   0.9116 B( 21-C , 22-H ) :   0.9102 B( 21-C , 23-H ) :   0.9062
B( 21-C , 24-H ) :   0.9024 B( 25-C , 26-H ) :   0.8773 B( 25-C , 27-H ) :   0.9017
B( 25-C , 28-H ) :   0.9135 B( 25-C , 29-H ) :   0.9111

Dispersion correction           -0.017521363
FINAL SINGLE POINT ENERGY     -1702.388668380245
Dispersion correction            ... done

DIPOLE MOMENT
-------------
                                X             Y             Z
Electronic contribution:     -7.52395     -14.66255      13.02987
Nuclear contribution   :      7.67547      15.35204     -13.41267
                        -----------------------------------------
Total Dipole Moment    :      0.15151       0.68948      -0.38280
                        -----------------------------------------
Magnitude (a.u.)       :      0.80304
Magnitude (Debye)      :      2.04117

Rotational constants in cm-1:     0.028075     0.019577     0.017729
Rotational constants in MHz :   841.669791   586.905471   531.496338

                             ****ORCA TERMINATED NORMALLY****
TOTAL RUN TIME: 0 days 0 hours 8 minutes 23 seconds 531 msec
