                         Program Version 5.0.3 -  RELEASE  -
|  1> ! EnGrad PBEh-3c
|  2> %output
|  3> xyzfile=True
|  4> end
|  5> %scf
|  6> maxiter 250
|  7> end
|  8> %output
|  9> Print[P_Hirshfeld] = 1
| 10> end
| 11> % maxcore
| 12> 4000
| 13> *xyz 0 1
| 14> Lu  -0.00470931  -0.34124827   0.27079707
| 15> C    0.51054992   0.60003985   2.63632847
| 16> C    1.59604418  -0.22463377   2.26779039
| 17> C    2.32338248   0.43085184   1.25379728
| 18> C    1.67050626   1.64275738   0.96606185
| 19> C    0.55033648   1.75187151   1.82173129
| 20> H    1.99539388   2.38323259   0.24761652
| 21> H   -0.11739186   2.59792063   1.88542503
| 22> H   -0.21006465   0.39278700   3.40897811
| 23> H    1.85763400  -1.16971747   2.72533714
| 24> H    3.25201530   0.09137326   0.82023753
| 25> C    0.73316550  -0.11792891  -2.29780842
| 26> C   -0.47107687  -0.86195234  -2.27440777
| 27> C    1.13579687  -2.09366359  -1.23288417
| 28> C    1.72969225  -0.89103869  -1.66998260
| 29> H    0.88105894   0.84130739  -2.76832747
| 30> C   -0.22047304  -2.08642246  -1.62709130
| 31> H   -1.40644632  -0.56762255  -2.72501920
| 32> H    2.77359453  -0.63510583  -1.59418828
| 33> H    1.65546246  -2.91765753  -0.75977974
| 34> H   -0.93813422  -2.87160113  -1.46094744
| 35> C   -1.96722396  -1.41501335   1.12202713
| 36> H   -2.30316614  -1.10072900   2.11579465
| 37> H   -1.87869491  -2.50558100   1.20659463
| 38> H   -2.85096913  -1.28051423   0.48660580
| 39> C   -2.05806671   2.08565397  -0.97227256
| 40> H   -2.17662574   1.29452370  -0.21877827
| 41> H   -1.00684491   2.34584500  -1.03875379
| 42> H   -2.63004953   2.91667984  -0.60393602
| 43> H   -2.42092845   1.69043364  -1.90152403
| 44> *
| 45>
| 46>                          ****END OF INPUT****

CARTESIAN COORDINATES (ANGSTROEM)
---------------------------------
  Lu    -0.004709   -0.341248    0.270797
  C      0.510550    0.600040    2.636328
  C      1.596044   -0.224634    2.267790
  C      2.323382    0.430852    1.253797
  C      1.670506    1.642757    0.966062
  C      0.550336    1.751872    1.821731
  H      1.995394    2.383233    0.247617
  H     -0.117392    2.597921    1.885425
  H     -0.210065    0.392787    3.408978
  H      1.857634   -1.169717    2.725337
  H      3.252015    0.091373    0.820238
  C      0.733166   -0.117929   -2.297808
  C     -0.471077   -0.861952   -2.274408
  C      1.135797   -2.093664   -1.232884
  C      1.729692   -0.891039   -1.669983
  H      0.881059    0.841307   -2.768327
  C     -0.220473   -2.086422   -1.627091
  H     -1.406446   -0.567623   -2.725019
  H      2.773595   -0.635106   -1.594188
  H      1.655462   -2.917658   -0.759780
  H     -0.938134   -2.871601   -1.460947
  C     -1.967224   -1.415013    1.122027
  H     -2.303166   -1.100729    2.115795
  H     -1.878695   -2.505581    1.206595
  H     -2.850969   -1.280514    0.486606
  C     -2.058067    2.085654   -0.972273
  H     -2.176626    1.294524   -0.218778
  H     -1.006845    2.345845   -1.038754
  H     -2.630050    2.916680   -0.603936
  H     -2.420928    1.690434   -1.901524

 Total Charge           Charge          ....    0
 Multiplicity           Mult            ....    1
 Number of Electrons    NEL             ....  132
 Basis Dimension        Dim             ....  295

ORBITAL ENERGIES
----------------

  NO   OCC          E(Eh)            E(eV)
   0   2.0000     -19.253978      -523.9274
   1   2.0000     -12.626501      -343.5846
   2   2.0000     -12.624000      -343.5165
   3   2.0000     -12.623512      -343.5032
   4   2.0000     -10.447030      -284.2781
   5   2.0000     -10.446246      -284.2568
   6   2.0000     -10.446004      -284.2502
   7   2.0000     -10.445617      -284.2397
   8   2.0000     -10.445323      -284.2317
   9   2.0000     -10.443923      -284.1936
  10   2.0000     -10.443684      -284.1871
  11   2.0000     -10.442849      -284.1644
  12   2.0000     -10.442826      -284.1638
  13   2.0000     -10.442500      -284.1549
  14   2.0000     -10.441146      -284.1180
  15   2.0000     -10.361836      -281.9599
  16   2.0000      -5.895593      -160.4272
  17   2.0000      -5.895256      -160.4181
  18   2.0000      -5.894721      -160.4035
  19   2.0000      -5.893247      -160.3634
  20   2.0000      -5.893119      -160.3599
  21   2.0000      -2.437464       -66.3268
  22   2.0000      -1.275680       -34.7130
  23   2.0000      -1.274560       -34.6825
  24   2.0000      -1.263500       -34.3816
  25   2.0000      -0.978483       -26.6259
  26   2.0000      -0.970259       -26.4021
  27   2.0000      -0.808970       -22.0132
  28   2.0000      -0.794447       -21.6180
  29   2.0000      -0.792564       -21.5668
  30   2.0000      -0.790650       -21.5147
  31   2.0000      -0.789797       -21.4915
  32   2.0000      -0.701257       -19.0822
  33   2.0000      -0.614564       -16.7231
  34   2.0000      -0.612572       -16.6689
  35   2.0000      -0.609696       -16.5907
  36   2.0000      -0.608492       -16.5579
  37   2.0000      -0.596194       -16.2233
  38   2.0000      -0.591212       -16.0877
  39   2.0000      -0.563336       -15.3292
  40   2.0000      -0.561960       -15.2917
  41   2.0000      -0.561832       -15.2882
  42   2.0000      -0.560872       -15.2621
  43   2.0000      -0.560117       -15.2416
  44   2.0000      -0.559079       -15.2133
  45   2.0000      -0.557258       -15.1638
  46   2.0000      -0.484089       -13.1727
  47   2.0000      -0.481591       -13.1048
  48   2.0000      -0.472564       -12.8591
  49   2.0000      -0.460087       -12.5196
  50   2.0000      -0.454065       -12.3557
  51   2.0000      -0.450595       -12.2613
  52   2.0000      -0.449829       -12.2405
  53   2.0000      -0.448856       -12.2140
  54   2.0000      -0.433518       -11.7966
  55   2.0000      -0.432189       -11.7604
  56   2.0000      -0.431366       -11.7381
  57   2.0000      -0.429319       -11.6824
  58   2.0000      -0.427904       -11.6438
  59   2.0000      -0.390115       -10.6156
  60   2.0000      -0.389235       -10.5916
  61   2.0000      -0.292118        -7.9489
  62   2.0000      -0.284431        -7.7398
  63   2.0000      -0.279157        -7.5962
  64   2.0000      -0.263513        -7.1706
  65   2.0000      -0.259630        -7.0649
  66   0.0000      -0.016605        -0.4518
  67   0.0000       0.008967         0.2440
  68   0.0000       0.042861         1.1663
  69   0.0000       0.052510         1.4289
  70   0.0000       0.057442         1.5631

MULLIKEN ATOMIC CHARGES
-----------------------
   0 Lu:    0.851114
   1 C :   -0.262969
   2 C :   -0.332600
   3 C :   -0.262443
   4 C :   -0.278875
   5 C :   -0.304673
   6 H :    0.232534
   7 H :    0.236639
   8 H :    0.247409
   9 H :    0.245851
  10 H :    0.232287
  11 C :   -0.296163
  12 C :   -0.294398
  13 C :   -0.339248
  14 C :   -0.246845
  15 H :    0.232525
  16 C :   -0.246489
  17 H :    0.231737
  18 H :    0.229323
  19 H :    0.240784
  20 H :    0.250199
  21 C :   -1.077297
  22 H :    0.215328
  23 H :    0.217573
  24 H :    0.213287
  25 C :   -0.939114
  26 H :    0.247749
  27 H :    0.240402
  28 H :    0.259712
  29 H :    0.256662
Sum of atomic charges:    0.0000000

LOEWDIN ATOMIC CHARGES
----------------------
   0 Lu:    0.029897
   1 C :   -0.134778
   2 C :   -0.152053
   3 C :   -0.132105
   4 C :   -0.147255
   5 C :   -0.150269
   6 H :    0.150578
   7 H :    0.152345
   8 H :    0.159897
   9 H :    0.157910
  10 H :    0.151385
  11 C :   -0.152158
  12 C :   -0.146457
  13 C :   -0.155022
  14 C :   -0.127489
  15 H :    0.150117
  16 C :   -0.127415
  17 H :    0.151435
  18 H :    0.149991
  19 H :    0.155917
  20 H :    0.161188
  21 C :   -0.652444
  22 H :    0.129890
  23 H :    0.136886
  24 H :    0.133126
  25 C :   -0.489141
  26 H :    0.158678
  27 H :    0.146980
  28 H :    0.145386
  29 H :    0.144982

  Mayer bond orders larger than 0.100000
B(  0-Lu,  1-C ) :   0.2392 B(  0-Lu,  2-C ) :   0.2878 B(  0-Lu,  3-C ) :   0.2447
B(  0-Lu,  4-C ) :   0.2430 B(  0-Lu,  5-C ) :   0.2634 B(  0-Lu, 11-C ) :   0.2553
B(  0-Lu, 12-C ) :   0.2593 B(  0-Lu, 13-C ) :   0.2917 B(  0-Lu, 14-C ) :   0.2436
B(  0-Lu, 16-C ) :   0.2396 B(  0-Lu, 21-C ) :   0.8174 B(  1-C ,  2-C ) :   1.2802
B(  1-C ,  5-C ) :   1.3028 B(  1-C ,  8-H ) :   0.9134 B(  2-C ,  3-C ) :   1.2839
B(  2-C ,  9-H ) :   0.9121 B(  3-C ,  4-C ) :   1.3144 B(  3-C , 10-H ) :   0.9196
B(  4-C ,  5-C ) :   1.2828 B(  4-C ,  6-H ) :   0.9181 B(  5-C ,  7-H ) :   0.9175
B( 11-C , 12-C ) :   1.2719 B( 11-C , 14-C ) :   1.3164 B( 11-C , 15-H ) :   0.9186
B( 12-C , 16-C ) :   1.3151 B( 12-C , 17-H ) :   0.9183 B( 13-C , 14-C ) :   1.2828
B( 13-C , 16-C ) :   1.2747 B( 13-C , 19-H ) :   0.9156 B( 14-C , 18-H ) :   0.9212
B( 16-C , 20-H ) :   0.9109 B( 21-C , 22-H ) :   0.9105 B( 21-C , 23-H ) :   0.9062
B( 21-C , 24-H ) :   0.9034 B( 25-C , 26-H ) :   0.8744 B( 25-C , 27-H ) :   0.9019
B( 25-C , 28-H ) :   0.9126 B( 25-C , 29-H ) :   0.9109

Dispersion correction           -0.017534082
FINAL SINGLE POINT ENERGY     -1702.389773189317
Dispersion correction            ... done

DIPOLE MOMENT
-------------
                                X             Y             Z
Electronic contribution:     -7.18163     -14.73591      12.98332
Nuclear contribution   :      7.35213      15.42176     -13.36163
                        -----------------------------------------
Total Dipole Moment    :      0.17050       0.68585      -0.37831
                        -----------------------------------------
Magnitude (a.u.)       :      0.80161
Magnitude (Debye)      :      2.03754

Rotational constants in cm-1:     0.028088     0.019589     0.017741
Rotational constants in MHz :   842.071312   587.267008   531.873454

                             ****ORCA TERMINATED NORMALLY****
TOTAL RUN TIME: 0 days 0 hours 8 minutes 23 seconds 270 msec
