                         Program Version 5.0.3 -  RELEASE  -
|  1> ! EnGrad PBEh-3c
|  2> %output
|  3> xyzfile=True
|  4> end
|  5> %scf
|  6> maxiter 250
|  7> end
|  8> %output
|  9> Print[P_Hirshfeld] = 1
| 10> end
| 11> % maxcore
| 12> 4000
| 13> *xyz 0 1
| 14> Lu   0.01124606  -0.34300019   0.26615883
| 15> C    0.49788178   0.62341223   2.62211143
| 16> C    1.57668616  -0.21963129   2.26865564
| 17> C    2.31540761   0.42289262   1.25404658
| 18> C    1.68042912   1.63997696   0.95149481
| 19> C    0.56099523   1.76883375   1.80617696
| 20> H    2.03604005   2.37800224   0.24573090
| 21> H   -0.09787465   2.62627809   1.85484885
| 22> H   -0.23163253   0.42974097   3.39319306
| 23> H    1.82044538  -1.16619916   2.72880043
| 24> H    3.23789678   0.06273505   0.82077551
| 25> C    0.74838486  -0.11034625  -2.29772056
| 26> C   -0.46238213  -0.84394211  -2.29060830
| 27> C    1.12494395  -2.08898347  -1.22737372
| 28> C    1.72822904  -0.88914433  -1.66088916
| 29> H    0.91806081   0.84211171  -2.78098462
| 30> C   -0.22743213  -2.06553543  -1.63940070
| 31> H   -1.39116112  -0.53586767  -2.74739799
| 32> H    2.77546890  -0.64074636  -1.57431974
| 33> H    1.63103851  -2.91121306  -0.74484679
| 34> H   -0.95808452  -2.84146721  -1.46584404
| 35> C   -1.96547715  -1.42245608   1.12346565
| 36> H   -2.27627463  -1.11888165   2.13223567
| 37> H   -1.83600338  -2.51780912   1.19424098
| 38> H   -2.87302342  -1.30025312   0.50775236
| 39> C   -2.07068255   2.05972054  -0.95105128
| 40> H   -2.14857585   1.26410337  -0.19812057
| 41> H   -0.97725445   2.30082492  -1.00284591
| 42> H   -2.66646399   2.91218340  -0.55402786
| 43> H   -2.47242454   1.65834640  -1.90893293
| 44> *
| 45>
| 46>                          ****END OF INPUT****

CARTESIAN COORDINATES (ANGSTROEM)
---------------------------------
  Lu     0.011246   -0.343000    0.266159
  C      0.497882    0.623412    2.622111
  C      1.576686   -0.219631    2.268656
  C      2.315408    0.422893    1.254047
  C      1.680429    1.639977    0.951495
  C      0.560995    1.768834    1.806177
  H      2.036040    2.378002    0.245731
  H     -0.097875    2.626278    1.854849
  H     -0.231633    0.429741    3.393193
  H      1.820445   -1.166199    2.728800
  H      3.237897    0.062735    0.820776
  C      0.748385   -0.110346   -2.297721
  C     -0.462382   -0.843942   -2.290608
  C      1.124944   -2.088983   -1.227374
  C      1.728229   -0.889144   -1.660889
  H      0.918061    0.842112   -2.780985
  C     -0.227432   -2.065535   -1.639401
  H     -1.391161   -0.535868   -2.747398
  H      2.775469   -0.640746   -1.574320
  H      1.631039   -2.911213   -0.744847
  H     -0.958085   -2.841467   -1.465844
  C     -1.965477   -1.422456    1.123466
  H     -2.276275   -1.118882    2.132236
  H     -1.836003   -2.517809    1.194241
  H     -2.873023   -1.300253    0.507752
  C     -2.070683    2.059721   -0.951051
  H     -2.148576    1.264103   -0.198121
  H     -0.977254    2.300825   -1.002846
  H     -2.666464    2.912183   -0.554028
  H     -2.472425    1.658346   -1.908933

 Total Charge           Charge          ....    0
 Multiplicity           Mult            ....    1
 Number of Electrons    NEL             ....  132
 Basis Dimension        Dim             ....  295

ORBITAL ENERGIES
----------------

  NO   OCC          E(Eh)            E(eV)
   0   2.0000     -19.253439      -523.9127
   1   2.0000     -12.625965      -343.5700
   2   2.0000     -12.623456      -343.5017
   3   2.0000     -12.622954      -343.4880
   4   2.0000     -10.454314      -284.4763
   5   2.0000     -10.448312      -284.3130
   6   2.0000     -10.446922      -284.2752
   7   2.0000     -10.446306      -284.2584
   8   2.0000     -10.446277      -284.2576
   9   2.0000     -10.445525      -284.2372
  10   2.0000     -10.444606      -284.2122
  11   2.0000     -10.444399      -284.2066
  12   2.0000     -10.443758      -284.1891
  13   2.0000     -10.442548      -284.1562
  14   2.0000     -10.441747      -284.1344
  15   2.0000     -10.363548      -282.0065
  16   2.0000      -5.895043      -160.4123
  17   2.0000      -5.894713      -160.4033
  18   2.0000      -5.894166      -160.3884
  19   2.0000      -5.892680      -160.3480
  20   2.0000      -5.892562      -160.3448
  21   2.0000      -2.436974       -66.3134
  22   2.0000      -1.275394       -34.7052
  23   2.0000      -1.274590       -34.6834
  24   2.0000      -1.263072       -34.3699
  25   2.0000      -0.979863       -26.6634
  26   2.0000      -0.971365       -26.4322
  27   2.0000      -0.799713       -21.7613
  28   2.0000      -0.795284       -21.6408
  29   2.0000      -0.793502       -21.5923
  30   2.0000      -0.791030       -21.5250
  31   2.0000      -0.790768       -21.5179
  32   2.0000      -0.697801       -18.9881
  33   2.0000      -0.615161       -16.7394
  34   2.0000      -0.613258       -16.6876
  35   2.0000      -0.610467       -16.6116
  36   2.0000      -0.608908       -16.5692
  37   2.0000      -0.596995       -16.2450
  38   2.0000      -0.591629       -16.0990
  39   2.0000      -0.562840       -15.3156
  40   2.0000      -0.561405       -15.2766
  41   2.0000      -0.561250       -15.2724
  42   2.0000      -0.560324       -15.2472
  43   2.0000      -0.559549       -15.2261
  44   2.0000      -0.558543       -15.1987
  45   2.0000      -0.556663       -15.1476
  46   2.0000      -0.480206       -13.0671
  47   2.0000      -0.474015       -12.8986
  48   2.0000      -0.464891       -12.6503
  49   2.0000      -0.460669       -12.5354
  50   2.0000      -0.454441       -12.3660
  51   2.0000      -0.451852       -12.2955
  52   2.0000      -0.450136       -12.2488
  53   2.0000      -0.449543       -12.2327
  54   2.0000      -0.434482       -11.8229
  55   2.0000      -0.432879       -11.7792
  56   2.0000      -0.431578       -11.7438
  57   2.0000      -0.430072       -11.7028
  58   2.0000      -0.428383       -11.6569
  59   2.0000      -0.388584       -10.5739
  60   2.0000      -0.387930       -10.5561
  61   2.0000      -0.293132        -7.9765
  62   2.0000      -0.285451        -7.7675
  63   2.0000      -0.279797        -7.6137
  64   2.0000      -0.263951        -7.1825
  65   2.0000      -0.258045        -7.0218
  66   0.0000      -0.017881        -0.4866
  67   0.0000       0.008418         0.2291
  68   0.0000       0.042144         1.1468
  69   0.0000       0.052383         1.4254
  70   0.0000       0.056541         1.5386

MULLIKEN ATOMIC CHARGES
-----------------------
   0 Lu:    0.833594
   1 C :   -0.266954
   2 C :   -0.333423
   3 C :   -0.259602
   4 C :   -0.288083
   5 C :   -0.290828
   6 H :    0.232548
   7 H :    0.236929
   8 H :    0.247565
   9 H :    0.247693
  10 H :    0.233687
  11 C :   -0.299546
  12 C :   -0.284138
  13 C :   -0.343725
  14 C :   -0.246663
  15 H :    0.232715
  16 C :   -0.246039
  17 H :    0.231067
  18 H :    0.230048
  19 H :    0.242976
  20 H :    0.251774
  21 C :   -1.066263
  22 H :    0.212929
  23 H :    0.211767
  24 H :    0.211374
  25 C :   -0.921169
  26 H :    0.255088
  27 H :    0.233500
  28 H :    0.252444
  29 H :    0.248736
Sum of atomic charges:    0.0000000

LOEWDIN ATOMIC CHARGES
----------------------
   0 Lu:    0.013637
   1 C :   -0.133851
   2 C :   -0.152282
   3 C :   -0.130814
   4 C :   -0.147799
   5 C :   -0.146610
   6 H :    0.151348
   7 H :    0.152375
   8 H :    0.160272
   9 H :    0.158968
  10 H :    0.151750
  11 C :   -0.151620
  12 C :   -0.143297
  13 C :   -0.156569
  14 C :   -0.126236
  15 H :    0.150675
  16 C :   -0.125669
  17 H :    0.151507
  18 H :    0.150297
  19 H :    0.157105
  20 H :    0.161693
  21 C :   -0.651802
  22 H :    0.128733
  23 H :    0.135332
  24 H :    0.131847
  25 C :   -0.486765
  26 H :    0.157819
  27 H :    0.147657
  28 H :    0.146139
  29 H :    0.146161

  Mayer bond orders larger than 0.100000
B(  0-Lu,  1-C ) :   0.2399 B(  0-Lu,  2-C ) :   0.2924 B(  0-Lu,  3-C ) :   0.2493
B(  0-Lu,  4-C ) :   0.2459 B(  0-Lu,  5-C ) :   0.2599 B(  0-Lu, 11-C ) :   0.2566
B(  0-Lu, 12-C ) :   0.2556 B(  0-Lu, 13-C ) :   0.2992 B(  0-Lu, 14-C ) :   0.2486
B(  0-Lu, 16-C ) :   0.2396 B(  0-Lu, 21-C ) :   0.8162 B(  1-C ,  2-C ) :   1.2763
B(  1-C ,  5-C ) :   1.3070 B(  1-C ,  8-H ) :   0.9136 B(  2-C ,  3-C ) :   1.2818
B(  2-C ,  9-H ) :   0.9107 B(  3-C ,  4-C ) :   1.3109 B(  3-C , 10-H ) :   0.9181
B(  4-C ,  5-C ) :   1.2822 B(  4-C ,  6-H ) :   0.9197 B(  5-C ,  7-H ) :   0.9169
B( 11-C , 12-C ) :   1.2707 B( 11-C , 14-C ) :   1.3163 B( 11-C , 15-H ) :   0.9194
B( 12-C , 16-C ) :   1.3207 B( 12-C , 17-H ) :   0.9183 B( 13-C , 14-C ) :   1.2771
B( 13-C , 16-C ) :   1.2710 B( 13-C , 19-H ) :   0.9143 B( 14-C , 18-H ) :   0.9207
B( 16-C , 20-H ) :   0.9091 B( 21-C , 22-H ) :   0.9109 B( 21-C , 23-H ) :   0.9058
B( 21-C , 24-H ) :   0.9065 B( 25-C , 26-H ) :   0.8634 B( 25-C , 27-H ) :   0.9006
B( 25-C , 28-H ) :   0.9140 B( 25-C , 29-H ) :   0.9133

Dispersion correction           -0.017587081
FINAL SINGLE POINT ENERGY     -1702.387160818795
Dispersion correction            ... done

DIPOLE MOMENT
-------------
                                X             Y             Z
Electronic contribution:     -6.31181     -14.88910      12.76482
Nuclear contribution   :      6.53167      15.56585     -13.13438
                        -----------------------------------------
Total Dipole Moment    :      0.21987       0.67675      -0.36957
                        -----------------------------------------
Magnitude (a.u.)       :      0.80182
Magnitude (Debye)      :      2.03806

Rotational constants in cm-1:     0.028234     0.019658     0.017811
Rotational constants in MHz :   846.440047   589.332532   533.946956

                             ****ORCA TERMINATED NORMALLY****
TOTAL RUN TIME: 0 days 0 hours 8 minutes 19 seconds 522 msec
