                         Program Version 5.0.3 -  RELEASE  -
|  1> ! EnGrad PBEh-3c
|  2> %output
|  3> xyzfile=True
|  4> end
|  5> %scf
|  6> maxiter 250
|  7> end
|  8> %output
|  9> Print[P_Hirshfeld] = 1
| 10> end
| 11> % maxcore
| 12> 4000
| 13> *xyz 0 1
| 14> Lu   0.02013576  -0.34000359   0.26040154
| 15> C    0.48766514   0.64080858   2.60912564
| 16> C    1.55936298  -0.21193139   2.27010957
| 17> C    2.31142838   0.41493694   1.25494750
| 18> C    1.68858096   1.63680660   0.94309697
| 19> C    0.56814056   1.77989582   1.78764043
| 20> H    2.06634931   2.37300366   0.24432225
| 21> H   -0.08048906   2.64746434   1.83169901
| 22> H   -0.24884251   0.46009238   3.37932843
| 23> H    1.79040845  -1.16321897   2.73205889
| 24> H    3.22501977   0.04089163   0.82159395
| 25> C    0.76021007  -0.10633653  -2.29744421
| 26> C   -0.45191641  -0.82629604  -2.29935439
| 27> C    1.11465959  -2.08256636  -1.22816019
| 28> C    1.72815378  -0.88974104  -1.65453114
| 29> H    0.94665285   0.84259011  -2.79064213
| 30> C   -0.23439917  -2.05026472  -1.64600334
| 31> H   -1.37815042  -0.51133267  -2.76624880
| 32> H    2.77726829  -0.64474089  -1.55743179
| 33> H    1.61108851  -2.90736138  -0.73117499
| 34> H   -0.97321671  -2.81647673  -1.47189805
| 35> C   -1.96447308  -1.42667303   1.12463263
| 36> H   -2.25321776  -1.13483867   2.14456899
| 37> H   -1.80761765  -2.51812557   1.18046979
| 38> H   -2.88663340  -1.31580809   0.53040967
| 39> C   -2.08114200   2.03852411  -0.93216842
| 40> H   -2.14366375   1.21970313  -0.17281566
| 41> H   -0.98192630   2.28397115  -0.99751198
| 42> H   -2.66511705   2.87834423  -0.53219418
| 43> H   -2.49176395   1.65325706  -1.88219226
| 44> *
| 45>
| 46>                          ****END OF INPUT****

CARTESIAN COORDINATES (ANGSTROEM)
---------------------------------
  Lu     0.020136   -0.340004    0.260402
  C      0.487665    0.640809    2.609126
  C      1.559363   -0.211931    2.270110
  C      2.311428    0.414937    1.254948
  C      1.688581    1.636807    0.943097
  C      0.568141    1.779896    1.787640
  H      2.066349    2.373004    0.244322
  H     -0.080489    2.647464    1.831699
  H     -0.248843    0.460092    3.379328
  H      1.790408   -1.163219    2.732059
  H      3.225020    0.040892    0.821594
  C      0.760210   -0.106337   -2.297444
  C     -0.451916   -0.826296   -2.299354
  C      1.114660   -2.082566   -1.228160
  C      1.728154   -0.889741   -1.654531
  H      0.946653    0.842590   -2.790642
  C     -0.234399   -2.050265   -1.646003
  H     -1.378150   -0.511333   -2.766249
  H      2.777268   -0.644741   -1.557432
  H      1.611089   -2.907361   -0.731175
  H     -0.973217   -2.816477   -1.471898
  C     -1.964473   -1.426673    1.124633
  H     -2.253218   -1.134839    2.144569
  H     -1.807618   -2.518126    1.180470
  H     -2.886633   -1.315808    0.530410
  C     -2.081142    2.038524   -0.932168
  H     -2.143664    1.219703   -0.172816
  H     -0.981926    2.283971   -0.997512
  H     -2.665117    2.878344   -0.532194
  H     -2.491764    1.653257   -1.882192

 Total Charge           Charge          ....    0
 Multiplicity           Mult            ....    1
 Number of Electrons    NEL             ....  132
 Basis Dimension        Dim             ....  295

ORBITAL ENERGIES
----------------

  NO   OCC          E(Eh)            E(eV)
   0   2.0000     -19.252730      -523.8934
   1   2.0000     -12.625256      -343.5507
   2   2.0000     -12.622745      -343.4824
   3   2.0000     -12.622235      -343.4685
   4   2.0000     -10.454386      -284.4783
   5   2.0000     -10.448281      -284.3122
   6   2.0000     -10.446858      -284.2735
   7   2.0000     -10.446190      -284.2553
   8   2.0000     -10.445896      -284.2473
   9   2.0000     -10.445264      -284.2301
  10   2.0000     -10.444642      -284.2131
  11   2.0000     -10.444583      -284.2116
  12   2.0000     -10.443781      -284.1897
  13   2.0000     -10.442598      -284.1575
  14   2.0000     -10.441468      -284.1268
  15   2.0000     -10.363114      -281.9947
  16   2.0000      -5.894324      -160.3927
  17   2.0000      -5.893999      -160.3839
  18   2.0000      -5.893447      -160.3688
  19   2.0000      -5.891955      -160.3282
  20   2.0000      -5.891843      -160.3252
  21   2.0000      -2.436301       -66.2951
  22   2.0000      -1.274845       -34.6903
  23   2.0000      -1.274363       -34.6772
  24   2.0000      -1.262477       -34.3537
  25   2.0000      -0.981467       -26.7071
  26   2.0000      -0.972786       -26.4708
  27   2.0000      -0.799041       -21.7430
  28   2.0000      -0.795633       -21.6503
  29   2.0000      -0.794225       -21.6120
  30   2.0000      -0.791665       -21.5423
  31   2.0000      -0.791233       -21.5306
  32   2.0000      -0.696709       -18.9584
  33   2.0000      -0.615386       -16.7455
  34   2.0000      -0.613199       -16.6860
  35   2.0000      -0.610605       -16.6154
  36   2.0000      -0.608564       -16.5599
  37   2.0000      -0.597338       -16.2544
  38   2.0000      -0.591915       -16.1068
  39   2.0000      -0.562155       -15.2970
  40   2.0000      -0.560688       -15.2571
  41   2.0000      -0.560499       -15.2519
  42   2.0000      -0.559611       -15.2278
  43   2.0000      -0.558822       -15.2063
  44   2.0000      -0.557841       -15.1796
  45   2.0000      -0.555936       -15.1278
  46   2.0000      -0.481595       -13.1049
  47   2.0000      -0.475636       -12.9427
  48   2.0000      -0.462984       -12.5984
  49   2.0000      -0.460371       -12.5273
  50   2.0000      -0.454529       -12.3684
  51   2.0000      -0.452110       -12.3025
  52   2.0000      -0.450144       -12.2490
  53   2.0000      -0.449392       -12.2286
  54   2.0000      -0.435064       -11.8387
  55   2.0000      -0.432779       -11.7765
  56   2.0000      -0.431553       -11.7432
  57   2.0000      -0.430833       -11.7236
  58   2.0000      -0.429131       -11.6772
  59   2.0000      -0.388097       -10.5607
  60   2.0000      -0.387386       -10.5413
  61   2.0000      -0.293381        -7.9833
  62   2.0000      -0.286434        -7.7943
  63   2.0000      -0.280501        -7.6328
  64   2.0000      -0.264335        -7.1929
  65   2.0000      -0.256077        -6.9682
  66   0.0000      -0.017386        -0.4731
  67   0.0000       0.008594         0.2339
  68   0.0000       0.042309         1.1513
  69   0.0000       0.052503         1.4287
  70   0.0000       0.056074         1.5259

MULLIKEN ATOMIC CHARGES
-----------------------
   0 Lu:    0.823108
   1 C :   -0.267885
   2 C :   -0.331838
   3 C :   -0.260420
   4 C :   -0.289513
   5 C :   -0.286480
   6 H :    0.231971
   7 H :    0.236477
   8 H :    0.247446
   9 H :    0.248366
  10 H :    0.234734
  11 C :   -0.299000
  12 C :   -0.280608
  13 C :   -0.342544
  14 C :   -0.248349
  15 H :    0.232163
  16 C :   -0.247407
  17 H :    0.230504
  18 H :    0.230598
  19 H :    0.243881
  20 H :    0.252729
  21 C :   -1.061498
  22 H :    0.211348
  23 H :    0.209638
  24 H :    0.211157
  25 C :   -0.919141
  26 H :    0.251834
  27 H :    0.231660
  28 H :    0.255981
  29 H :    0.251088
Sum of atomic charges:   -0.0000000

LOEWDIN ATOMIC CHARGES
----------------------
   0 Lu:    0.001953
   1 C :   -0.133505
   2 C :   -0.151151
   3 C :   -0.131575
   4 C :   -0.146624
   5 C :   -0.145124
   6 H :    0.151562
   7 H :    0.152433
   8 H :    0.160574
   9 H :    0.159438
  10 H :    0.151958
  11 C :   -0.150771
  12 C :   -0.141293
  13 C :   -0.155685
  14 C :   -0.126785
  15 H :    0.150943
  16 C :   -0.125824
  17 H :    0.151615
  18 H :    0.150678
  19 H :    0.157699
  20 H :    0.162142
  21 C :   -0.652413
  22 H :    0.127997
  23 H :    0.134394
  24 H :    0.131007
  25 C :   -0.484184
  26 H :    0.161163
  27 H :    0.148125
  28 H :    0.145503
  29 H :    0.145753

  Mayer bond orders larger than 0.100000
B(  0-Lu,  1-C ) :   0.2403 B(  0-Lu,  2-C ) :   0.2936 B(  0-Lu,  3-C ) :   0.2530
B(  0-Lu,  4-C ) :   0.2467 B(  0-Lu,  5-C ) :   0.2587 B(  0-Lu, 11-C ) :   0.2567
B(  0-Lu, 12-C ) :   0.2540 B(  0-Lu, 13-C ) :   0.3013 B(  0-Lu, 14-C ) :   0.2519
B(  0-Lu, 16-C ) :   0.2407 B(  0-Lu, 21-C ) :   0.8147 B(  1-C ,  2-C ) :   1.2770
B(  1-C ,  5-C ) :   1.3056 B(  1-C ,  8-H ) :   0.9139 B(  2-C ,  3-C ) :   1.2804
B(  2-C ,  9-H ) :   0.9097 B(  3-C ,  4-C ) :   1.3078 B(  3-C , 10-H ) :   0.9169
B(  4-C ,  5-C ) :   1.2846 B(  4-C ,  6-H ) :   0.9207 B(  5-C ,  7-H ) :   0.9174
B( 11-C , 12-C ) :   1.2736 B( 11-C , 14-C ) :   1.3133 B( 11-C , 15-H ) :   0.9199
B( 12-C , 16-C ) :   1.3202 B( 12-C , 17-H ) :   0.9187 B( 13-C , 14-C ) :   1.2761
B( 13-C , 16-C ) :   1.2707 B( 13-C , 19-H ) :   0.9127 B( 14-C , 18-H ) :   0.9201
B( 16-C , 20-H ) :   0.9085 B( 21-C , 22-H ) :   0.9116 B( 21-C , 23-H ) :   0.9052
B( 21-C , 24-H ) :   0.9086 B( 25-C , 26-H ) :   0.8630 B( 25-C , 27-H ) :   0.9006
B( 25-C , 28-H ) :   0.9111 B( 25-C , 29-H ) :   0.9115

Dispersion correction           -0.017632775
FINAL SINGLE POINT ENERGY     -1702.386954547243
Dispersion correction            ... done

DIPOLE MOMENT
-------------
                                X             Y             Z
Electronic contribution:     -5.82343     -14.77236      12.47079
Nuclear contribution   :      6.06808      15.46102     -12.84959
                        -----------------------------------------
Total Dipole Moment    :      0.24465       0.68866      -0.37880
                        -----------------------------------------
Magnitude (a.u.)       :      0.82316
Magnitude (Debye)      :      2.09231

Rotational constants in cm-1:     0.028370     0.019741     0.017875
Rotational constants in MHz :   850.496916   591.833988   535.872773

                             ****ORCA TERMINATED NORMALLY****
TOTAL RUN TIME: 0 days 0 hours 8 minutes 20 seconds 528 msec
