                         Program Version 5.0.3 -  RELEASE  -
|  1> ! EnGrad PBEh-3c
|  2> %output
|  3> xyzfile=True
|  4> end
|  5> %scf
|  6> maxiter 250
|  7> end
|  8> %output
|  9> Print[P_Hirshfeld] = 1
| 10> end
| 11> % maxcore
| 12> 4000
| 13> *xyz 0 1
| 14> Pd   0.39250341   0.14405252  -0.21845982
| 15> O    1.96409183   1.35294169   0.61118844
| 16> C    1.86137437   2.55860008   0.41440519
| 17> O    0.75886675   3.02352511  -0.09250776
| 18> C    2.95595118   3.54205815   0.68865528
| 19> H    2.60964630   4.46862487   1.14418256
| 20> H    3.41328000   3.80315132  -0.26750418
| 21> H    3.70777307   3.07985844   1.32071983
| 22> N   -1.28358528  -0.94001107  -0.90320658
| 23> C   -0.93926433  -2.30271936  -1.35683166
| 24> H   -0.17380432  -2.29393628  -2.12195309
| 25> H   -1.78350193  -2.81609658  -1.83808183
| 26> H   -0.53690573  -2.86526770  -0.52114312
| 27> C   -1.83723968  -0.24896374  -2.07773493
| 28> H   -1.99319215   0.80366553  -1.86136281
| 29> H   -2.79291940  -0.68253223  -2.40314934
| 30> H   -1.18852299  -0.32057459  -2.94459346
| 31> C   -1.79570380  -1.14788470   1.48950786
| 32> C   -2.34667866  -1.94569446   2.47972615
| 33> C   -2.00463660  -1.82809107   3.81222415
| 34> C   -1.08610806  -0.87444219   4.18638783
| 35> C   -0.60977126  -0.01645006   3.21323119
| 36> C   -1.05499997  -0.05558092   1.90081343
| 37> H   -0.79994330  -0.75548869   5.22303724
| 38> H   -0.01090588   0.79457351   3.60378531
| 39> H   -3.11962854  -2.67440359   2.26147863
| 40> H   -2.44025242  -2.44467547   4.58664699
| 41> H   -0.99151412   3.88303631   0.82877097
| 42> C   -2.36164834  -1.06215571   0.11059341
| 43> H   -3.04898792  -0.20828816   0.06071535
| 44> H   -3.03697261  -1.91350292  -0.05978915
| 45> O    1.46820707   0.57426705  -1.90157048
| 46> C    2.18922773  -0.29472918  -2.50230081
| 47> O    2.15644403  -1.45058992  -2.11457906
| 48> C    3.22069316   0.19501091  -3.49817079
| 49> H    3.57357202  -0.63236186  -4.11121716
| 50> H    4.08895760   0.58150836  -2.95916580
| 51> H    2.87609162   0.96956657  -4.18273517
| 52> *
| 53>
| 54>                          ****END OF INPUT****

CARTESIAN COORDINATES (ANGSTROEM)
---------------------------------
  Pd     0.392503    0.144053   -0.218460
  O      1.964092    1.352942    0.611188
  C      1.861374    2.558600    0.414405
  O      0.758867    3.023525   -0.092508
  C      2.955951    3.542058    0.688655
  H      2.609646    4.468625    1.144183
  H      3.413280    3.803151   -0.267504
  H      3.707773    3.079858    1.320720
  N     -1.283585   -0.940011   -0.903207
  C     -0.939264   -2.302719   -1.356832
  H     -0.173804   -2.293936   -2.121953
  H     -1.783502   -2.816097   -1.838082
  H     -0.536906   -2.865268   -0.521143
  C     -1.837240   -0.248964   -2.077735
  H     -1.993192    0.803666   -1.861363
  H     -2.792919   -0.682532   -2.403149
  H     -1.188523   -0.320575   -2.944593
  C     -1.795704   -1.147885    1.489508
  C     -2.346679   -1.945694    2.479726
  C     -2.004637   -1.828091    3.812224
  C     -1.086108   -0.874442    4.186388
  C     -0.609771   -0.016450    3.213231
  C     -1.055000   -0.055581    1.900813
  H     -0.799943   -0.755489    5.223037
  H     -0.010906    0.794574    3.603785
  H     -3.119629   -2.674404    2.261479
  H     -2.440252   -2.444675    4.586647
  H     -0.991514    3.883036    0.828771
  C     -2.361648   -1.062156    0.110593
  H     -3.048988   -0.208288    0.060715
  H     -3.036973   -1.913503   -0.059789
  O      1.468207    0.574267   -1.901570
  C      2.189228   -0.294729   -2.502301
  O      2.156444   -1.450590   -2.114579
  C      3.220693    0.195011   -3.498171
  H      3.573572   -0.632362   -4.111217
  H      4.088958    0.581508   -2.959166
  H      2.876092    0.969567   -4.182735

 Total Charge           Charge          ....    0
 Multiplicity           Mult            ....    1
 Number of Electrons    NEL             ....  154
 Basis Dimension        Dim             ....  339

ORBITAL ENERGIES
----------------

  NO   OCC          E(Eh)            E(eV)
   0   2.0000     -19.516664      -531.0754
   1   2.0000     -19.491960      -530.4032
   2   2.0000     -19.455016      -529.3979
   3   2.0000     -19.411991      -528.2271
   4   2.0000     -14.723918      -400.6582
   5   2.0000     -10.569939      -287.6227
   6   2.0000     -10.517577      -286.1978
   7   2.0000     -10.494532      -285.5707
   8   2.0000     -10.478776      -285.1420
   9   2.0000     -10.468503      -284.8624
  10   2.0000     -10.462708      -284.7048
  11   2.0000     -10.461528      -284.6727
  12   2.0000     -10.453509      -284.4544
  13   2.0000     -10.448707      -284.3238
  14   2.0000     -10.448059      -284.3061
  15   2.0000     -10.446774      -284.2712
  16   2.0000     -10.441512      -284.1280
  17   2.0000     -10.414397      -283.3902
  18   2.0000      -3.651909       -99.3735
  19   2.0000      -2.300022       -62.5868
  20   2.0000      -2.292369       -62.3785
  21   2.0000      -2.263165       -61.5838
  22   2.0000      -1.196909       -32.5696
  23   2.0000      -1.141524       -31.0624
  24   2.0000      -1.076643       -29.2970
  25   2.0000      -1.073137       -29.2015
  26   2.0000      -1.029515       -28.0145
  27   2.0000      -0.966951       -26.3121
  28   2.0000      -0.878417       -23.9029
  29   2.0000      -0.832588       -22.6559
  30   2.0000      -0.830046       -22.5867
  31   2.0000      -0.812686       -22.1143
  32   2.0000      -0.794394       -21.6166
  33   2.0000      -0.792910       -21.5762
  34   2.0000      -0.716739       -19.5035
  35   2.0000      -0.681925       -18.5561
  36   2.0000      -0.656391       -17.8613
  37   2.0000      -0.616603       -16.7786
  38   2.0000      -0.589903       -16.0521
  39   2.0000      -0.579437       -15.7673
  40   2.0000      -0.569559       -15.4985
  41   2.0000      -0.566989       -15.4285
  42   2.0000      -0.548490       -14.9252
  43   2.0000      -0.537689       -14.6313
  44   2.0000      -0.534353       -14.5405
  45   2.0000      -0.523912       -14.2564
  46   2.0000      -0.522149       -14.2084
  47   2.0000      -0.501911       -13.6577
  48   2.0000      -0.500590       -13.6217
  49   2.0000      -0.484599       -13.1866
  50   2.0000      -0.482981       -13.1426
  51   2.0000      -0.476851       -12.9758
  52   2.0000      -0.470492       -12.8027
  53   2.0000      -0.460737       -12.5373
  54   2.0000      -0.458024       -12.4635
  55   2.0000      -0.443977       -12.0812
  56   2.0000      -0.442882       -12.0514
  57   2.0000      -0.435950       -11.8628
  58   2.0000      -0.431352       -11.7377
  59   2.0000      -0.422283       -11.4909
  60   2.0000      -0.414629       -11.2826
  61   2.0000      -0.411421       -11.1953
  62   2.0000      -0.402663       -10.9570
  63   2.0000      -0.393476       -10.7070
  64   2.0000      -0.367936       -10.0121
  65   2.0000      -0.358035        -9.7426
  66   2.0000      -0.356495        -9.7007
  67   2.0000      -0.337535        -9.1848
  68   2.0000      -0.329047        -8.9538
  69   2.0000      -0.328626        -8.9424
  70   2.0000      -0.323567        -8.8047
  71   2.0000      -0.295851        -8.0505
  72   2.0000      -0.293233        -7.9793
  73   2.0000      -0.289699        -7.8831
  74   2.0000      -0.282013        -7.6740
  75   2.0000      -0.260659        -7.0929
  76   2.0000      -0.256913        -6.9910
  77   0.0000      -0.181817        -4.9475
  78   0.0000      -0.065315        -1.7773
  79   0.0000       0.007614         0.2072
  80   0.0000       0.020614         0.5609
  81   0.0000       0.057631         1.5682

MULLIKEN ATOMIC CHARGES
-----------------------
   0 Pd:    0.409148
   1 O :   -0.403329
   2 C :    0.605256
   3 O :   -0.450321
   4 C :   -0.744173
   5 H :    0.246845
   6 H :    0.262943
   7 H :    0.246263
   8 N :   -0.481236
   9 C :   -0.544394
  10 H :    0.309014
  11 H :    0.217102
  12 H :    0.273844
  13 C :   -0.536505
  14 H :    0.279465
  15 H :    0.226716
  16 H :    0.280297
  17 C :    0.062551
  18 C :   -0.274172
  19 C :   -0.214669
  20 C :   -0.209533
  21 C :   -0.277893
  22 C :   -0.068986
  23 H :    0.227952
  24 H :    0.224108
  25 H :    0.209656
  26 H :    0.224049
  27 H :    0.218295
  28 C :   -0.331482
  29 H :    0.273199
  30 H :    0.237523
  31 O :   -0.523759
  32 C :    0.531293
  33 O :   -0.469800
  34 C :   -0.746284
  35 H :    0.238722
  36 H :    0.243180
  37 H :    0.229115
Sum of atomic charges:   -0.0000000

LOEWDIN ATOMIC CHARGES
----------------------
   0 Pd:   -0.334053
   1 O :   -0.066929
   2 C :    0.154700
   3 O :   -0.238492
   4 C :   -0.378051
   5 H :    0.150991
   6 H :    0.165223
   7 H :    0.146692
   8 N :   -0.033426
   9 C :   -0.238825
  10 H :    0.166311
  11 H :    0.119625
  12 H :    0.154909
  13 C :   -0.233480
  14 H :    0.154392
  15 H :    0.122303
  16 H :    0.155861
  17 C :   -0.069886
  18 C :   -0.129493
  19 C :   -0.133523
  20 C :   -0.130444
  21 C :   -0.123526
  22 C :   -0.023074
  23 H :    0.137971
  24 H :    0.142157
  25 H :    0.134178
  26 H :    0.137667
  27 H :    0.228170
  28 C :   -0.107411
  29 H :    0.154164
  30 H :    0.132541
  31 O :   -0.190259
  32 C :    0.105796
  33 O :   -0.280007
  34 C :   -0.384498
  35 H :    0.142084
  36 H :    0.152365
  37 H :    0.137279

  Mayer bond orders larger than 0.100000
B(  0-Pd,  1-O ) :   0.4524 B(  0-Pd,  3-O ) :   0.1220 B(  0-Pd,  8-N ) :   0.4480
B(  0-Pd, 22-C ) :   0.5547 B(  0-Pd, 27-H ) :   0.1566 B(  0-Pd, 31-O ) :   0.5805
B(  1-O ,  2-C ) :   1.5636 B(  1-O , 27-H ) :   0.1026 B(  2-C ,  3-O ) :   1.4404
B(  2-C ,  4-C ) :   0.9502 B(  3-O , 27-H ) :   0.4008 B(  4-C ,  5-H ) :   0.9123
B(  4-C ,  6-H ) :   0.9019 B(  4-C ,  7-H ) :   0.9104 B(  8-N ,  9-C ) :   0.9142
B(  8-N , 13-C ) :   0.9193 B(  8-N , 28-C ) :   0.8847 B(  9-C , 10-H ) :   0.8724
B(  9-C , 11-H ) :   0.9027 B(  9-C , 12-H ) :   0.9025 B( 13-C , 14-H ) :   0.8985
B( 13-C , 15-H ) :   0.9005 B( 13-C , 16-H ) :   0.8963 B( 17-C , 18-C ) :   1.3950
B( 17-C , 22-C ) :   1.3410 B( 17-C , 28-C ) :   0.9632 B( 18-C , 19-C ) :   1.4473
B( 18-C , 25-H ) :   0.9180 B( 19-C , 20-C ) :   1.4288 B( 19-C , 26-H ) :   0.9149
B( 20-C , 21-C ) :   1.4153 B( 20-C , 23-H ) :   0.9119 B( 21-C , 22-C ) :   1.4107
B( 21-C , 24-H ) :   0.9124 B( 22-C , 27-H ) :   0.2028 B( 28-C , 29-H ) :   0.8953
B( 28-C , 30-H ) :   0.9049 B( 31-O , 32-C ) :   1.3119 B( 32-C , 33-O ) :   1.8487
B( 32-C , 34-C ) :   0.9311 B( 34-C , 35-H ) :   0.9182 B( 34-C , 36-H ) :   0.9138
B( 34-C , 37-H ) :   0.9155

Dispersion correction           -0.025895299
FINAL SINGLE POINT ENERGY      -988.244747779306
Dispersion correction            ... done

DIPOLE MOMENT
-------------
                                X             Y             Z
Electronic contribution:     15.10518       7.24540     -11.30367
Nuclear contribution   :    -17.01600      -6.48179      11.86506
                        -----------------------------------------
Total Dipole Moment    :     -1.91083       0.76361       0.56139
                        -----------------------------------------
Magnitude (a.u.)       :      2.13296
Magnitude (Debye)      :      5.42155

Rotational constants in cm-1:     0.014584     0.008265     0.006201
Rotational constants in MHz :   437.221980   247.780120   185.900823

                             ****ORCA TERMINATED NORMALLY****
TOTAL RUN TIME: 0 days 0 hours 23 minutes 7 seconds 402 msec
