                         Program Version 5.0.3 -  RELEASE  -
|  1> ! EnGrad PBEh-3c
|  2> %output
|  3> xyzfile=True
|  4> end
|  5> %scf
|  6> maxiter 250
|  7> end
|  8> %output
|  9> Print[P_Hirshfeld] = 1
| 10> end
| 11> % maxcore
| 12> 4000
| 13> *xyz 0 1
| 14> Pd   0.38094791   0.18025080  -0.17086073
| 15> O    1.96209124   1.30746894   0.62031240
| 16> C    1.77342083   2.61804465   0.39888775
| 17> O    0.72853327   3.00753098  -0.08895308
| 18> C    2.94012899   3.54680282   0.68034569
| 19> H    2.55988088   4.47975374   1.12824047
| 20> H    3.37903535   3.82759355  -0.27923727
| 21> H    3.69125341   3.12049317   1.31244285
| 22> N   -1.31118475  -0.93202227  -0.94446942
| 23> C   -0.96741187  -2.26027551  -1.43214435
| 24> H   -0.24429484  -2.20267642  -2.21505210
| 25> H   -1.85032997  -2.73955333  -1.87864285
| 26> H   -0.55722389  -2.84681503  -0.63416290
| 27> C   -1.87683531  -0.16917827  -2.04662610
| 28> H   -2.02730811   0.85732555  -1.77049978
| 29> H   -2.82716552  -0.59837785  -2.35539364
| 30> H   -1.21553198  -0.20402809  -2.89817841
| 31> C   -1.80081128  -1.10737662   1.48887420
| 32> C   -2.24106838  -2.01343991   2.46093841
| 33> C   -1.90039454  -1.86359424   3.80244979
| 34> C   -1.08340019  -0.86479742   4.18118970
| 35> C   -0.69466583   0.06888534   3.23751523
| 36> C   -1.04505692  -0.05217233   1.88738677
| 37> H   -0.80092240  -0.74184346   5.22341765
| 38> H   -0.14942624   0.86514768   3.61879015
| 39> H   -2.93961689  -2.75313147   2.22197467
| 40> H   -2.29006726  -2.51484536   4.55114450
| 41> H   -1.04721764   3.84472689   0.86445602
| 42> C   -2.36472175  -1.09078193   0.13047149
| 43> H   -3.06343954  -0.26112167   0.08086155
| 44> H   -2.98625377  -1.95933487  -0.05725144
| 45> O    1.50782846   0.52270508  -1.87540155
| 46> C    2.19614791  -0.32806212  -2.48310481
| 47> O    2.08595147  -1.44457552  -2.31669660
| 48> C    3.28878359   0.10249251  -3.45145077
| 49> H    3.65234552  -0.74887619  -3.99012773
| 50> H    4.12528071   0.48479612  -2.86002649
| 51> H    3.01406788   0.86522120  -4.14264454
| 52> *
| 53>
| 54>                          ****END OF INPUT****

CARTESIAN COORDINATES (ANGSTROEM)
---------------------------------
  Pd     0.380948    0.180251   -0.170861
  O      1.962091    1.307469    0.620312
  C      1.773421    2.618045    0.398888
  O      0.728533    3.007531   -0.088953
  C      2.940129    3.546803    0.680346
  H      2.559881    4.479754    1.128240
  H      3.379035    3.827594   -0.279237
  H      3.691253    3.120493    1.312443
  N     -1.311185   -0.932022   -0.944469
  C     -0.967412   -2.260276   -1.432144
  H     -0.244295   -2.202676   -2.215052
  H     -1.850330   -2.739553   -1.878643
  H     -0.557224   -2.846815   -0.634163
  C     -1.876835   -0.169178   -2.046626
  H     -2.027308    0.857326   -1.770500
  H     -2.827166   -0.598378   -2.355394
  H     -1.215532   -0.204028   -2.898178
  C     -1.800811   -1.107377    1.488874
  C     -2.241068   -2.013440    2.460938
  C     -1.900395   -1.863594    3.802450
  C     -1.083400   -0.864797    4.181190
  C     -0.694666    0.068885    3.237515
  C     -1.045057   -0.052172    1.887387
  H     -0.800922   -0.741843    5.223418
  H     -0.149426    0.865148    3.618790
  H     -2.939617   -2.753131    2.221975
  H     -2.290067   -2.514845    4.551145
  H     -1.047218    3.844727    0.864456
  C     -2.364722   -1.090782    0.130471
  H     -3.063440   -0.261122    0.080862
  H     -2.986254   -1.959335   -0.057251
  O      1.507828    0.522705   -1.875402
  C      2.196148   -0.328062   -2.483105
  O      2.085951   -1.444576   -2.316697
  C      3.288784    0.102493   -3.451451
  H      3.652346   -0.748876   -3.990128
  H      4.125281    0.484796   -2.860026
  H      3.014068    0.865221   -4.142645

 Total Charge           Charge          ....    0
 Multiplicity           Mult            ....    1
 Number of Electrons    NEL             ....  154
 Basis Dimension        Dim             ....  339

ORBITAL ENERGIES
----------------

  NO   OCC          E(Eh)            E(eV)
   0   2.0000     -19.502952      -530.7023
   1   2.0000     -19.495223      -530.4920
   2   2.0000     -19.444461      -529.1107
   3   2.0000     -19.405338      -528.0461
   4   2.0000     -14.720158      -400.5558
   5   2.0000     -10.568021      -287.5705
   6   2.0000     -10.499107      -285.6952
   7   2.0000     -10.496679      -285.6292
   8   2.0000     -10.476425      -285.0780
   9   2.0000     -10.476219      -285.0724
  10   2.0000     -10.469522      -284.8902
  11   2.0000     -10.466117      -284.7975
  12   2.0000     -10.458573      -284.5922
  13   2.0000     -10.454437      -284.4797
  14   2.0000     -10.453311      -284.4490
  15   2.0000     -10.452373      -284.4235
  16   2.0000     -10.439309      -284.0680
  17   2.0000     -10.395347      -282.8718
  18   2.0000      -3.658684       -99.5578
  19   2.0000      -2.305943       -62.7479
  20   2.0000      -2.297330       -62.5135
  21   2.0000      -2.271220       -61.8030
  22   2.0000      -1.180934       -32.1348
  23   2.0000      -1.171875       -31.8883
  24   2.0000      -1.077955       -29.3327
  25   2.0000      -1.067044       -29.0357
  26   2.0000      -1.052316       -28.6350
  27   2.0000      -0.977746       -26.6058
  28   2.0000      -0.892011       -24.2729
  29   2.0000      -0.841570       -22.9003
  30   2.0000      -0.822328       -22.3767
  31   2.0000      -0.820146       -22.3173
  32   2.0000      -0.801523       -21.8105
  33   2.0000      -0.782684       -21.2979
  34   2.0000      -0.717709       -19.5299
  35   2.0000      -0.701095       -19.0778
  36   2.0000      -0.660847       -17.9826
  37   2.0000      -0.607806       -16.5392
  38   2.0000      -0.599497       -16.3131
  39   2.0000      -0.574464       -15.6319
  40   2.0000      -0.570599       -15.5268
  41   2.0000      -0.568383       -15.4665
  42   2.0000      -0.555953       -15.1283
  43   2.0000      -0.534111       -14.5339
  44   2.0000      -0.531193       -14.4545
  45   2.0000      -0.524457       -14.2712
  46   2.0000      -0.516173       -14.0458
  47   2.0000      -0.514887       -14.0108
  48   2.0000      -0.504319       -13.7232
  49   2.0000      -0.490603       -13.3500
  50   2.0000      -0.490001       -13.3336
  51   2.0000      -0.483654       -13.1609
  52   2.0000      -0.477525       -12.9941
  53   2.0000      -0.462115       -12.5748
  54   2.0000      -0.457666       -12.4537
  55   2.0000      -0.453193       -12.3320
  56   2.0000      -0.444352       -12.0914
  57   2.0000      -0.439057       -11.9473
  58   2.0000      -0.434146       -11.8137
  59   2.0000      -0.425037       -11.5658
  60   2.0000      -0.421701       -11.4751
  61   2.0000      -0.412669       -11.2293
  62   2.0000      -0.408933       -11.1276
  63   2.0000      -0.401706       -10.9310
  64   2.0000      -0.375422       -10.2157
  65   2.0000      -0.357104        -9.7173
  66   2.0000      -0.352525        -9.5927
  67   2.0000      -0.340142        -9.2557
  68   2.0000      -0.331543        -9.0217
  69   2.0000      -0.329718        -8.9721
  70   2.0000      -0.325890        -8.8679
  71   2.0000      -0.303419        -8.2565
  72   2.0000      -0.297417        -8.0931
  73   2.0000      -0.292149        -7.9498
  74   2.0000      -0.283219        -7.7068
  75   2.0000      -0.265071        -7.2130
  76   2.0000      -0.259159        -7.0521
  77   0.0000      -0.187178        -5.0934
  78   0.0000      -0.064942        -1.7672
  79   0.0000       0.003648         0.0993
  80   0.0000       0.010876         0.2960
  81   0.0000       0.057721         1.5707

MULLIKEN ATOMIC CHARGES
-----------------------
   0 Pd:    0.397429
   1 O :   -0.482194
   2 C :    0.602216
   3 O :   -0.394006
   4 C :   -0.743624
   5 H :    0.232918
   6 H :    0.262149
   7 H :    0.258058
   8 N :   -0.473013
   9 C :   -0.536997
  10 H :    0.310428
  11 H :    0.208260
  12 H :    0.270636
  13 C :   -0.534064
  14 H :    0.279232
  15 H :    0.224933
  16 H :    0.281669
  17 C :    0.083961
  18 C :   -0.261453
  19 C :   -0.219875
  20 C :   -0.198423
  21 C :   -0.293364
  22 C :   -0.069160
  23 H :    0.228877
  24 H :    0.239362
  25 H :    0.215549
  26 H :    0.227630
  27 H :    0.191572
  28 C :   -0.338111
  29 H :    0.273711
  30 H :    0.242733
  31 O :   -0.515986
  32 C :    0.498267
  33 O :   -0.403685
  34 C :   -0.757000
  35 H :    0.237768
  36 H :    0.228506
  37 H :    0.225091
Sum of atomic charges:   -0.0000000

LOEWDIN ATOMIC CHARGES
----------------------
   0 Pd:   -0.329470
   1 O :   -0.155828
   2 C :    0.171667
   3 O :   -0.176491
   4 C :   -0.379936
   5 H :    0.146099
   6 H :    0.163388
   7 H :    0.149190
   8 N :   -0.045970
   9 C :   -0.239238
  10 H :    0.165447
  11 H :    0.115550
  12 H :    0.152599
  13 C :   -0.234771
  14 H :    0.153655
  15 H :    0.121003
  16 H :    0.157389
  17 C :   -0.063742
  18 C :   -0.127612
  19 C :   -0.126760
  20 C :   -0.129043
  21 C :   -0.113028
  22 C :    0.001160
  23 H :    0.140503
  24 H :    0.145718
  25 H :    0.136579
  26 H :    0.139262
  27 H :    0.202110
  28 C :   -0.103348
  29 H :    0.155633
  30 H :    0.135152
  31 O :   -0.180866
  32 C :    0.032240
  33 O :   -0.203954
  34 C :   -0.390590
  35 H :    0.139307
  36 H :    0.144705
  37 H :    0.132293

  Mayer bond orders larger than 0.100000
B(  0-Pd,  1-O ) :   0.5823 B(  0-Pd,  3-O ) :   0.1098 B(  0-Pd,  8-N ) :   0.4263
B(  0-Pd, 22-C ) :   0.5408 B(  0-Pd, 27-H ) :   0.2175 B(  0-Pd, 31-O ) :   0.5874
B(  1-O ,  2-C ) :   1.3086 B(  1-O , 27-H ) :   0.1196 B(  2-C ,  3-O ) :   1.6969
B(  2-C ,  4-C ) :   0.9461 B(  3-O , 27-H ) :   0.2390 B(  4-C ,  5-H ) :   0.9155
B(  4-C ,  6-H ) :   0.9032 B(  4-C ,  7-H ) :   0.9073 B(  8-N ,  9-C ) :   0.9229
B(  8-N , 13-C ) :   0.9241 B(  8-N , 28-C ) :   0.8825 B(  9-C , 10-H ) :   0.8724
B(  9-C , 11-H ) :   0.9054 B(  9-C , 12-H ) :   0.9044 B( 13-C , 14-H ) :   0.8984
B( 13-C , 15-H ) :   0.9020 B( 13-C , 16-H ) :   0.8960 B( 17-C , 18-C ) :   1.4002
B( 17-C , 22-C ) :   1.3389 B( 17-C , 28-C ) :   0.9621 B( 18-C , 19-C ) :   1.4427
B( 18-C , 21-C ) :   0.1024 B( 18-C , 25-H ) :   0.9156 B( 19-C , 20-C ) :   1.4349
B( 19-C , 26-H ) :   0.9131 B( 20-C , 21-C ) :   1.4197 B( 20-C , 23-H ) :   0.9114
B( 21-C , 22-C ) :   1.4113 B( 21-C , 24-H ) :   0.9089 B( 22-C , 27-H ) :   0.2725
B( 28-C , 29-H ) :   0.8957 B( 28-C , 30-H ) :   0.9054 B( 31-O , 32-C ) :   1.3298
B( 32-C , 33-O ) :   1.9403 B( 32-C , 34-C ) :   0.9167 B( 34-C , 35-H ) :   0.9227
B( 34-C , 36-H ) :   0.9206 B( 34-C , 37-H ) :   0.9182

Dispersion correction           -0.025918795
FINAL SINGLE POINT ENERGY      -988.231416266787
Dispersion correction            ... done

DIPOLE MOMENT
-------------
                                X             Y             Z
Electronic contribution:     14.23273       8.95866      -8.13834
Nuclear contribution   :    -16.47462      -8.47711       9.11761
                        -----------------------------------------
Total Dipole Moment    :     -2.24189       0.48155       0.97926
                        -----------------------------------------
Magnitude (a.u.)       :      2.49338
Magnitude (Debye)      :      6.33766

Rotational constants in cm-1:     0.014409     0.008313     0.006222
Rotational constants in MHz :   431.967621   249.215395   186.523804

                             ****ORCA TERMINATED NORMALLY****
TOTAL RUN TIME: 0 days 0 hours 11 minutes 50 seconds 508 msec
