                         Program Version 5.0.3 -  RELEASE  -
|  1> ! EnGrad PBEh-3c
|  2> %output
|  3> xyzfile=True
|  4> end
|  5> %scf
|  6> maxiter 250
|  7> end
|  8> %output
|  9> Print[P_Hirshfeld] = 1
| 10> end
| 11> % maxcore
| 12> 4000
| 13> *xyz 0 1
| 14> Pd   0.38916897   0.15449784  -0.20472469
| 15> O    1.96351454   1.33982014   0.61382124
| 16> C    1.83599461   2.57575332   0.40992750
| 17> O    0.75011376   3.01890987  -0.09148203
| 18> C    2.95138555   3.54342726   0.68625748
| 19> H    2.59528606   4.47183620   1.13958233
| 20> H    3.40339841   3.81020433  -0.27088986
| 21> H    3.70300618   3.09158394   1.31833144
| 22> N   -1.29154934  -0.93770583  -0.91511332
| 23> C   -0.94738655  -2.29047182  -1.37856378
| 24> H   -0.19414497  -2.26760246  -2.14881761
| 25> H   -1.80278574  -2.79400936  -1.84978606
| 26> H   -0.54276871  -2.85994302  -0.55375595
| 27> C   -1.84866534  -0.22594095  -2.06875821
| 28> H   -2.00303660   0.81914959  -1.83514350
| 29> H   -2.80280142  -0.65824876  -2.38936902
| 30> H   -1.19631667  -0.28694409  -2.93120000
| 31> C   -1.79717761  -1.13619574   1.48932501
| 32> C   -2.31620391  -1.96524299   2.47430479
| 33> C   -1.97455666  -1.83833581   3.80940368
| 34> C   -1.08532668  -0.87165911   4.18488787
| 35> C   -0.63426832   0.00817421   3.22023856
| 36> C   -1.05213081  -0.05459734   1.89693905
| 37> H   -0.80022583  -0.75155124   5.22314701
| 38> H   -0.05087713   0.81493829   3.60811509
| 39> H   -3.06768462  -2.69712120   2.25007942
| 40> H   -2.39691520  -2.46492360   4.57640244
| 41> H   -1.00758785   3.87198180   0.83906820
| 42> C   -2.36253520  -1.07041605   0.11632940
| 43> H   -3.05315806  -0.22353372   0.06652871
| 44> H   -3.02233725  -1.92672812  -0.05905687
| 45> O    1.47964017   0.55938840  -1.89401921
| 46> C    2.19122460  -0.30434769  -2.49676164
| 47> O    2.13610280  -1.44885441  -2.17290182
| 48> C    3.24034124   0.16831393  -3.48468933
| 49> H    3.59630279  -0.66598307  -4.07627576
| 50> H    4.09943895   0.55360121  -2.93055830
| 51> H    2.91590586   0.93945682  -4.17116667
| 52> *
| 53>
| 54>                          ****END OF INPUT****

CARTESIAN COORDINATES (ANGSTROEM)
---------------------------------
  Pd     0.389169    0.154498   -0.204725
  O      1.963515    1.339820    0.613821
  C      1.835995    2.575753    0.409927
  O      0.750114    3.018910   -0.091482
  C      2.951386    3.543427    0.686257
  H      2.595286    4.471836    1.139582
  H      3.403398    3.810204   -0.270890
  H      3.703006    3.091584    1.318331
  N     -1.291549   -0.937706   -0.915113
  C     -0.947387   -2.290472   -1.378564
  H     -0.194145   -2.267602   -2.148818
  H     -1.802786   -2.794009   -1.849786
  H     -0.542769   -2.859943   -0.553756
  C     -1.848665   -0.225941   -2.068758
  H     -2.003037    0.819150   -1.835143
  H     -2.802801   -0.658249   -2.389369
  H     -1.196317   -0.286944   -2.931200
  C     -1.797178   -1.136196    1.489325
  C     -2.316204   -1.965243    2.474305
  C     -1.974557   -1.838336    3.809404
  C     -1.085327   -0.871659    4.184888
  C     -0.634268    0.008174    3.220239
  C     -1.052131   -0.054597    1.896939
  H     -0.800226   -0.751551    5.223147
  H     -0.050877    0.814938    3.608115
  H     -3.067685   -2.697121    2.250079
  H     -2.396915   -2.464924    4.576402
  H     -1.007588    3.871982    0.839068
  C     -2.362535   -1.070416    0.116329
  H     -3.053158   -0.223534    0.066529
  H     -3.022337   -1.926728   -0.059057
  O      1.479640    0.559388   -1.894019
  C      2.191225   -0.304348   -2.496762
  O      2.136103   -1.448854   -2.172902
  C      3.240341    0.168314   -3.484689
  H      3.596303   -0.665983   -4.076276
  H      4.099439    0.553601   -2.930558
  H      2.915906    0.939457   -4.171167

 Total Charge           Charge          ....    0
 Multiplicity           Mult            ....    1
 Number of Electrons    NEL             ....  154
 Basis Dimension        Dim             ....  339

ORBITAL ENERGIES
----------------

  NO   OCC          E(Eh)            E(eV)
   0   2.0000     -19.512384      -530.9590
   1   2.0000     -19.492242      -530.4109
   2   2.0000     -19.451625      -529.3056
   3   2.0000     -19.409944      -528.1714
   4   2.0000     -14.723009      -400.6334
   5   2.0000     -10.569163      -287.6016
   6   2.0000     -10.511550      -286.0338
   7   2.0000     -10.495190      -285.5886
   8   2.0000     -10.478038      -285.1219
   9   2.0000     -10.467867      -284.8451
  10   2.0000     -10.466448      -284.8065
  11   2.0000     -10.463686      -284.7314
  12   2.0000     -10.454647      -284.4854
  13   2.0000     -10.449796      -284.3534
  14   2.0000     -10.449110      -284.3348
  15   2.0000     -10.448502      -284.3182
  16   2.0000     -10.440429      -284.0985
  17   2.0000     -10.408598      -283.2323
  18   2.0000      -3.654167       -99.4349
  19   2.0000      -2.301984       -62.6402
  20   2.0000      -2.294111       -62.4259
  21   2.0000      -2.265751       -61.6542
  22   2.0000      -1.185241       -32.2520
  23   2.0000      -1.150451       -31.3054
  24   2.0000      -1.077501       -29.3203
  25   2.0000      -1.075352       -29.2618
  26   2.0000      -1.037508       -28.2320
  27   2.0000      -0.970307       -26.4034
  28   2.0000      -0.882531       -24.0149
  29   2.0000      -0.835169       -22.7261
  30   2.0000      -0.827412       -22.5150
  31   2.0000      -0.815062       -22.1790
  32   2.0000      -0.796364       -21.6702
  33   2.0000      -0.790261       -21.5041
  34   2.0000      -0.717283       -19.5183
  35   2.0000      -0.687544       -18.7090
  36   2.0000      -0.657902       -17.9024
  37   2.0000      -0.613376       -16.6908
  38   2.0000      -0.592692       -16.1280
  39   2.0000      -0.576563       -15.6891
  40   2.0000      -0.571059       -15.5393
  41   2.0000      -0.567820       -15.4512
  42   2.0000      -0.550706       -14.9855
  43   2.0000      -0.535596       -14.5743
  44   2.0000      -0.529621       -14.4117
  45   2.0000      -0.526383       -14.3236
  46   2.0000      -0.518779       -14.1167
  47   2.0000      -0.505521       -13.7559
  48   2.0000      -0.502023       -13.6607
  49   2.0000      -0.486196       -13.2301
  50   2.0000      -0.484947       -13.1961
  51   2.0000      -0.478076       -13.0091
  52   2.0000      -0.473232       -12.8773
  53   2.0000      -0.460056       -12.5188
  54   2.0000      -0.458557       -12.4780
  55   2.0000      -0.446852       -12.1594
  56   2.0000      -0.439836       -11.9685
  57   2.0000      -0.438260       -11.9257
  58   2.0000      -0.433366       -11.7925
  59   2.0000      -0.423231       -11.5167
  60   2.0000      -0.416977       -11.3465
  61   2.0000      -0.411021       -11.1845
  62   2.0000      -0.403643       -10.9837
  63   2.0000      -0.398169       -10.8347
  64   2.0000      -0.368856       -10.0371
  65   2.0000      -0.359286        -9.7767
  66   2.0000      -0.355884        -9.6841
  67   2.0000      -0.336918        -9.1680
  68   2.0000      -0.330649        -8.9974
  69   2.0000      -0.329104        -8.9554
  70   2.0000      -0.325414        -8.8550
  71   2.0000      -0.297903        -8.1064
  72   2.0000      -0.294374        -8.0103
  73   2.0000      -0.291342        -7.9278
  74   2.0000      -0.282730        -7.6935
  75   2.0000      -0.262373        -7.1395
  76   2.0000      -0.258560        -7.0358
  77   0.0000      -0.183846        -5.0027
  78   0.0000      -0.065208        -1.7744
  79   0.0000       0.007312         0.1990
  80   0.0000       0.017653         0.4804
  81   0.0000       0.057265         1.5583

MULLIKEN ATOMIC CHARGES
-----------------------
   0 Pd:    0.406562
   1 O :   -0.430645
   2 C :    0.608382
   3 O :   -0.437338
   4 C :   -0.743950
   5 H :    0.242618
   6 H :    0.262553
   7 H :    0.249753
   8 N :   -0.478786
   9 C :   -0.542324
  10 H :    0.309485
  11 H :    0.214809
  12 H :    0.272916
  13 C :   -0.535782
  14 H :    0.279522
  15 H :    0.226198
  16 H :    0.280784
  17 C :    0.069982
  18 C :   -0.272280
  19 C :   -0.216778
  20 C :   -0.205511
  21 C :   -0.283337
  22 C :   -0.068333
  23 H :    0.228148
  24 H :    0.228918
  25 H :    0.211510
  26 H :    0.224899
  27 H :    0.212806
  28 C :   -0.333670
  29 H :    0.273406
  30 H :    0.239195
  31 O :   -0.522197
  32 C :    0.521600
  33 O :   -0.449216
  34 C :   -0.749281
  35 H :    0.238522
  36 H :    0.239183
  37 H :    0.227674
Sum of atomic charges:   -0.0000000

LOEWDIN ATOMIC CHARGES
----------------------
   0 Pd:   -0.330857
   1 O :   -0.095389
   2 C :    0.161010
   3 O :   -0.223334
   4 C :   -0.378579
   5 H :    0.149468
   6 H :    0.164611
   7 H :    0.147385
   8 N :   -0.036890
   9 C :   -0.238869
  10 H :    0.166020
  11 H :    0.118528
  12 H :    0.154244
  13 C :   -0.233816
  14 H :    0.154209
  15 H :    0.121926
  16 H :    0.156307
  17 C :   -0.068212
  18 C :   -0.129227
  19 C :   -0.131507
  20 C :   -0.130115
  21 C :   -0.120760
  22 C :   -0.016392
  23 H :    0.138695
  24 H :    0.143464
  25 H :    0.135037
  26 H :    0.138056
  27 H :    0.222876
  28 C :   -0.106053
  29 H :    0.154592
  30 H :    0.133326
  31 O :   -0.187817
  32 C :    0.082669
  33 O :   -0.255745
  34 C :   -0.386156
  35 H :    0.141365
  36 H :    0.150319
  37 H :    0.135613

  Mayer bond orders larger than 0.100000
B(  0-Pd,  1-O ) :   0.4897 B(  0-Pd,  3-O ) :   0.1196 B(  0-Pd,  8-N ) :   0.4427
B(  0-Pd, 22-C ) :   0.5482 B(  0-Pd, 27-H ) :   0.1749 B(  0-Pd, 31-O ) :   0.5855
B(  1-O ,  2-C ) :   1.4868 B(  1-O , 27-H ) :   0.1082 B(  2-C ,  3-O ) :   1.5146
B(  2-C ,  4-C ) :   0.9499 B(  3-O , 27-H ) :   0.3508 B(  4-C ,  5-H ) :   0.9133
B(  4-C ,  6-H ) :   0.9023 B(  4-C ,  7-H ) :   0.9096 B(  8-N ,  9-C ) :   0.9167
B(  8-N , 13-C ) :   0.9207 B(  8-N , 28-C ) :   0.8839 B(  9-C , 10-H ) :   0.8726
B(  9-C , 11-H ) :   0.9035 B(  9-C , 12-H ) :   0.9031 B( 13-C , 14-H ) :   0.8984
B( 13-C , 15-H ) :   0.9009 B( 13-C , 16-H ) :   0.8962 B( 17-C , 18-C ) :   1.3987
B( 17-C , 22-C ) :   1.3407 B( 17-C , 28-C ) :   0.9624 B( 18-C , 19-C ) :   1.4457
B( 18-C , 25-H ) :   0.9175 B( 19-C , 20-C ) :   1.4323 B( 19-C , 26-H ) :   0.9144
B( 20-C , 21-C ) :   1.4161 B( 20-C , 23-H ) :   0.9117 B( 21-C , 22-C ) :   1.4127
B( 21-C , 24-H ) :   0.9114 B( 22-C , 27-H ) :   0.2257 B( 28-C , 29-H ) :   0.8955
B( 28-C , 30-H ) :   0.9052 B( 31-O , 32-C ) :   1.3142 B( 32-C , 33-O ) :   1.8796
B( 32-C , 34-C ) :   0.9277 B( 34-C , 35-H ) :   0.9194 B( 34-C , 36-H ) :   0.9159
B( 34-C , 37-H ) :   0.9164

Dispersion correction           -0.025905905
FINAL SINGLE POINT ENERGY      -988.250464689098
Dispersion correction            ... done

DIPOLE MOMENT
-------------
                                X             Y             Z
Electronic contribution:     14.84269       7.73331     -10.39126
Nuclear contribution   :    -16.85978      -7.05756      11.07226
                        -----------------------------------------
Total Dipole Moment    :     -2.01709       0.67575       0.68100
                        -----------------------------------------
Magnitude (a.u.)       :      2.23362
Magnitude (Debye)      :      5.67741

Rotational constants in cm-1:     0.014538     0.008280     0.006208
Rotational constants in MHz :   435.846098   248.242216   186.098803

                             ****ORCA TERMINATED NORMALLY****
TOTAL RUN TIME: 0 days 0 hours 33 minutes 39 seconds 811 msec
