                         Program Version 5.0.3 -  RELEASE  -
|  1> ! EnGrad PBEh-3c
|  2> %output
|  3> xyzfile=True
|  4> end
|  5> %scf
|  6> maxiter 250
|  7> end
|  8> %output
|  9> Print[P_Hirshfeld] = 1
| 10> end
| 11> % maxcore
| 12> 4000
| 13> *xyz 0 1
| 14> Pd   0.36243004   0.26107567  -0.07345583
| 15> O    1.93443975   1.30155560   0.62596300
| 16> C    1.62662913   2.63438054   0.38305852
| 17> O    0.64650892   2.97938170  -0.08745803
| 18> C    2.87879254   3.57299549   0.65733489
| 19> H    2.45353668   4.50053120   1.09023941
| 20> H    3.30178882   3.88077784  -0.30586745
| 21> H    3.65673682   3.20452990   1.29794644
| 22> N   -1.37158344  -0.90057387  -1.00455627
| 23> C   -1.04550143  -2.16314037  -1.60658315
| 24> H   -0.39595537  -1.99987285  -2.43186404
| 25> H   -1.99883692  -2.57127850  -1.97141369
| 26> H   -0.59949367  -2.81054711  -0.88353906
| 27> C   -1.96367987   0.00458701  -1.97601540
| 28> H   -2.10542228   0.98715608  -1.56309535
| 29> H   -2.90918779  -0.40923726  -2.25457887
| 30> H   -1.27717872   0.05971616  -2.80009026
| 31> C   -1.80976694  -1.04734014   1.49183844
| 32> C   -1.98711251  -2.13846536   2.42918874
| 33> C   -1.67996121  -1.96455036   3.75626252
| 34> C   -1.06599542  -0.82223275   4.18145051
| 35> C   -0.88683760   0.23921075   3.26768434
| 36> C   -1.02318079  -0.02217869   1.87961553
| 37> H   -0.80374195  -0.70986871   5.22131549
| 38> H   -0.44686076   1.04860522   3.66135123
| 39> H   -2.55080179  -2.95006606   2.12823689
| 40> H   -1.95457997  -2.68228273   4.47864522
| 41> H   -1.18060810   3.76252724   0.94690598
| 42> C   -2.36024302  -1.14833800   0.15452601
| 43> H   -3.10148453  -0.37397794   0.12424118
| 44> H   -2.87871241  -2.06800936  -0.04881852
| 45> O    1.58292498   0.44586415  -1.78468702
| 46> C    2.23063133  -0.31791680  -2.51414892
| 47> O    1.91004836  -1.58512734  -2.72456963
| 48> C    3.45174126  -0.08566919  -3.32253309
| 49> H    3.83143367  -1.01843132  -3.72405965
| 50> H    4.20974273   0.27059736  -2.63726700
| 51> H    3.32369820   0.64120363  -4.06569501
| 52> *
| 53>
| 54>                          ****END OF INPUT****

CARTESIAN COORDINATES (ANGSTROEM)
---------------------------------
  Pd     0.362430    0.261076   -0.073456
  O      1.934440    1.301556    0.625963
  C      1.626629    2.634381    0.383059
  O      0.646509    2.979382   -0.087458
  C      2.878793    3.572995    0.657335
  H      2.453537    4.500531    1.090239
  H      3.301789    3.880778   -0.305867
  H      3.656737    3.204530    1.297946
  N     -1.371583   -0.900574   -1.004556
  C     -1.045501   -2.163140   -1.606583
  H     -0.395955   -1.999873   -2.431864
  H     -1.998837   -2.571279   -1.971414
  H     -0.599494   -2.810547   -0.883539
  C     -1.963680    0.004587   -1.976015
  H     -2.105422    0.987156   -1.563095
  H     -2.909188   -0.409237   -2.254579
  H     -1.277179    0.059716   -2.800090
  C     -1.809767   -1.047340    1.491838
  C     -1.987113   -2.138465    2.429189
  C     -1.679961   -1.964550    3.756263
  C     -1.065995   -0.822233    4.181451
  C     -0.886838    0.239211    3.267684
  C     -1.023181   -0.022179    1.879616
  H     -0.803742   -0.709869    5.221315
  H     -0.446861    1.048605    3.661351
  H     -2.550802   -2.950066    2.128237
  H     -1.954580   -2.682283    4.478645
  H     -1.180608    3.762527    0.946906
  C     -2.360243   -1.148338    0.154526
  H     -3.101485   -0.373978    0.124241
  H     -2.878712   -2.068009   -0.048819
  O      1.582925    0.445864   -1.784687
  C      2.230631   -0.317917   -2.514149
  O      1.910048   -1.585127   -2.724570
  C      3.451741   -0.085669   -3.322533
  H      3.831434   -1.018431   -3.724060
  H      4.209743    0.270597   -2.637267
  H      3.323698    0.641204   -4.065695

 Total Charge           Charge          ....    0
 Multiplicity           Mult            ....    1
 Number of Electrons    NEL             ....  154
 Basis Dimension        Dim             ....  339

ORBITAL ENERGIES
----------------

  NO   OCC          E(Eh)            E(eV)
   0   2.0000     -19.500938      -530.6475
   1   2.0000     -19.498933      -530.5929
   2   2.0000     -19.464124      -529.6457
   3   2.0000     -19.396674      -527.8103
   4   2.0000     -14.712254      -400.3408
   5   2.0000     -10.566954      -287.5414
   6   2.0000     -10.518387      -286.2199
   7   2.0000     -10.501265      -285.7540
   8   2.0000     -10.499993      -285.7193
   9   2.0000     -10.488108      -285.3959
  10   2.0000     -10.474655      -285.0298
  11   2.0000     -10.472547      -284.9725
  12   2.0000     -10.472366      -284.9676
  13   2.0000     -10.470147      -284.9072
  14   2.0000     -10.465396      -284.7779
  15   2.0000     -10.458887      -284.6008
  16   2.0000     -10.438086      -284.0348
  17   2.0000     -10.398144      -282.9479
  18   2.0000      -3.669465       -99.8512
  19   2.0000      -2.317395       -63.0595
  20   2.0000      -2.306485       -62.7627
  21   2.0000      -2.283120       -62.1268
  22   2.0000      -1.218044       -33.1447
  23   2.0000      -1.131206       -30.7817
  24   2.0000      -1.073209       -29.2035
  25   2.0000      -1.065633       -28.9974
  26   2.0000      -1.000175       -27.2161
  27   2.0000      -0.987434       -26.8694
  28   2.0000      -0.902106       -24.5475
  29   2.0000      -0.857890       -23.3444
  30   2.0000      -0.822624       -22.3847
  31   2.0000      -0.807341       -21.9689
  32   2.0000      -0.804106       -21.8808
  33   2.0000      -0.789996       -21.4969
  34   2.0000      -0.718460       -19.5503
  35   2.0000      -0.712268       -19.3818
  36   2.0000      -0.667374       -18.1602
  37   2.0000      -0.612629       -16.6705
  38   2.0000      -0.603478       -16.4215
  39   2.0000      -0.583644       -15.8818
  40   2.0000      -0.574646       -15.6369
  41   2.0000      -0.572291       -15.5728
  42   2.0000      -0.561276       -15.2731
  43   2.0000      -0.543323       -14.7846
  44   2.0000      -0.540624       -14.7111
  45   2.0000      -0.531126       -14.4527
  46   2.0000      -0.522227       -14.2105
  47   2.0000      -0.518818       -14.1177
  48   2.0000      -0.499492       -13.5919
  49   2.0000      -0.498462       -13.5638
  50   2.0000      -0.490806       -13.3555
  51   2.0000      -0.479903       -13.0588
  52   2.0000      -0.473886       -12.8951
  53   2.0000      -0.465248       -12.6600
  54   2.0000      -0.459394       -12.5008
  55   2.0000      -0.457188       -12.4407
  56   2.0000      -0.449123       -12.2213
  57   2.0000      -0.441706       -12.0194
  58   2.0000      -0.436139       -11.8679
  59   2.0000      -0.432236       -11.7617
  60   2.0000      -0.429411       -11.6849
  61   2.0000      -0.425418       -11.5762
  62   2.0000      -0.410269       -11.1640
  63   2.0000      -0.399033       -10.8582
  64   2.0000      -0.381451       -10.3798
  65   2.0000      -0.357582        -9.7303
  66   2.0000      -0.351074        -9.5532
  67   2.0000      -0.349020        -9.4973
  68   2.0000      -0.336793        -9.1646
  69   2.0000      -0.333760        -9.0821
  70   2.0000      -0.323152        -8.7934
  71   2.0000      -0.305901        -8.3240
  72   2.0000      -0.304953        -8.2982
  73   2.0000      -0.290681        -7.9098
  74   2.0000      -0.271632        -7.3915
  75   2.0000      -0.262426        -7.1410
  76   2.0000      -0.237555        -6.4642
  77   0.0000      -0.189585        -5.1589
  78   0.0000      -0.072828        -1.9817
  79   0.0000      -0.015269        -0.4155
  80   0.0000      -0.005883        -0.1601
  81   0.0000       0.061233         1.6662

MULLIKEN ATOMIC CHARGES
-----------------------
   0 Pd:    0.404566
   1 O :   -0.507231
   2 C :    0.570450
   3 O :   -0.327698
   4 C :   -0.746165
   5 H :    0.221489
   6 H :    0.254693
   7 H :    0.256784
   8 N :   -0.455594
   9 C :   -0.525411
  10 H :    0.316048
  11 H :    0.190272
  12 H :    0.262704
  13 C :   -0.532180
  14 H :    0.273826
  15 H :    0.226331
  16 H :    0.283648
  17 C :    0.091284
  18 C :   -0.233767
  19 C :   -0.201319
  20 C :   -0.225544
  21 C :   -0.276513
  22 C :   -0.081917
  23 H :    0.239468
  24 H :    0.249391
  25 H :    0.224344
  26 H :    0.238702
  27 H :    0.142491
  28 C :   -0.343821
  29 H :    0.271869
  30 H :    0.247685
  31 O :   -0.487771
  32 C :    0.556426
  33 O :   -0.561267
  34 C :   -0.733603
  35 H :    0.263525
  36 H :    0.221778
  37 H :    0.232030
Sum of atomic charges:    0.0000000

LOEWDIN ATOMIC CHARGES
----------------------
   0 Pd:   -0.327336
   1 O :   -0.178256
   2 C :    0.157290
   3 O :   -0.104807
   4 C :   -0.389471
   5 H :    0.138998
   6 H :    0.156007
   7 H :    0.146691
   8 N :   -0.068748
   9 C :   -0.242028
  10 H :    0.169585
  11 H :    0.107650
  12 H :    0.148791
  13 C :   -0.236162
  14 H :    0.151797
  15 H :    0.121209
  16 H :    0.160502
  17 C :   -0.043419
  18 C :   -0.120683
  19 C :   -0.120205
  20 C :   -0.122638
  21 C :   -0.104226
  22 C :    0.036304
  23 H :    0.144262
  24 H :    0.148030
  25 H :    0.139840
  26 H :    0.143656
  27 H :    0.153721
  28 C :   -0.106260
  29 H :    0.157513
  30 H :    0.139737
  31 O :   -0.159906
  32 C :    0.141081
  33 O :   -0.392853
  34 C :   -0.377610
  35 H :    0.154779
  36 H :    0.139067
  37 H :    0.138097

  Mayer bond orders larger than 0.100000
B(  0-Pd,  1-O ) :   0.6989 B(  0-Pd,  3-O ) :   0.1017 B(  0-Pd,  8-N ) :   0.3946
B(  0-Pd, 22-C ) :   0.5765 B(  0-Pd, 27-H ) :   0.2587 B(  0-Pd, 31-O ) :   0.4828
B(  1-O ,  2-C ) :   1.1542 B(  2-C ,  3-O ) :   1.9029 B(  2-C ,  4-C ) :   0.9214
B(  3-O , 27-H ) :   0.1103 B(  4-C ,  5-H ) :   0.9186 B(  4-C ,  6-H ) :   0.9087
B(  4-C ,  7-H ) :   0.9087 B(  8-N ,  9-C ) :   0.9279 B(  8-N , 13-C ) :   0.9274
B(  8-N , 28-C ) :   0.8828 B(  9-C , 10-H ) :   0.8565 B(  9-C , 11-H ) :   0.9060
B(  9-C , 12-H ) :   0.9085 B( 13-C , 14-H ) :   0.8993 B( 13-C , 15-H ) :   0.9042
B( 13-C , 16-H ) :   0.8954 B( 17-C , 18-C ) :   1.3498 B( 17-C , 22-C ) :   1.3264
B( 17-C , 28-C ) :   0.9768 B( 18-C , 19-C ) :   1.4588 B( 18-C , 21-C ) :   0.1014
B( 18-C , 25-H ) :   0.9120 B( 19-C , 20-C ) :   1.3940 B( 19-C , 26-H ) :   0.9090
B( 20-C , 21-C ) :   1.4461 B( 20-C , 23-H ) :   0.9093 B( 21-C , 22-C ) :   1.3726
B( 21-C , 24-H ) :   0.9066 B( 22-C , 27-H ) :   0.2867 B( 28-C , 29-H ) :   0.8931
B( 28-C , 30-H ) :   0.9042 B( 31-O , 32-C ) :   1.4765 B( 31-O , 33-O ) :   0.1052
B( 32-C , 33-O ) :   1.6545 B( 32-C , 34-C ) :   0.9451 B( 34-C , 35-H ) :   0.9176
B( 34-C , 36-H ) :   0.9109 B( 34-C , 37-H ) :   0.9104

Dispersion correction           -0.025823498
FINAL SINGLE POINT ENERGY      -988.175983774313
Dispersion correction            ... done

DIPOLE MOMENT
-------------
                                X             Y             Z
Electronic contribution:     13.28990      13.36605      -1.89198
Nuclear contribution   :    -15.69103     -12.93497       3.50756
                        -----------------------------------------
Total Dipole Moment    :     -2.40114       0.43109       1.61558
                        -----------------------------------------
Magnitude (a.u.)       :      2.92599
Magnitude (Debye)      :      7.43727

Rotational constants in cm-1:     0.013840     0.008380     0.006251
Rotational constants in MHz :   414.901701   251.211194   187.400255

                             ****ORCA TERMINATED NORMALLY****
TOTAL RUN TIME: 0 days 0 hours 14 minutes 19 seconds 868 msec
