                         Program Version 5.0.3 -  RELEASE  -
|  1> ! EnGrad PBEh-3c
|  2> %output
|  3> xyzfile=True
|  4> end
|  5> %scf
|  6> maxiter 250
|  7> end
|  8> %output
|  9> Print[P_Hirshfeld] = 1
| 10> end
| 11> % maxcore
| 12> 4000
| 13> *xyz 0 1
| 14> Pd   0.38206236   0.18282388  -0.16983632
| 15> O    1.95578710   1.32965027   0.61704825
| 16> C    1.78034988   2.59133514   0.40278631
| 17> O    0.72257787   3.00840415  -0.09041254
| 18> C    2.93209193   3.55128585   0.67857049
| 19> H    2.55761219   4.47946270   1.12646807
| 20> H    3.37639282   3.82896122  -0.28018613
| 21> H    3.69070880   3.12160249   1.31291355
| 22> N   -1.31282064  -0.92783697  -0.93888529
| 23> C   -0.97346332  -2.25662992  -1.43916632
| 24> H   -0.24778173  -2.19644582  -2.22404512
| 25> H   -1.85489183  -2.73481240  -1.88211201
| 26> H   -0.55784496  -2.84681467  -0.64140504
| 27> C   -1.87923367  -0.16467169  -2.04410921
| 28> H   -2.03024846   0.86380202  -1.76283909
| 29> H   -2.83107657  -0.59206698  -2.35354476
| 30> H   -1.21780802  -0.19480943  -2.89635391
| 31> C   -1.80052358  -1.11257988   1.48999303
| 32> C   -2.22873865  -2.01128168   2.46231393
| 33> C   -1.89625967  -1.87188086   3.79527992
| 34> C   -1.08018886  -0.85852267   4.18397429
| 35> C   -0.70139568   0.06957864   3.23284860
| 36> C   -1.04443653  -0.04598118   1.89233484
| 37> H   -0.80116034  -0.74047294   5.22266024
| 38> H   -0.15612086   0.87704182   3.62226408
| 39> H   -2.93030854  -2.76434838   2.21769636
| 40> H   -2.27935223  -2.52269287   4.55042072
| 41> H   -1.05357283   3.84289119   0.86772911
| 42> C   -2.36192599  -1.09112599   0.12648122
| 43> H   -3.06600217  -0.26351849   0.08186741
| 44> H   -2.98416493  -1.96427757  -0.05633574
| 45> O    1.50709100   0.52921615  -1.86496112
| 46> C    2.20169805  -0.30795406  -2.50138279
| 47> O    2.07602250  -1.48507276  -2.31952298
| 48> C    3.29652672   0.10081081  -3.44159177
| 49> H    3.65879540  -0.75965606  -3.98266447
| 50> H    4.12875527   0.47838502  -2.85260792
| 51> H    3.02428809   0.86018768  -4.14313463
| 52> *
| 53>
| 54>                          ****END OF INPUT****

CARTESIAN COORDINATES (ANGSTROEM)
---------------------------------
  Pd     0.382062    0.182824   -0.169836
  O      1.955787    1.329650    0.617048
  C      1.780350    2.591335    0.402786
  O      0.722578    3.008404   -0.090413
  C      2.932092    3.551286    0.678570
  H      2.557612    4.479463    1.126468
  H      3.376393    3.828961   -0.280186
  H      3.690709    3.121602    1.312914
  N     -1.312821   -0.927837   -0.938885
  C     -0.973463   -2.256630   -1.439166
  H     -0.247782   -2.196446   -2.224045
  H     -1.854892   -2.734812   -1.882112
  H     -0.557845   -2.846815   -0.641405
  C     -1.879234   -0.164672   -2.044109
  H     -2.030248    0.863802   -1.762839
  H     -2.831077   -0.592067   -2.353545
  H     -1.217808   -0.194809   -2.896354
  C     -1.800524   -1.112580    1.489993
  C     -2.228739   -2.011282    2.462314
  C     -1.896260   -1.871881    3.795280
  C     -1.080189   -0.858523    4.183974
  C     -0.701396    0.069579    3.232849
  C     -1.044437   -0.045981    1.892335
  H     -0.801160   -0.740473    5.222660
  H     -0.156121    0.877042    3.622264
  H     -2.930309   -2.764348    2.217696
  H     -2.279352   -2.522693    4.550421
  H     -1.053573    3.842891    0.867729
  C     -2.361926   -1.091126    0.126481
  H     -3.066002   -0.263518    0.081867
  H     -2.984165   -1.964278   -0.056336
  O      1.507091    0.529216   -1.864961
  C      2.201698   -0.307954   -2.501383
  O      2.076023   -1.485073   -2.319523
  C      3.296527    0.100811   -3.441592
  H      3.658795   -0.759656   -3.982664
  H      4.128755    0.478385   -2.852608
  H      3.024288    0.860188   -4.143135

 Total Charge           Charge          ....    0
 Multiplicity           Mult            ....    1
 Number of Electrons    NEL             ....  154
 Basis Dimension        Dim             ....  339

ORBITAL ENERGIES
----------------

  NO   OCC          E(Eh)            E(eV)
   0   2.0000     -19.509221      -530.8729
   1   2.0000     -19.492473      -530.4171
   2   2.0000     -19.451277      -529.2962
   3   2.0000     -19.402324      -527.9641
   4   2.0000     -14.720697      -400.5705
   5   2.0000     -10.567991      -287.5697
   6   2.0000     -10.506741      -285.9030
   7   2.0000     -10.496323      -285.6195
   8   2.0000     -10.476741      -285.0866
   9   2.0000     -10.474541      -285.0267
  10   2.0000     -10.468770      -284.8697
  11   2.0000     -10.464934      -284.7653
  12   2.0000     -10.457008      -284.5497
  13   2.0000     -10.453354      -284.4502
  14   2.0000     -10.452694      -284.4323
  15   2.0000     -10.451984      -284.4129
  16   2.0000     -10.438980      -284.0591
  17   2.0000     -10.401088      -283.0280
  18   2.0000      -3.659798       -99.5882
  19   2.0000      -2.307255       -62.7836
  20   2.0000      -2.298876       -62.5556
  21   2.0000      -2.271916       -61.8220
  22   2.0000      -1.183201       -32.1965
  23   2.0000      -1.146502       -31.1979
  24   2.0000      -1.079852       -29.3843
  25   2.0000      -1.077588       -29.3227
  26   2.0000      -1.036186       -28.1961
  27   2.0000      -0.977184       -26.5905
  28   2.0000      -0.889544       -24.2057
  29   2.0000      -0.841944       -22.9104
  30   2.0000      -0.820167       -22.3179
  31   2.0000      -0.818347       -22.2684
  32   2.0000      -0.800750       -21.7895
  33   2.0000      -0.790131       -21.5006
  34   2.0000      -0.717516       -19.5246
  35   2.0000      -0.696552       -18.9541
  36   2.0000      -0.662296       -18.0220
  37   2.0000      -0.610891       -16.6232
  38   2.0000      -0.598244       -16.2790
  39   2.0000      -0.576064       -15.6755
  40   2.0000      -0.573484       -15.6053
  41   2.0000      -0.568606       -15.4726
  42   2.0000      -0.554913       -15.0999
  43   2.0000      -0.535333       -14.5672
  44   2.0000      -0.531628       -14.4663
  45   2.0000      -0.527365       -14.3503
  46   2.0000      -0.516410       -14.0522
  47   2.0000      -0.511416       -13.9163
  48   2.0000      -0.501343       -13.6422
  49   2.0000      -0.488992       -13.3061
  50   2.0000      -0.484602       -13.1867
  51   2.0000      -0.481181       -13.0936
  52   2.0000      -0.472027       -12.8445
  53   2.0000      -0.462844       -12.5946
  54   2.0000      -0.457707       -12.4548
  55   2.0000      -0.451471       -12.2852
  56   2.0000      -0.442090       -12.0299
  57   2.0000      -0.438833       -11.9413
  58   2.0000      -0.435864       -11.8605
  59   2.0000      -0.424517       -11.5517
  60   2.0000      -0.420506       -11.4426
  61   2.0000      -0.410368       -11.1667
  62   2.0000      -0.408783       -11.1235
  63   2.0000      -0.401050       -10.9131
  64   2.0000      -0.371752       -10.1159
  65   2.0000      -0.358523        -9.7559
  66   2.0000      -0.353553        -9.6207
  67   2.0000      -0.339793        -9.2462
  68   2.0000      -0.333819        -9.0837
  69   2.0000      -0.330846        -9.0028
  70   2.0000      -0.328656        -8.9432
  71   2.0000      -0.301985        -8.2174
  72   2.0000      -0.298886        -8.1331
  73   2.0000      -0.291241        -7.9251
  74   2.0000      -0.281825        -7.6688
  75   2.0000      -0.263086        -7.1589
  76   2.0000      -0.257280        -7.0010
  77   0.0000      -0.187410        -5.0997
  78   0.0000      -0.067406        -1.8342
  79   0.0000       0.004783         0.1302
  80   0.0000       0.012370         0.3366
  81   0.0000       0.059674         1.6238

MULLIKEN ATOMIC CHARGES
-----------------------
   0 Pd:    0.409020
   1 O :   -0.455248
   2 C :    0.603802
   3 O :   -0.416804
   4 C :   -0.743768
   5 H :    0.236049
   6 H :    0.260556
   7 H :    0.251838
   8 N :   -0.471240
   9 C :   -0.538794
  10 H :    0.312917
  11 H :    0.209229
  12 H :    0.269714
  13 C :   -0.534707
  14 H :    0.278229
  15 H :    0.225994
  16 H :    0.282279
  17 C :    0.082899
  18 C :   -0.261448
  19 C :   -0.220788
  20 C :   -0.200242
  21 C :   -0.297123
  22 C :   -0.066437
  23 H :    0.229920
  24 H :    0.235894
  25 H :    0.213093
  26 H :    0.227506
  27 H :    0.202385
  28 C :   -0.337035
  29 H :    0.272819
  30 H :    0.242098
  31 O :   -0.517737
  32 C :    0.525673
  33 O :   -0.466404
  34 C :   -0.748743
  35 H :    0.244324
  36 H :    0.234484
  37 H :    0.225794
Sum of atomic charges:    0.0000000

LOEWDIN ATOMIC CHARGES
----------------------
   0 Pd:   -0.322040
   1 O :   -0.119764
   2 C :    0.161733
   3 O :   -0.199256
   4 C :   -0.380777
   5 H :    0.146198
   6 H :    0.162217
   7 H :    0.146870
   8 N :   -0.043752
   9 C :   -0.239797
  10 H :    0.167176
  11 H :    0.115812
  12 H :    0.152668
  13 C :   -0.234379
  14 H :    0.153404
  15 H :    0.121670
  16 H :    0.157621
  17 C :   -0.062312
  18 C :   -0.128600
  19 C :   -0.127157
  20 C :   -0.128691
  21 C :   -0.116885
  22 C :   -0.004187
  23 H :    0.140287
  24 H :    0.145174
  25 H :    0.136307
  26 H :    0.139190
  27 H :    0.212933
  28 C :   -0.104973
  29 H :    0.155235
  30 H :    0.135076
  31 O :   -0.181577
  32 C :    0.077451
  33 O :   -0.275266
  34 C :   -0.384002
  35 H :    0.144451
  36 H :    0.147683
  37 H :    0.134256

  Mayer bond orders larger than 0.100000
B(  0-Pd,  1-O ) :   0.5465 B(  0-Pd,  3-O ) :   0.1179 B(  0-Pd,  8-N ) :   0.4328
B(  0-Pd, 22-C ) :   0.5519 B(  0-Pd, 27-H ) :   0.2061 B(  0-Pd, 31-O ) :   0.5736
B(  1-O ,  2-C ) :   1.3929 B(  1-O , 27-H ) :   0.1097 B(  2-C ,  3-O ) :   1.6194
B(  2-C ,  4-C ) :   0.9437 B(  3-O , 27-H ) :   0.2772 B(  4-C ,  5-H ) :   0.9152
B(  4-C ,  6-H ) :   0.9044 B(  4-C ,  7-H ) :   0.9093 B(  8-N ,  9-C ) :   0.9203
B(  8-N , 13-C ) :   0.9233 B(  8-N , 28-C ) :   0.8839 B(  9-C , 10-H ) :   0.8689
B(  9-C , 11-H ) :   0.9044 B(  9-C , 12-H ) :   0.9051 B( 13-C , 14-H ) :   0.8987
B( 13-C , 15-H ) :   0.9017 B( 13-C , 16-H ) :   0.8957 B( 17-C , 18-C ) :   1.4050
B( 17-C , 22-C ) :   1.3318 B( 17-C , 28-C ) :   0.9618 B( 18-C , 19-C ) :   1.4432
B( 18-C , 25-H ) :   0.9166 B( 19-C , 20-C ) :   1.4329 B( 19-C , 26-H ) :   0.9132
B( 20-C , 21-C ) :   1.4202 B( 20-C , 23-H ) :   0.9111 B( 21-C , 22-C ) :   1.4163
B( 21-C , 24-H ) :   0.9092 B( 22-C , 27-H ) :   0.2551 B( 28-C , 29-H ) :   0.8960
B( 28-C , 30-H ) :   0.9055 B( 31-O , 32-C ) :   1.3425 B( 32-C , 33-O ) :   1.8612
B( 32-C , 34-C ) :   0.9327 B( 34-C , 35-H ) :   0.9210 B( 34-C , 36-H ) :   0.9162
B( 34-C , 37-H ) :   0.9158

Dispersion correction           -0.025912717
FINAL SINGLE POINT ENERGY      -988.252029986173
Dispersion correction            ... done

DIPOLE MOMENT
-------------
                                X             Y             Z
Electronic contribution:     14.35644       9.23273      -8.10613
Nuclear contribution   :    -16.54916      -8.61964       9.06173
                        -----------------------------------------
Total Dipole Moment    :     -2.19271       0.61309       0.95560
                        -----------------------------------------
Magnitude (a.u.)       :      2.46922
Magnitude (Debye)      :      6.27626

Rotational constants in cm-1:     0.014384     0.008318     0.006224
Rotational constants in MHz :   431.213202   249.372339   186.599515

                             ****ORCA TERMINATED NORMALLY****
TOTAL RUN TIME: 0 days 0 hours 20 minutes 37 seconds 124 msec
