                         Program Version 5.0.3 -  RELEASE  -
|  1> ! EnGrad PBEh-3c
|  2> %output
|  3> xyzfile=True
|  4> end
|  5> %scf
|  6> maxiter 250
|  7> end
|  8> %output
|  9> Print[P_Hirshfeld] = 1
| 10> end
| 11> % maxcore
| 12> 4000
| 13> *xyz 0 1
| 14> Pd   0.34466172   0.31296400  -0.00423548
| 15> O    1.88563572   1.28451613   0.63487942
| 16> C    1.62198187   2.64230034   0.39781966
| 17> O    0.51679791   2.98041880  -0.11269554
| 18> C    2.79658901   3.58946993   0.63202297
| 19> H    2.37202033   4.51470253   1.05994736
| 20> H    3.23758160   3.91775234  -0.32576243
| 21> H    3.62666942   3.26592764   1.28636310
| 22> N   -1.41231405  -0.85215987  -1.00393244
| 23> C   -1.12086949  -2.08591199  -1.74653084
| 24> H   -0.50441730  -1.84330424  -2.61167760
| 25> H   -2.11757122  -2.44880389  -2.04810300
| 26> H   -0.62957121  -2.79134506  -1.07807989
| 27> C   -2.02690241   0.14037789  -1.91331239
| 28> H   -2.16906069   1.10060919  -1.39436848
| 29> H   -2.98461764  -0.26063855  -2.18985575
| 30> H   -1.32706544   0.27009103  -2.73494719
| 31> C   -1.79227221  -1.04093237   1.50754542
| 32> C   -1.80154281  -2.21009635   2.38811372
| 33> C   -1.48973393  -2.05127910   3.72424946
| 34> C   -1.06804880  -0.77413304   4.17169136
| 35> C   -1.01358545   0.34128380   3.28655172
| 36> C   -1.01808387   0.02671242   1.87642881
| 37> H   -0.80376183  -0.67818774   5.22407646
| 38> H   -0.66105878   1.23736594   3.70526721
| 39> H   -2.25714899  -3.13315001   2.04634985
| 40> H   -1.69364363  -2.83608145   4.43002329
| 41> H   -1.28637635   3.69854751   1.01150005
| 42> C   -2.34884475  -1.18313759   0.14777258
| 43> H   -3.14038716  -0.45088827   0.15353115
| 44> H   -2.80201034  -2.16085028  -0.03938238
| 45> O    1.66729187   0.41323702  -1.69492644
| 46> C    2.22971127  -0.55786675  -2.49004143
| 47> O    1.72871253  -1.54975541  -3.10108357
| 48> C    3.61046342  -0.20539875  -3.21041094
| 49> H    3.96765802  -1.22413612  -3.51203074
| 50> H    4.29421458   0.11954404  -2.45255563
| 51> H    3.57343182   0.48722734  -4.03044401
| 52> *
| 53>
| 54>                          ****END OF INPUT****

CARTESIAN COORDINATES (ANGSTROEM)
---------------------------------
  Pd     0.344662    0.312964   -0.004235
  O      1.885636    1.284516    0.634879
  C      1.621982    2.642300    0.397820
  O      0.516798    2.980419   -0.112696
  C      2.796589    3.589470    0.632023
  H      2.372020    4.514703    1.059947
  H      3.237582    3.917752   -0.325762
  H      3.626669    3.265928    1.286363
  N     -1.412314   -0.852160   -1.003932
  C     -1.120869   -2.085912   -1.746531
  H     -0.504417   -1.843304   -2.611678
  H     -2.117571   -2.448804   -2.048103
  H     -0.629571   -2.791345   -1.078080
  C     -2.026902    0.140378   -1.913312
  H     -2.169061    1.100609   -1.394368
  H     -2.984618   -0.260639   -2.189856
  H     -1.327065    0.270091   -2.734947
  C     -1.792272   -1.040932    1.507545
  C     -1.801543   -2.210096    2.388114
  C     -1.489734   -2.051279    3.724249
  C     -1.068049   -0.774133    4.171691
  C     -1.013585    0.341284    3.286552
  C     -1.018084    0.026712    1.876429
  H     -0.803762   -0.678188    5.224076
  H     -0.661059    1.237366    3.705267
  H     -2.257149   -3.133150    2.046350
  H     -1.693644   -2.836081    4.430023
  H     -1.286376    3.698548    1.011500
  C     -2.348845   -1.183138    0.147773
  H     -3.140387   -0.450888    0.153531
  H     -2.802010   -2.160850   -0.039382
  O      1.667292    0.413237   -1.694926
  C      2.229711   -0.557867   -2.490041
  O      1.728713   -1.549755   -3.101084
  C      3.610463   -0.205399   -3.210411
  H      3.967658   -1.224136   -3.512031
  H      4.294215    0.119544   -2.452556
  H      3.573432    0.487227   -4.030444

 Total Charge           Charge          ....    0
 Multiplicity           Mult            ....    1
 Number of Electrons    NEL             ....  154
 Basis Dimension        Dim             ....  339

ORBITAL ENERGIES
----------------

  NO   OCC          E(Eh)            E(eV)
   0   2.0000     -19.518340      -531.1210
   1   2.0000     -19.503507      -530.7174
   2   2.0000     -19.459323      -529.5151
   3   2.0000     -19.428215      -528.6686
   4   2.0000     -14.707358      -400.2076
   5   2.0000     -10.588046      -288.1154
   6   2.0000     -10.535718      -286.6915
   7   2.0000     -10.507305      -285.9183
   8   2.0000     -10.500626      -285.7365
   9   2.0000     -10.494056      -285.5578
  10   2.0000     -10.483314      -285.2655
  11   2.0000     -10.480793      -285.1969
  12   2.0000     -10.478919      -285.1459
  13   2.0000     -10.476670      -285.0847
  14   2.0000     -10.474730      -285.0319
  15   2.0000     -10.465970      -284.7935
  16   2.0000     -10.454220      -284.4738
  17   2.0000     -10.402342      -283.0621
  18   2.0000      -3.669911       -99.8634
  19   2.0000      -2.319175       -63.1080
  20   2.0000      -2.305721       -62.7419
  21   2.0000      -2.283358       -62.1333
  22   2.0000      -1.162475       -31.6326
  23   2.0000      -1.092119       -29.7181
  24   2.0000      -1.065620       -28.9970
  25   2.0000      -1.060519       -28.8582
  26   2.0000      -1.015013       -27.6199
  27   2.0000      -0.977432       -26.5973
  28   2.0000      -0.889313       -24.1994
  29   2.0000      -0.853691       -23.2301
  30   2.0000      -0.826068       -22.4785
  31   2.0000      -0.811384       -22.0789
  32   2.0000      -0.798556       -21.7298
  33   2.0000      -0.763209       -20.7680
  34   2.0000      -0.709213       -19.2987
  35   2.0000      -0.704004       -19.1569
  36   2.0000      -0.662534       -18.0285
  37   2.0000      -0.621935       -16.9237
  38   2.0000      -0.601240       -16.3606
  39   2.0000      -0.568143       -15.4600
  40   2.0000      -0.565674       -15.3928
  41   2.0000      -0.562343       -15.3021
  42   2.0000      -0.553103       -15.0507
  43   2.0000      -0.537826       -14.6350
  44   2.0000      -0.532115       -14.4796
  45   2.0000      -0.525072       -14.2879
  46   2.0000      -0.514834       -14.0093
  47   2.0000      -0.507420       -13.8076
  48   2.0000      -0.490825       -13.3560
  49   2.0000      -0.485293       -13.2055
  50   2.0000      -0.483118       -13.1463
  51   2.0000      -0.475037       -12.9264
  52   2.0000      -0.463864       -12.6224
  53   2.0000      -0.455791       -12.4027
  54   2.0000      -0.455510       -12.3951
  55   2.0000      -0.450831       -12.2677
  56   2.0000      -0.440723       -11.9927
  57   2.0000      -0.437515       -11.9054
  58   2.0000      -0.436694       -11.8830
  59   2.0000      -0.426626       -11.6091
  60   2.0000      -0.423617       -11.5272
  61   2.0000      -0.412266       -11.2183
  62   2.0000      -0.404935       -11.0188
  63   2.0000      -0.400186       -10.8896
  64   2.0000      -0.379582       -10.3290
  65   2.0000      -0.367222        -9.9926
  66   2.0000      -0.352562        -9.5937
  67   2.0000      -0.349153        -9.5009
  68   2.0000      -0.345237        -9.3944
  69   2.0000      -0.335214        -9.1216
  70   2.0000      -0.322819        -8.7843
  71   2.0000      -0.305776        -8.3206
  72   2.0000      -0.300644        -8.1809
  73   2.0000      -0.287315        -7.8182
  74   2.0000      -0.284038        -7.7291
  75   2.0000      -0.263075        -7.1586
  76   2.0000      -0.253013        -6.8848
  77   0.0000      -0.180252        -4.9049
  78   0.0000      -0.068083        -1.8526
  79   0.0000      -0.016858        -0.4587
  80   0.0000      -0.013989        -0.3807
  81   0.0000       0.029018         0.7896

MULLIKEN ATOMIC CHARGES
-----------------------
   0 Pd:    0.429059
   1 O :   -0.500626
   2 C :    0.632281
   3 O :   -0.418438
   4 C :   -0.748119
   5 H :    0.240388
   6 H :    0.271617
   7 H :    0.258902
   8 N :   -0.455471
   9 C :   -0.520431
  10 H :    0.312299
  11 H :    0.193186
  12 H :    0.253129
  13 C :   -0.529415
  14 H :    0.270205
  15 H :    0.225148
  16 H :    0.285147
  17 C :    0.082243
  18 C :   -0.238321
  19 C :   -0.195480
  20 C :   -0.239134
  21 C :   -0.262853
  22 C :   -0.093512
  23 H :    0.240269
  24 H :    0.246512
  25 H :    0.227729
  26 H :    0.241603
  27 H :    0.132536
  28 C :   -0.332176
  29 H :    0.267056
  30 H :    0.241948
  31 O :   -0.544613
  32 C :    0.547045
  33 O :   -0.482063
  34 C :   -0.720966
  35 H :    0.227278
  36 H :    0.217395
  37 H :    0.238641
Sum of atomic charges:   -0.0000000

LOEWDIN ATOMIC CHARGES
----------------------
   0 Pd:   -0.349624
   1 O :   -0.149885
   2 C :    0.243196
   3 O :   -0.202143
   4 C :   -0.378818
   5 H :    0.150361
   6 H :    0.167307
   7 H :    0.153389
   8 N :   -0.087456
   9 C :   -0.239361
  10 H :    0.170431
  11 H :    0.109469
  12 H :    0.145450
  13 C :   -0.234418
  14 H :    0.152883
  15 H :    0.120631
  16 H :    0.163039
  17 C :   -0.032474
  18 C :   -0.123081
  19 C :   -0.123382
  20 C :   -0.124596
  21 C :   -0.109462
  22 C :    0.042413
  23 H :    0.143960
  24 H :    0.151070
  25 H :    0.141989
  26 H :    0.146318
  27 H :    0.144001
  28 C :   -0.111809
  29 H :    0.155725
  30 H :    0.138977
  31 O :   -0.261093
  32 C :    0.189433
  33 O :   -0.319310
  34 C :   -0.395061
  35 H :    0.142035
  36 H :    0.126472
  37 H :    0.143425

  Mayer bond orders larger than 0.100000
B(  0-Pd,  1-O ) :   0.6828 B(  0-Pd,  3-O ) :   0.1230 B(  0-Pd,  8-N ) :   0.3803
B(  0-Pd, 22-C ) :   0.5868 B(  0-Pd, 27-H ) :   0.2655 B(  0-Pd, 31-O ) :   0.5661
B(  1-O ,  2-C ) :   1.2015 B(  2-C ,  3-O ) :   1.7136 B(  2-C ,  4-C ) :   0.9466
B(  3-O , 27-H ) :   0.1652 B(  4-C ,  5-H ) :   0.9079 B(  4-C ,  6-H ) :   0.8968
B(  4-C ,  7-H ) :   0.9055 B(  8-N ,  9-C ) :   0.9177 B(  8-N , 13-C ) :   0.9208
B(  8-N , 28-C ) :   0.8869 B(  9-C , 10-H ) :   0.8572 B(  9-C , 11-H ) :   0.9065
B(  9-C , 12-H ) :   0.9124 B( 13-C , 14-H ) :   0.8996 B( 13-C , 15-H ) :   0.9045
B( 13-C , 16-H ) :   0.8949 B( 17-C , 18-C ) :   1.3228 B( 17-C , 22-C ) :   1.3161
B( 17-C , 28-C ) :   0.9745 B( 18-C , 19-C ) :   1.4622 B( 18-C , 25-H ) :   0.9117
B( 19-C , 20-C ) :   1.3546 B( 19-C , 26-H ) :   0.9093 B( 20-C , 21-C ) :   1.4601
B( 20-C , 23-H ) :   0.9100 B( 21-C , 22-C ) :   1.3278 B( 21-C , 24-H ) :   0.9092
B( 22-C , 27-H ) :   0.2758 B( 28-C , 29-H ) :   0.8932 B( 28-C , 30-H ) :   0.9063
B( 31-O , 32-C ) :   1.2848 B( 31-O , 33-O ) :   0.1129 B( 32-C , 33-O ) :   1.8366
B( 32-C , 34-C ) :   0.9133 B( 34-C , 35-H ) :   0.9252 B( 34-C , 36-H ) :   0.9147
B( 34-C , 37-H ) :   0.9196

Dispersion correction           -0.025610484
FINAL SINGLE POINT ENERGY      -988.176592391880
Dispersion correction            ... done

DIPOLE MOMENT
-------------
                                X             Y             Z
Electronic contribution:     12.93333      16.01028       2.51114
Nuclear contribution   :    -14.96631     -15.72803      -0.51526
                        -----------------------------------------
Total Dipole Moment    :     -2.03297       0.28225       1.99588
                        -----------------------------------------
Magnitude (a.u.)       :      2.86290
Magnitude (Debye)      :      7.27691

Rotational constants in cm-1:     0.013344     0.008398     0.006273
Rotational constants in MHz :   400.053563   251.778338   188.067463

                             ****ORCA TERMINATED NORMALLY****
TOTAL RUN TIME: 0 days 0 hours 12 minutes 2 seconds 728 msec
