                         Program Version 5.0.3 -  RELEASE  -
|  1> ! EnGrad PBEh-3c
|  2> %output
|  3> xyzfile=True
|  4> end
|  5> %scf
|  6> maxiter 250
|  7> end
|  8> %output
|  9> Print[P_Hirshfeld] = 1
| 10> end
| 11> % maxcore
| 12> 4000
| 13> *xyz 0 1
| 14> Pd   0.37138549   0.21997536  -0.12256177
| 15> O    1.93576078   1.31676569   0.62213857
| 16> C    1.73514010   2.60588433   0.40136847
| 17> O    0.66383327   3.00041509  -0.09677373
| 18> C    2.89340952   3.56218637   0.66528244
| 19> H    2.50463075   4.48952272   1.10747821
| 20> H    3.33676598   3.85430868  -0.29319693
| 21> H    3.67242730   3.16280341   1.30533412
| 22> N   -1.34122331  -0.90623321  -0.95745449
| 23> C   -1.01554379  -2.20789458  -1.52691056
| 24> H   -0.32104423  -2.09563347  -2.33470369
| 25> H   -1.92987967  -2.65316472  -1.92949794
| 26> H   -0.57832086  -2.83097960  -0.76606387
| 27> C   -1.92138909  -0.07758831  -2.00677026
| 28> H   -2.06987559   0.93140405  -1.65765072
| 29> H   -2.87490839  -0.49745315  -2.30681599
| 30> H   -1.24899805  -0.06209295  -2.85027667
| 31> C   -1.79816803  -1.09212646   1.49500376
| 32> C   -2.10678582  -2.06803788   2.44113178
| 33> C   -1.78020759  -1.92309420   3.77500265
| 34> C   -1.07672320  -0.83443172   4.18046785
| 35> C   -0.79051739   0.14714310   3.24817939
| 36> C   -1.03691356  -0.02522913   1.88779410
| 37> H   -0.80190299  -0.72269220   5.22306453
| 38> H   -0.30026695   0.97990459   3.64595923
| 39> H   -2.73813974  -2.86963125   2.16878158
| 40> H   -2.11214830  -2.61215681   4.51605052
| 41> H   -1.12003192   3.80168498   0.90877181
| 42> C   -2.35819165  -1.11739281   0.13255933
| 43> H   -3.08723707  -0.31700748   0.10232547
| 44> H   -2.93216473  -2.02039375  -0.05149602
| 45> O    1.55282401   0.49610725  -1.81642083
| 46> C    2.20969506  -0.37929736  -2.49814514
| 47> O    1.97687492  -1.50353790  -2.54263735
| 48> C    3.38614714   0.01339628  -3.37559591
| 49> H    3.74696731  -0.89225253  -3.84831130
| 50> H    4.17598941   0.37594565  -2.73840384
| 51> H    3.18105374   0.75371762  -4.11096451
| 52> *
| 53>
| 54>                          ****END OF INPUT****

CARTESIAN COORDINATES (ANGSTROEM)
---------------------------------
  Pd     0.371385    0.219975   -0.122562
  O      1.935761    1.316766    0.622139
  C      1.735140    2.605884    0.401368
  O      0.663833    3.000415   -0.096774
  C      2.893410    3.562186    0.665282
  H      2.504631    4.489523    1.107478
  H      3.336766    3.854309   -0.293197
  H      3.672427    3.162803    1.305334
  N     -1.341223   -0.906233   -0.957454
  C     -1.015544   -2.207895   -1.526911
  H     -0.321044   -2.095633   -2.334704
  H     -1.929880   -2.653165   -1.929498
  H     -0.578321   -2.830980   -0.766064
  C     -1.921389   -0.077588   -2.006770
  H     -2.069876    0.931404   -1.657651
  H     -2.874908   -0.497453   -2.306816
  H     -1.248998   -0.062093   -2.850277
  C     -1.798168   -1.092126    1.495004
  C     -2.106786   -2.068038    2.441132
  C     -1.780208   -1.923094    3.775003
  C     -1.076723   -0.834432    4.180468
  C     -0.790517    0.147143    3.248179
  C     -1.036914   -0.025229    1.887794
  H     -0.801903   -0.722692    5.223065
  H     -0.300267    0.979905    3.645959
  H     -2.738140   -2.869631    2.168782
  H     -2.112148   -2.612157    4.516051
  H     -1.120032    3.801685    0.908772
  C     -2.358192   -1.117393    0.132559
  H     -3.087237   -0.317007    0.102325
  H     -2.932165   -2.020394   -0.051496
  O      1.552824    0.496107   -1.816421
  C      2.209695   -0.379297   -2.498145
  O      1.976875   -1.503538   -2.542637
  C      3.386147    0.013396   -3.375596
  H      3.746967   -0.892253   -3.848311
  H      4.175989    0.375946   -2.738404
  H      3.181054    0.753718   -4.110965

 Total Charge           Charge          ....    0
 Multiplicity           Mult            ....    1
 Number of Electrons    NEL             ....  154
 Basis Dimension        Dim             ....  339

ORBITAL ENERGIES
----------------

  NO   OCC          E(Eh)            E(eV)
   0   2.0000     -19.510893      -530.9184
   1   2.0000     -19.494473      -530.4716
   2   2.0000     -19.446755      -529.1731
   3   2.0000     -19.411563      -528.2155
   4   2.0000     -14.716232      -400.4490
   5   2.0000     -10.572735      -287.6987
   6   2.0000     -10.505617      -285.8724
   7   2.0000     -10.495802      -285.6053
   8   2.0000     -10.479923      -285.1732
   9   2.0000     -10.475260      -285.0463
  10   2.0000     -10.472214      -284.9634
  11   2.0000     -10.464192      -284.7451
  12   2.0000     -10.459008      -284.6041
  13   2.0000     -10.457111      -284.5524
  14   2.0000     -10.456031      -284.5231
  15   2.0000     -10.454795      -284.4894
  16   2.0000     -10.442415      -284.1526
  17   2.0000     -10.393673      -282.8262
  18   2.0000      -3.661566       -99.6363
  19   2.0000      -2.308939       -62.8294
  20   2.0000      -2.299894       -62.5833
  21   2.0000      -2.274065       -61.8805
  22   2.0000      -1.175196       -31.9787
  23   2.0000      -1.158068       -31.5126
  24   2.0000      -1.076259       -29.2865
  25   2.0000      -1.073269       -29.2051
  26   2.0000      -1.043842       -28.4044
  27   2.0000      -0.979743       -26.6602
  28   2.0000      -0.891429       -24.2570
  29   2.0000      -0.845258       -23.0006
  30   2.0000      -0.820968       -22.3397
  31   2.0000      -0.818114       -22.2620
  32   2.0000      -0.801892       -21.8206
  33   2.0000      -0.781779       -21.2733
  34   2.0000      -0.715451       -19.4684
  35   2.0000      -0.700027       -19.0487
  36   2.0000      -0.663611       -18.0578
  37   2.0000      -0.613061       -16.6822
  38   2.0000      -0.600352       -16.3364
  39   2.0000      -0.573001       -15.5922
  40   2.0000      -0.569193       -15.4885
  41   2.0000      -0.566745       -15.4219
  42   2.0000      -0.555400       -15.1132
  43   2.0000      -0.535279       -14.5657
  44   2.0000      -0.532013       -14.4768
  45   2.0000      -0.525392       -14.2966
  46   2.0000      -0.515031       -14.0147
  47   2.0000      -0.513375       -13.9697
  48   2.0000      -0.501601       -13.6493
  49   2.0000      -0.488738       -13.2992
  50   2.0000      -0.486125       -13.2281
  51   2.0000      -0.484036       -13.1713
  52   2.0000      -0.474698       -12.9172
  53   2.0000      -0.465203       -12.6588
  54   2.0000      -0.456414       -12.4197
  55   2.0000      -0.453407       -12.3378
  56   2.0000      -0.442759       -12.0481
  57   2.0000      -0.439160       -11.9501
  58   2.0000      -0.435842       -11.8599
  59   2.0000      -0.424245       -11.5443
  60   2.0000      -0.419754       -11.4221
  61   2.0000      -0.414519       -11.2796
  62   2.0000      -0.407277       -11.0826
  63   2.0000      -0.402452       -10.9513
  64   2.0000      -0.377539       -10.2734
  65   2.0000      -0.358578        -9.7574
  66   2.0000      -0.352290        -9.5863
  67   2.0000      -0.343137        -9.3372
  68   2.0000      -0.335192        -9.1210
  69   2.0000      -0.333029        -9.0622
  70   2.0000      -0.328906        -8.9500
  71   2.0000      -0.302914        -8.2427
  72   2.0000      -0.301318        -8.1993
  73   2.0000      -0.291400        -7.9294
  74   2.0000      -0.284110        -7.7310
  75   2.0000      -0.265930        -7.2363
  76   2.0000      -0.258468        -7.0333
  77   0.0000      -0.185694        -5.0530
  78   0.0000      -0.065642        -1.7862
  79   0.0000       0.003871         0.1053
  80   0.0000       0.007719         0.2101
  81   0.0000       0.052076         1.4171

MULLIKEN ATOMIC CHARGES
-----------------------
   0 Pd:    0.406008
   1 O :   -0.471155
   2 C :    0.616142
   3 O :   -0.417911
   4 C :   -0.744742
   5 H :    0.236645
   6 H :    0.263900
   7 H :    0.253752
   8 N :   -0.464139
   9 C :   -0.533548
  10 H :    0.310731
  11 H :    0.205237
  12 H :    0.264880
  13 C :   -0.532476
  14 H :    0.276915
  15 H :    0.224621
  16 H :    0.282138
  17 C :    0.088961
  18 C :   -0.251697
  19 C :   -0.219870
  20 C :   -0.201980
  21 C :   -0.306210
  22 C :   -0.068858
  23 H :    0.231309
  24 H :    0.238167
  25 H :    0.214112
  26 H :    0.230055
  27 H :    0.186557
  28 C :   -0.336913
  29 H :    0.271002
  30 H :    0.241569
  31 O :   -0.539422
  32 C :    0.520182
  33 O :   -0.412773
  34 C :   -0.753400
  35 H :    0.237555
  36 H :    0.226820
  37 H :    0.227837
Sum of atomic charges:    0.0000000

LOEWDIN ATOMIC CHARGES
----------------------
   0 Pd:   -0.331459
   1 O :   -0.131237
   2 C :    0.186783
   3 O :   -0.200695
   4 C :   -0.379772
   5 H :    0.146977
   6 H :    0.163701
   7 H :    0.148342
   8 N :   -0.053970
   9 C :   -0.239656
  10 H :    0.166341
  11 H :    0.113789
  12 H :    0.150295
  13 C :   -0.234238
  14 H :    0.153099
  15 H :    0.120866
  16 H :    0.158610
  17 C :   -0.055566
  18 C :   -0.128877
  19 C :   -0.124182
  20 C :   -0.128937
  21 C :   -0.114607
  22 C :    0.004708
  23 H :    0.141112
  24 H :    0.145770
  25 H :    0.136887
  26 H :    0.140239
  27 H :    0.197620
  28 C :   -0.106135
  29 H :    0.155265
  30 H :    0.135691
  31 O :   -0.210761
  32 C :    0.066217
  33 O :   -0.218744
  34 C :   -0.390723
  35 H :    0.141651
  36 H :    0.140231
  37 H :    0.135365

  Mayer bond orders larger than 0.100000
B(  0-Pd,  1-O ) :   0.5868 B(  0-Pd,  3-O ) :   0.1184 B(  0-Pd,  8-N ) :   0.4174
B(  0-Pd, 22-C ) :   0.5610 B(  0-Pd, 27-H ) :   0.2198 B(  0-Pd, 31-O ) :   0.5907
B(  1-O ,  2-C ) :   1.3350 B(  1-O , 27-H ) :   0.1027 B(  2-C ,  3-O ) :   1.6472
B(  2-C ,  4-C ) :   0.9448 B(  3-O , 27-H ) :   0.2448 B(  4-C ,  5-H ) :   0.9135
B(  4-C ,  6-H ) :   0.9024 B(  4-C ,  7-H ) :   0.9083 B(  8-N ,  9-C ) :   0.9238
B(  8-N , 13-C ) :   0.9244 B(  8-N , 28-C ) :   0.8851 B(  9-C , 10-H ) :   0.8692
B(  9-C , 11-H ) :   0.9050 B(  9-C , 12-H ) :   0.9076 B( 13-C , 14-H ) :   0.8989
B( 13-C , 15-H ) :   0.9029 B( 13-C , 16-H ) :   0.8960 B( 17-C , 18-C ) :   1.4071
B( 17-C , 22-C ) :   1.3130 B( 17-C , 28-C ) :   0.9631 B( 18-C , 19-C ) :   1.4359
B( 18-C , 25-H ) :   0.9159 B( 19-C , 20-C ) :   1.4293 B( 19-C , 26-H ) :   0.9122
B( 20-C , 21-C ) :   1.4222 B( 20-C , 23-H ) :   0.9111 B( 21-C , 22-C ) :   1.4121
B( 21-C , 24-H ) :   0.9092 B( 22-C , 27-H ) :   0.2666 B( 28-C , 29-H ) :   0.8962
B( 28-C , 30-H ) :   0.9063 B( 31-O , 32-C ) :   1.3031 B( 32-C , 33-O ) :   1.9428
B( 32-C , 34-C ) :   0.9186 B( 34-C , 35-H ) :   0.9257 B( 34-C , 36-H ) :   0.9186
B( 34-C , 37-H ) :   0.9183

Dispersion correction           -0.025882254
FINAL SINGLE POINT ENERGY      -988.241820897315
Dispersion correction            ... done

DIPOLE MOMENT
-------------
                                X             Y             Z
Electronic contribution:     13.96012      11.09416      -5.11909
Nuclear contribution   :    -16.09730     -10.64890       6.32776
                        -----------------------------------------
Total Dipole Moment    :     -2.13718       0.44526       1.20867
                        -----------------------------------------
Magnitude (a.u.)       :      2.49533
Magnitude (Debye)      :      6.34262

Rotational constants in cm-1:     0.014136     0.008365     0.006247
Rotational constants in MHz :   423.788228   250.785498   187.294763

                             ****ORCA TERMINATED NORMALLY****
TOTAL RUN TIME: 0 days 0 hours 13 minutes 28 seconds 888 msec
