                         Program Version 5.0.3 -  RELEASE  -
|  1> ! EnGrad PBEh-3c
|  2> %output
|  3> xyzfile=True
|  4> end
|  5> %scf
|  6> maxiter 250
|  7> end
|  8> %output
|  9> Print[P_Hirshfeld] = 1
| 10> end
| 11> % maxcore
| 12> 4000
| 13> *xyz 0 1
| 14> Pd   0.29859965   0.43275596   0.13479321
| 15> O    1.77155121   1.34274114   0.66437673
| 16> C    1.42061108   2.61550376   0.35692219
| 17> O    0.37227981   2.92674526  -0.09436924
| 18> C    2.64733355   3.64322510   0.58978897
| 19> H    2.17155038   4.54515834   0.98599347
| 20> H    3.07509968   3.99978694  -0.36877720
| 21> H    3.53158031   3.41862946   1.24188021
| 22> N   -1.49725049  -0.73674298  -1.01722625
| 23> C   -1.29261786  -1.88209399  -2.07213899
| 24> H   -0.78024603  -1.46803814  -3.03249696
| 25> H   -2.39930005  -2.16166681  -2.24040985
| 26> H   -0.70589264  -2.74253371  -1.56464329
| 27> C   -2.17294152   0.47432634  -1.74495282
| 28> H   -2.31879083   1.36064827  -0.98808641
| 29> H   -3.16562666   0.10244779  -2.04245712
| 30> H   -1.45941131   0.78108020  -2.57389958
| 31> C   -1.72942727  -1.04626300   1.52444295
| 32> C   -1.38584981  -2.39183019   2.30479096
| 33> C   -1.02530340  -2.24276220   3.63548433
| 34> C   -1.08711827  -0.67103826   4.16665514
| 35> C   -1.28055745   0.59157791   3.33138156
| 36> C   -1.03584863   0.15687256   1.88517878
| 37> H   -0.81394481  -0.59470508   5.21737849
| 38> H   -1.20889483   1.67793336   3.80398603
| 39> H   -1.51838855  -3.55567234   1.84871435
| 40> H   -1.04150519  -3.20271795   4.30393240
| 41> H   -1.53999990   3.53319741   1.16688762
| 42> C   -2.32533847  -1.26700757   0.15239731
| 43> H   -3.23780847  -0.63911391   0.21878446
| 44> H   -2.60621361  -2.37579860  -0.01598110
| 45> O    1.95920378   0.14101348  -1.51674273
| 46> C    2.32620658  -0.28376963  -2.49585358
| 47> O    1.09992382  -2.10854485  -3.97311273
| 48> C    3.96150450  -0.56490395  -2.88259074
| 49> H    4.29904579  -1.68598492  -3.00704286
| 50> H    4.52028557  -0.22477813  -1.99062650
| 51> H    4.17584592   0.10073056  -3.93466587
| 52> *
| 53>
| 54>                          ****END OF INPUT****

CARTESIAN COORDINATES (ANGSTROEM)
---------------------------------
  Pd     0.298600    0.432756    0.134793
  O      1.771551    1.342741    0.664377
  C      1.420611    2.615504    0.356922
  O      0.372280    2.926745   -0.094369
  C      2.647334    3.643225    0.589789
  H      2.171550    4.545158    0.985993
  H      3.075100    3.999787   -0.368777
  H      3.531580    3.418629    1.241880
  N     -1.497250   -0.736743   -1.017226
  C     -1.292618   -1.882094   -2.072139
  H     -0.780246   -1.468038   -3.032497
  H     -2.399300   -2.161667   -2.240410
  H     -0.705893   -2.742534   -1.564643
  C     -2.172942    0.474326   -1.744953
  H     -2.318791    1.360648   -0.988086
  H     -3.165627    0.102448   -2.042457
  H     -1.459411    0.781080   -2.573900
  C     -1.729427   -1.046263    1.524443
  C     -1.385850   -2.391830    2.304791
  C     -1.025303   -2.242762    3.635484
  C     -1.087118   -0.671038    4.166655
  C     -1.280557    0.591578    3.331382
  C     -1.035849    0.156873    1.885179
  H     -0.813945   -0.594705    5.217378
  H     -1.208895    1.677933    3.803986
  H     -1.518389   -3.555672    1.848714
  H     -1.041505   -3.202718    4.303932
  H     -1.540000    3.533197    1.166888
  C     -2.325338   -1.267008    0.152397
  H     -3.237808   -0.639114    0.218784
  H     -2.606214   -2.375799   -0.015981
  O      1.959204    0.141013   -1.516743
  C      2.326207   -0.283770   -2.495854
  O      1.099924   -2.108545   -3.973113
  C      3.961505   -0.564904   -2.882591
  H      4.299046   -1.685985   -3.007043
  H      4.520286   -0.224778   -1.990627
  H      4.175846    0.100731   -3.934666

 Total Charge           Charge          ....    0
 Multiplicity           Mult            ....    1
 Number of Electrons    NEL             ....  154
 Basis Dimension        Dim             ....  339

ORBITAL ENERGIES
----------------

  NO   OCC          E(Eh)            E(eV)
   0   2.0000     -19.586479      -532.9752
   1   2.0000     -19.515254      -531.0371
   2   2.0000     -19.492570      -530.4198
   3   2.0000     -19.443629      -529.0880
   4   2.0000     -14.700595      -400.0235
   5   2.0000     -10.584659      -288.0232
   6   2.0000     -10.579013      -287.8696
   7   2.0000     -10.532153      -286.5945
   8   2.0000     -10.521766      -286.3118
   9   2.0000     -10.514157      -286.1048
  10   2.0000     -10.514052      -286.1019
  11   2.0000     -10.511501      -286.0325
  12   2.0000     -10.508667      -285.9554
  13   2.0000     -10.504647      -285.8460
  14   2.0000     -10.502475      -285.7869
  15   2.0000     -10.493791      -285.5506
  16   2.0000     -10.483603      -285.2733
  17   2.0000     -10.448254      -284.3114
  18   2.0000      -3.669100       -99.8413
  19   2.0000      -2.324119       -63.2425
  20   2.0000      -2.305707       -62.7415
  21   2.0000      -2.283153       -62.1278
  22   2.0000      -1.270557       -34.5736
  23   2.0000      -1.204810       -32.7845
  24   2.0000      -1.100384       -29.9430
  25   2.0000      -1.016604       -27.6632
  26   2.0000      -0.935144       -25.4466
  27   2.0000      -0.874183       -23.7877
  28   2.0000      -0.849862       -23.1259
  29   2.0000      -0.839084       -22.8326
  30   2.0000      -0.802279       -21.8311
  31   2.0000      -0.798027       -21.7154
  32   2.0000      -0.780008       -21.2251
  33   2.0000      -0.763310       -20.7707
  34   2.0000      -0.691560       -18.8183
  35   2.0000      -0.668477       -18.1902
  36   2.0000      -0.661801       -18.0085
  37   2.0000      -0.640504       -17.4290
  38   2.0000      -0.624617       -16.9967
  39   2.0000      -0.566750       -15.4221
  40   2.0000      -0.553680       -15.0664
  41   2.0000      -0.548008       -14.9121
  42   2.0000      -0.539600       -14.6833
  43   2.0000      -0.538747       -14.6601
  44   2.0000      -0.536961       -14.6115
  45   2.0000      -0.533578       -14.5194
  46   2.0000      -0.524437       -14.2707
  47   2.0000      -0.517972       -14.0947
  48   2.0000      -0.513962       -13.9856
  49   2.0000      -0.509432       -13.8624
  50   2.0000      -0.482525       -13.1302
  51   2.0000      -0.481169       -13.0933
  52   2.0000      -0.461910       -12.5692
  53   2.0000      -0.455480       -12.3942
  54   2.0000      -0.454357       -12.3637
  55   2.0000      -0.452027       -12.3003
  56   2.0000      -0.446766       -12.1571
  57   2.0000      -0.441584       -12.0161
  58   2.0000      -0.438456       -11.9310
  59   2.0000      -0.424598       -11.5539
  60   2.0000      -0.419251       -11.4084
  61   2.0000      -0.417566       -11.3626
  62   2.0000      -0.411199       -11.1893
  63   2.0000      -0.405993       -11.0476
  64   2.0000      -0.400669       -10.9028
  65   2.0000      -0.374201       -10.1825
  66   2.0000      -0.352953        -9.6043
  67   2.0000      -0.347547        -9.4572
  68   2.0000      -0.342320        -9.3150
  69   2.0000      -0.330228        -8.9860
  70   2.0000      -0.312793        -8.5115
  71   2.0000      -0.299197        -8.1416
  72   2.0000      -0.283368        -7.7108
  73   2.0000      -0.261389        -7.1128
  74   2.0000      -0.259175        -7.0525
  75   2.0000      -0.233138        -6.3440
  76   2.0000      -0.202651        -5.5144
  77   0.0000      -0.164682        -4.4812
  78   0.0000      -0.085391        -2.3236
  79   0.0000      -0.061365        -1.6698
  80   0.0000      -0.043747        -1.1904
  81   0.0000      -0.025773        -0.7013

MULLIKEN ATOMIC CHARGES
-----------------------
   0 Pd:    0.399109
   1 O :   -0.547855
   2 C :    0.591918
   3 O :   -0.369629
   4 C :   -0.763381
   5 H :    0.245104
   6 H :    0.243923
   7 H :    0.245685
   8 N :   -0.465302
   9 C :   -0.492169
  10 H :    0.297767
  11 H :    0.185147
  12 H :    0.239268
  13 C :   -0.515483
  14 H :    0.266379
  15 H :    0.228966
  16 H :    0.261412
  17 C :    0.051391
  18 C :   -0.204846
  19 C :   -0.216553
  20 C :   -0.252668
  21 C :   -0.238679
  22 C :   -0.081970
  23 H :    0.241425
  24 H :    0.258293
  25 H :    0.224004
  26 H :    0.238275
  27 H :    0.006721
  28 C :   -0.303506
  29 H :    0.254137
  30 H :    0.234756
  31 O :   -0.178259
  32 C :    0.255208
  33 O :   -0.406400
  34 C :   -0.680916
  35 H :    0.271994
  36 H :    0.248382
  37 H :    0.228351
Sum of atomic charges:   -0.0000000

LOEWDIN ATOMIC CHARGES
----------------------
   0 Pd:   -0.399226
   1 O :   -0.157776
   2 C :    0.188154
   3 O :   -0.138616
   4 C :   -0.399383
   5 H :    0.147193
   6 H :    0.148775
   7 H :    0.145679
   8 N :   -0.140525
   9 C :   -0.239540
  10 H :    0.175342
  11 H :    0.109952
  12 H :    0.144896
  13 C :   -0.233691
  14 H :    0.160166
  15 H :    0.124055
  16 H :    0.157229
  17 C :   -0.015018
  18 C :   -0.124736
  19 C :   -0.149154
  20 C :   -0.114813
  21 C :   -0.119455
  22 C :    0.071366
  23 H :    0.142848
  24 H :    0.174229
  25 H :    0.150690
  26 H :    0.158289
  27 H :    0.012190
  28 C :   -0.118390
  29 H :    0.151246
  30 H :    0.141999
  31 O :    0.063734
  32 C :    0.107400
  33 O :   -0.426272
  34 C :   -0.375355
  35 H :    0.171776
  36 H :    0.142634
  37 H :    0.162107

  Mayer bond orders larger than 0.100000
B(  0-Pd,  1-O ) :   0.7204 B(  0-Pd,  3-O ) :   0.1296 B(  0-Pd,  8-N ) :   0.3525
B(  0-Pd, 22-C ) :   0.6890 B(  0-Pd, 27-H ) :   0.1729 B(  0-Pd, 31-O ) :   0.2209
B(  1-O ,  2-C ) :   1.1371 B(  2-C ,  3-O ) :   1.8817 B(  2-C ,  4-C ) :   0.9160
B(  4-C ,  5-H ) :   0.9095 B(  4-C ,  6-H ) :   0.9110 B(  4-C ,  7-H ) :   0.9117
B(  8-N ,  9-C ) :   0.8691 B(  8-N , 13-C ) :   0.9036 B(  8-N , 28-C ) :   0.8823
B(  9-C , 10-H ) :   0.8438 B(  9-C , 11-H ) :   0.9075 B(  9-C , 12-H ) :   0.9151
B( 13-C , 14-H ) :   0.8929 B( 13-C , 15-H ) :   0.9020 B( 13-C , 16-H ) :   0.9034
B( 17-C , 18-C ) :   1.1845 B( 17-C , 22-C ) :   1.3430 B( 17-C , 28-C ) :   0.9633
B( 18-C , 19-C ) :   1.5584 B( 18-C , 25-H ) :   0.9039 B( 19-C , 20-C ) :   1.1830
B( 19-C , 26-H ) :   0.9072 B( 20-C , 21-C ) :   1.5267 B( 20-C , 23-H ) :   0.9047
B( 21-C , 22-C ) :   1.2207 B( 21-C , 24-H ) :   0.8962 B( 22-C , 27-H ) :   0.1872
B( 27-H , 32-C ) :   0.1403 B( 27-H , 33-O ) :   0.1458 B( 28-C , 29-H ) :   0.8918
B( 28-C , 30-H ) :   0.9089 B( 31-O , 32-C ) :   2.0577 B( 32-C , 33-O ) :   0.3949
B( 32-C , 34-C ) :   0.7622 B( 34-C , 35-H ) :   0.8963 B( 34-C , 36-H ) :   0.8777
B( 34-C , 37-H ) :   0.9168

Dispersion correction           -0.024836941
FINAL SINGLE POINT ENERGY      -987.674169707748
Dispersion correction            ... done

DIPOLE MOMENT
-------------
                                X             Y             Z
Electronic contribution:     12.66431      22.61252      10.31236
Nuclear contribution   :    -13.00378     -22.64158      -8.64898
                        -----------------------------------------
Total Dipole Moment    :     -0.33947      -0.02905       1.66338
                        -----------------------------------------
Magnitude (a.u.)       :      1.69792
Magnitude (Debye)      :      4.31576

Rotational constants in cm-1:     0.011712     0.008287     0.006189
Rotational constants in MHz :   351.124510   248.438709   185.533018

                             ****ORCA TERMINATED NORMALLY****
TOTAL RUN TIME: 0 days 0 hours 23 minutes 51 seconds 740 msec
