                         Program Version 5.0.3 -  RELEASE  -
|  1> ! EnGrad PBEh-3c
|  2> %output
|  3> xyzfile=True
|  4> end
|  5> %scf
|  6> maxiter 250
|  7> end
|  8> %output
|  9> Print[P_Hirshfeld] = 1
| 10> end
| 11> % maxcore
| 12> 4000
| 13> %pal nprocs 4
| 14> end
| 15> *xyz -1 1
| 16> C   -1.50218000   0.06203000   0.51663000
| 17> C   -1.46090000   0.96305000   1.59123000
| 18> C   -2.57958000   0.19108000  -0.37453000
| 19> C   -3.55016000   1.17252000  -0.24857000
| 20> C   -3.48161000   2.07311000   0.80323000
| 21> C   -2.44642000   1.94972000   1.71012000
| 22> H   -1.27869000  -3.25956000  -2.49150000
| 23> H   -2.67772000  -0.51051000  -1.19202000
| 24> H   -2.38875000   2.64307000   2.54470000
| 25> H   -4.35687000   1.23081000  -0.97070000
| 26> H   -4.22147000   2.85650000   0.91841000
| 27> C   -0.45196000   0.94982000   2.72386000
| 28> C    0.87993000   0.23290000   2.53004000
| 29> H   -0.94037000   0.52556000   3.60910000
| 30> H   -0.23069000   1.99052000   2.98350000
| 31> C    1.57703000   0.66499000   1.27236000
| 32> H    0.72999000  -0.84875000   2.52800000
| 33> H    1.50429000   0.45260000   3.40272000
| 34> C    1.19078000   0.10492000   0.04780000
| 35> C    1.82740000   0.56728000  -1.10567000
| 36> C    2.80845000   1.55203000  -1.05568000
| 37> C    2.56100000   1.64746000   1.31876000
| 38> C    3.18177000   2.09749000   0.16180000
| 39> H    1.58354000   0.14125000  -2.07378000
| 40> H    3.28618000   1.88196000  -1.97111000
| 41> H    2.84858000   2.06570000   2.27886000
| 42> H    3.95012000   2.85950000   0.21348000
| 43> Pd  -0.14882000  -1.37181000   0.01618000
| 44> Br  -1.78841000  -3.38354000  -0.06783000
| 45> P    1.52142000  -2.92571000  -0.53265000
| 46> H    1.96079000  -3.73449000   0.53352000
| 47> C   -0.26943000  -2.02173000  -3.54567000
| 48> O    0.73410000  -1.78149000  -4.15800000
| 49> O   -0.67900000  -3.24119000  -3.26690000
| 50> O   -1.12321000  -1.09676000  -3.09955000
| 51> H    2.79847000  -2.51114000  -0.96174000
| 52> H    1.33740000  -3.96076000  -1.46443000
| 53> H   -0.70505000  -0.22844000  -3.12397000
| 54> *
| 55>
| 56>                          ****END OF INPUT****

CARTESIAN COORDINATES (ANGSTROEM)
---------------------------------
  C     -1.502180    0.062030    0.516630
  C     -1.460900    0.963050    1.591230
  C     -2.579580    0.191080   -0.374530
  C     -3.550160    1.172520   -0.248570
  C     -3.481610    2.073110    0.803230
  C     -2.446420    1.949720    1.710120
  H     -1.278690   -3.259560   -2.491500
  H     -2.677720   -0.510510   -1.192020
  H     -2.388750    2.643070    2.544700
  H     -4.356870    1.230810   -0.970700
  H     -4.221470    2.856500    0.918410
  C     -0.451960    0.949820    2.723860
  C      0.879930    0.232900    2.530040
  H     -0.940370    0.525560    3.609100
  H     -0.230690    1.990520    2.983500
  C      1.577030    0.664990    1.272360
  H      0.729990   -0.848750    2.528000
  H      1.504290    0.452600    3.402720
  C      1.190780    0.104920    0.047800
  C      1.827400    0.567280   -1.105670
  C      2.808450    1.552030   -1.055680
  C      2.561000    1.647460    1.318760
  C      3.181770    2.097490    0.161800
  H      1.583540    0.141250   -2.073780
  H      3.286180    1.881960   -1.971110
  H      2.848580    2.065700    2.278860
  H      3.950120    2.859500    0.213480
  Pd    -0.148820   -1.371810    0.016180
  Br    -1.788410   -3.383540   -0.067830
  P      1.521420   -2.925710   -0.532650
  H      1.960790   -3.734490    0.533520
  C     -0.269430   -2.021730   -3.545670
  O      0.734100   -1.781490   -4.158000
  O     -0.679000   -3.241190   -3.266900
  O     -1.123210   -1.096760   -3.099550
  H      2.798470   -2.511140   -0.961740
  H      1.337400   -3.960760   -1.464430
  H     -0.705050   -0.228440   -3.123970

 Total Charge           Charge          ....   -1
 Multiplicity           Mult            ....    1
 Number of Electrons    NEL             ....  200
 Basis Dimension        Dim             ....  385

ORBITAL ENERGIES
----------------

  NO   OCC          E(Eh)            E(eV)
   0   2.0000    -484.327305    -13179.2160
   1   2.0000     -77.651984     -2113.0179
   2   2.0000     -62.988675     -1714.0090
   3   2.0000     -56.692213     -1542.6735
   4   2.0000     -56.691444     -1542.6526
   5   2.0000     -56.691334     -1542.6496
   6   2.0000     -19.441805      -529.0384
   7   2.0000     -19.427736      -528.6556
   8   2.0000     -19.372757      -527.1595
   9   2.0000     -10.519181      -286.2415
  10   2.0000     -10.330380      -281.1039
  11   2.0000     -10.329889      -281.0906
  12   2.0000     -10.329328      -281.0753
  13   2.0000     -10.327403      -281.0229
  14   2.0000     -10.324799      -280.9521
  15   2.0000     -10.324226      -280.9365
  16   2.0000     -10.322821      -280.8982
  17   2.0000     -10.321780      -280.8699
  18   2.0000     -10.321527      -280.8630
  19   2.0000     -10.318289      -280.7749
  20   2.0000     -10.316296      -280.7207
  21   2.0000     -10.315231      -280.6917
  22   2.0000     -10.307839      -280.4906
  23   2.0000     -10.304432      -280.3978
  24   2.0000      -8.815943      -239.8940
  25   2.0000      -6.728503      -183.0919
  26   2.0000      -6.584386      -179.1703
  27   2.0000      -6.581776      -179.0992
  28   2.0000      -6.580432      -179.0627
  29   2.0000      -4.819314      -131.1402
  30   2.0000      -4.819173      -131.1364
  31   2.0000      -4.817304      -131.0855
  32   2.0000      -3.504245       -95.3554
  33   2.0000      -2.598664       -70.7132
  34   2.0000      -2.598241       -70.7017
  35   2.0000      -2.597147       -70.6720
  36   2.0000      -2.594857       -70.6097
  37   2.0000      -2.594671       -70.6046
  38   2.0000      -2.149173       -58.4820
  39   2.0000      -2.146033       -58.3965
  40   2.0000      -2.120111       -57.6911
  41   2.0000      -1.157059       -31.4852
  42   2.0000      -1.052302       -28.6346
  43   2.0000      -1.024401       -27.8754
  44   2.0000      -0.838120       -22.8064
  45   2.0000      -0.822042       -22.3689
  46   2.0000      -0.771158       -20.9843
  47   2.0000      -0.721752       -19.6399
  48   2.0000      -0.710075       -19.3221
  49   2.0000      -0.694421       -18.8962
  50   2.0000      -0.673206       -18.3189
  51   2.0000      -0.644634       -17.5414
  52   2.0000      -0.629837       -17.1387
  53   2.0000      -0.621427       -16.9099
  54   2.0000      -0.598250       -16.2792
  55   2.0000      -0.558858       -15.2073
  56   2.0000      -0.557990       -15.1837
  57   2.0000      -0.541243       -14.7280
  58   2.0000      -0.536971       -14.6117
  59   2.0000      -0.508908       -13.8481
  60   2.0000      -0.457024       -12.4363
  61   2.0000      -0.456026       -12.4091
  62   2.0000      -0.446495       -12.1497
  63   2.0000      -0.439080       -11.9480
  64   2.0000      -0.414074       -11.2675
  65   2.0000      -0.399214       -10.8632
  66   2.0000      -0.386388       -10.5141
  67   2.0000      -0.382152       -10.3989
  68   2.0000      -0.380837       -10.3631
  69   2.0000      -0.370873       -10.0920
  70   2.0000      -0.357015        -9.7149
  71   2.0000      -0.354085        -9.6351
  72   2.0000      -0.349345        -9.5062
  73   2.0000      -0.347929        -9.4676
  74   2.0000      -0.345087        -9.3903
  75   2.0000      -0.336199        -9.1484
  76   2.0000      -0.322321        -8.7708
  77   2.0000      -0.316119        -8.6020
  78   2.0000      -0.306217        -8.3326
  79   2.0000      -0.298283        -8.1167
  80   2.0000      -0.293646        -7.9905
  81   2.0000      -0.286814        -7.8046
  82   2.0000      -0.279382        -7.6024
  83   2.0000      -0.270266        -7.3543
  84   2.0000      -0.266796        -7.2599
  85   2.0000      -0.255328        -6.9478
  86   2.0000      -0.251007        -6.8302
  87   2.0000      -0.243954        -6.6383
  88   2.0000      -0.240086        -6.5331
  89   2.0000      -0.207351        -5.6423
  90   2.0000      -0.201753        -5.4900
  91   2.0000      -0.194667        -5.2971
  92   2.0000      -0.172587        -4.6963
  93   2.0000      -0.169058        -4.6003
  94   2.0000      -0.158387        -4.3099
  95   2.0000      -0.153295        -4.1714
  96   2.0000      -0.152714        -4.1556
  97   2.0000      -0.141699        -3.8558
  98   2.0000      -0.135558        -3.6887
  99   2.0000      -0.130634        -3.5547
 100   0.0000       0.130716         3.5570
 101   0.0000       0.133435         3.6310
 102   0.0000       0.137174         3.7327
 103   0.0000       0.149194         4.0598
 104   0.0000       0.160178         4.3587

MULLIKEN ATOMIC CHARGES
-----------------------
   0 C :   -0.029954
   1 C :    0.097053
   2 C :   -0.273219
   3 C :   -0.226317
   4 C :   -0.235188
   5 C :   -0.257230
   6 H :    0.472766
   7 H :    0.233721
   8 H :    0.165544
   9 H :    0.173901
  10 H :    0.169477
  11 C :   -0.465849
  12 C :   -0.519031
  13 H :    0.215483
  14 H :    0.199965
  15 C :    0.150741
  16 H :    0.265180
  17 H :    0.194597
  18 C :   -0.104591
  19 C :   -0.292517
  20 C :   -0.233659
  21 C :   -0.296327
  22 C :   -0.227154
  23 H :    0.200399
  24 H :    0.181609
  25 H :    0.170916
  26 H :    0.174968
  27 Pd:   -0.067000
  28 Br:   -0.524548
  29 P :   -0.150720
  30 H :    0.094237
  31 C :    0.690833
  32 O :   -0.449237
  33 O :   -0.600627
  34 O :   -0.589756
  35 H :    0.095983
  36 H :    0.124324
  37 H :    0.471223
Sum of atomic charges:   -1.0000000

LOEWDIN ATOMIC CHARGES
----------------------
   0 C :   -0.034059
   1 C :   -0.042271
   2 C :   -0.122343
   3 C :   -0.159943
   4 C :   -0.169403
   5 C :   -0.148351
   6 H :    0.338110
   7 H :    0.148434
   8 H :    0.114319
   9 H :    0.116549
  10 H :    0.114392
  11 C :   -0.211794
  12 C :   -0.211956
  13 H :    0.128196
  14 H :    0.122350
  15 C :   -0.036989
  16 H :    0.157295
  17 H :    0.115930
  18 C :   -0.017015
  19 C :   -0.142916
  20 C :   -0.152346
  21 C :   -0.145203
  22 C :   -0.170524
  23 H :    0.133606
  24 H :    0.119832
  25 H :    0.117690
  26 H :    0.116877
  27 Pd:   -0.943255
  28 Br:   -0.282983
  29 P :    0.352293
  30 H :    0.042563
  31 C :    0.130536
  32 O :   -0.262568
  33 O :   -0.284681
  34 O :   -0.274223
  35 H :    0.038428
  36 H :    0.054223
  37 H :    0.351203

  Mayer bond orders larger than 0.100000
B(  0-C ,  1-C ) :   1.3839 B(  0-C ,  2-C ) :   1.3836 B(  0-C , 27-Pd) :   0.7546
B(  1-C ,  5-C ) :   1.3684 B(  1-C , 11-C ) :   0.9622 B(  2-C ,  3-C ) :   1.4309
B(  2-C ,  7-H ) :   0.8974 B(  3-C ,  4-C ) :   1.4099 B(  3-C ,  9-H ) :   0.9293
B(  4-C ,  5-C ) :   1.4495 B(  4-C , 10-H ) :   0.9308 B(  5-C ,  8-H ) :   0.9310
B(  6-H , 28-Br) :   0.1263 B(  6-H , 33-O ) :   0.6462 B( 11-C , 12-C ) :   0.9869
B( 11-C , 13-H ) :   0.9092 B( 11-C , 14-H ) :   0.9216 B( 12-C , 15-C ) :   0.9611
B( 12-C , 16-H ) :   0.8829 B( 12-C , 17-H ) :   0.9265 B( 15-C , 18-C ) :   1.3517
B( 15-C , 21-C ) :   1.4095 B( 18-C , 19-C ) :   1.4046 B( 18-C , 27-Pd) :   0.7889
B( 19-C , 20-C ) :   1.4194 B( 19-C , 23-H ) :   0.9108 B( 20-C , 22-C ) :   1.4358
B( 20-C , 24-H ) :   0.9272 B( 21-C , 22-C ) :   1.4184 B( 21-C , 25-H ) :   0.9297
B( 22-C , 26-H ) :   0.9301 B( 27-Pd, 28-Br) :   0.5428 B( 27-Pd, 29-P ) :   0.4710
B( 29-P , 30-H ) :   0.9429 B( 29-P , 35-H ) :   0.9298 B( 29-P , 36-H ) :   0.9351
B( 31-C , 32-O ) :   1.9828 B( 31-C , 33-O ) :   1.1853 B( 31-C , 34-O ) :   1.1102
B( 34-O , 37-H ) :   0.7294

Dispersion correction           -0.032904120
FINAL SINGLE POINT ENERGY     -3847.763004299219
Dispersion correction            ... done

DIPOLE MOMENT
-------------
                                X             Y             Z
Electronic contribution:     -7.92801     -66.31665      10.21929
Nuclear contribution   :      8.97708      66.72905      -9.74954
                        -----------------------------------------
Total Dipole Moment    :      1.04907       0.41241       0.46975
                        -----------------------------------------
Magnitude (a.u.)       :      1.22118
Magnitude (Debye)      :      3.10400

Rotational constants in cm-1:     0.008242     0.006306     0.005081
Rotational constants in MHz :   247.090964   189.053281   152.319758

                             ****ORCA TERMINATED NORMALLY****
TOTAL RUN TIME: 0 days 0 hours 3 minutes 31 seconds 932 msec
