                         Program Version 5.0.3 -  RELEASE  -
|  1> ! EnGrad PBEh-3c
|  2> %output
|  3> xyzfile=True
|  4> end
|  5> %scf
|  6> maxiter 250
|  7> end
|  8> %output
|  9> Print[P_Hirshfeld] = 1
| 10> end
| 11> % maxcore
| 12> 4000
| 13> *xyz -1 1
| 14> Pd  -2.18622194  -1.64258904   0.75118265
| 15> Cl  -3.46671192  -3.32138271  -0.20680636
| 16> Cl  -0.70316014  -4.65668011   1.42941726
| 17> Cl  -4.01059404  -0.33429952   0.81098180
| 18> N   -0.95363261  -0.09008924   1.41831930
| 19> C   -1.26539876   0.46721524   2.57262676
| 20> C   -0.78071916   1.70782733   2.99169874
| 21> C    0.08857635   2.36618863   2.16104912
| 22> C   -0.08397507   0.52080563   0.58787378
| 23> C    0.45267346   1.77495299   0.94456866
| 24> H    0.49216749   3.32760616   2.45789644
| 25> H   -1.95100984  -0.08617726   3.20577076
| 26> H   -1.08307646   2.12258874   3.94357566
| 27> C    0.33235640  -0.15961774  -0.60654156
| 28> C    1.35622414   2.42880173   0.05407294
| 29> C    1.70032853   1.84183199  -1.11076873
| 30> C    1.21657628   0.54147251  -1.45771809
| 31> H    1.75425203   3.40401166   0.31733324
| 32> H    2.37925248   2.36327123  -1.77890474
| 33> C   -0.08459266  -1.47455789  -0.91498096
| 34> C    1.65990492  -0.05544390  -2.64822313
| 35> C    0.32011965  -1.98513876  -2.13462237
| 36> C    1.24084067  -1.32872646  -2.95942661
| 37> H    2.32949546   0.46940172  -3.31045638
| 38> H    1.59979382  -1.77514249  -3.87961855
| 39> H   -0.30899429  -3.47627831  -0.16963368
| 40> H   -0.04447982  -2.94985210  -2.46867096
| 41> *
| 42>
| 43>                          ****END OF INPUT****

CARTESIAN COORDINATES (ANGSTROEM)
---------------------------------
  Pd    -2.186222   -1.642589    0.751183
  Cl    -3.466712   -3.321383   -0.206806
  Cl    -0.703160   -4.656680    1.429417
  Cl    -4.010594   -0.334300    0.810982
  N     -0.953633   -0.090089    1.418319
  C     -1.265399    0.467215    2.572627
  C     -0.780719    1.707827    2.991699
  C      0.088576    2.366189    2.161049
  C     -0.083975    0.520806    0.587874
  C      0.452673    1.774953    0.944569
  H      0.492167    3.327606    2.457896
  H     -1.951010   -0.086177    3.205771
  H     -1.083076    2.122589    3.943576
  C      0.332356   -0.159618   -0.606542
  C      1.356224    2.428802    0.054073
  C      1.700329    1.841832   -1.110769
  C      1.216576    0.541473   -1.457718
  H      1.754252    3.404012    0.317333
  H      2.379252    2.363271   -1.778905
  C     -0.084593   -1.474558   -0.914981
  C      1.659905   -0.055444   -2.648223
  C      0.320120   -1.985139   -2.134622
  C      1.240841   -1.328726   -2.959427
  H      2.329495    0.469402   -3.310456
  H      1.599794   -1.775142   -3.879619
  H     -0.308994   -3.476278   -0.169634
  H     -0.044480   -2.949852   -2.468671

 Total Charge           Charge          ....   -1
 Multiplicity           Mult            ....    1
 Number of Electrons    NEL             ....  164
 Basis Dimension        Dim             ....  313

ORBITAL ENERGIES
----------------

  NO   OCC          E(Eh)            E(eV)
   0   2.0000    -102.103305     -2778.3722
   1   2.0000    -102.095808     -2778.1682
   2   2.0000    -102.083232     -2777.8260
   3   2.0000     -14.600388      -397.2967
   4   2.0000     -10.415917      -283.4315
   5   2.0000     -10.413074      -283.3541
   6   2.0000     -10.397001      -282.9168
   7   2.0000     -10.389514      -282.7131
   8   2.0000     -10.382376      -282.5188
   9   2.0000     -10.376192      -282.3505
  10   2.0000     -10.375372      -282.3282
  11   2.0000     -10.372055      -282.2380
  12   2.0000     -10.365390      -282.0566
  13   2.0000     -10.355446      -281.7860
  14   2.0000     -10.354630      -281.7638
  15   2.0000     -10.345481      -281.5148
  16   2.0000     -10.341409      -281.4040
  17   2.0000      -9.567647      -260.3489
  18   2.0000      -9.557518      -260.0733
  19   2.0000      -9.547347      -259.7965
  20   2.0000      -7.253992      -197.3912
  21   2.0000      -7.248374      -197.2383
  22   2.0000      -7.248058      -197.2297
  23   2.0000      -7.244139      -197.1230
  24   2.0000      -7.238428      -196.9676
  25   2.0000      -7.237903      -196.9533
  26   2.0000      -7.233827      -196.8424
  27   2.0000      -7.228007      -196.6841
  28   2.0000      -7.227706      -196.6759
  29   2.0000      -3.522869       -95.8621
  30   2.0000      -2.173978       -59.1569
  31   2.0000      -2.162667       -58.8492
  32   2.0000      -2.134268       -58.0764
  33   2.0000      -0.995553       -27.0904
  34   2.0000      -0.887087       -24.1389
  35   2.0000      -0.850406       -23.1407
  36   2.0000      -0.817647       -22.2493
  37   2.0000      -0.781631       -21.2693
  38   2.0000      -0.744792       -20.2668
  39   2.0000      -0.721319       -19.6281
  40   2.0000      -0.695393       -18.9226
  41   2.0000      -0.672602       -18.3024
  42   2.0000      -0.666249       -18.1296
  43   2.0000      -0.650281       -17.6950
  44   2.0000      -0.645576       -17.5670
  45   2.0000      -0.611404       -16.6372
  46   2.0000      -0.575969       -15.6729
  47   2.0000      -0.530480       -14.4351
  48   2.0000      -0.519950       -14.1485
  49   2.0000      -0.499258       -13.5855
  50   2.0000      -0.463275       -12.6064
  51   2.0000      -0.462378       -12.5820
  52   2.0000      -0.433553       -11.7976
  53   2.0000      -0.416914       -11.3448
  54   2.0000      -0.412457       -11.2235
  55   2.0000      -0.405340       -11.0299
  56   2.0000      -0.387954       -10.5568
  57   2.0000      -0.378599       -10.3022
  58   2.0000      -0.356335        -9.6964
  59   2.0000      -0.345783        -9.4092
  60   2.0000      -0.339330        -9.2337
  61   2.0000      -0.318400        -8.6641
  62   2.0000      -0.307696        -8.3728
  63   2.0000      -0.296409        -8.0657
  64   2.0000      -0.273723        -7.4484
  65   2.0000      -0.269853        -7.3431
  66   2.0000      -0.261804        -7.1241
  67   2.0000      -0.245636        -6.6841
  68   2.0000      -0.234984        -6.3943
  69   2.0000      -0.231960        -6.3120
  70   2.0000      -0.228103        -6.2070
  71   2.0000      -0.217748        -5.9252
  72   2.0000      -0.188121        -5.1190
  73   2.0000      -0.179308        -4.8792
  74   2.0000      -0.174509        -4.7486
  75   2.0000      -0.170805        -4.6479
  76   2.0000      -0.165224        -4.4960
  77   2.0000      -0.161830        -4.4036
  78   2.0000      -0.158425        -4.3110
  79   2.0000      -0.146071        -3.9748
  80   2.0000      -0.138294        -3.7632
  81   2.0000      -0.118854        -3.2342
  82   0.0000       0.040737         1.1085
  83   0.0000       0.058761         1.5990
  84   0.0000       0.062120         1.6904
  85   0.0000       0.082002         2.2314
  86   0.0000       0.105849         2.8803

MULLIKEN ATOMIC CHARGES
-----------------------
   0 Pd:    0.224888
   1 Cl:   -0.327475
   2 Cl:   -0.437657
   3 Cl:   -0.363608
   4 N :   -0.573915
   5 C :    0.044397
   6 C :   -0.316429
   7 C :   -0.157732
   8 C :    0.410939
   9 C :    0.029411
  10 H :    0.212627
  11 H :    0.278622
  12 H :    0.221968
  13 C :   -0.044578
  14 C :   -0.303167
  15 C :   -0.276781
  16 C :    0.113912
  17 H :    0.194668
  18 H :    0.196337
  19 C :   -0.140982
  20 C :   -0.316084
  21 C :   -0.307989
  22 C :   -0.196054
  23 H :    0.189762
  24 H :    0.194025
  25 H :    0.227113
  26 H :    0.223784
Sum of atomic charges:   -1.0000000

LOEWDIN ATOMIC CHARGES
----------------------
   0 Pd:   -0.783665
   1 Cl:   -0.078935
   2 Cl:   -0.379493
   3 Cl:   -0.059628
   4 N :    0.033429
   5 C :    0.011673
   6 C :   -0.167513
   7 C :   -0.084899
   8 C :    0.092510
   9 C :   -0.052724
  10 H :    0.136150
  11 H :    0.165356
  12 H :    0.141432
  13 C :   -0.042071
  14 C :   -0.143567
  15 C :   -0.115498
  16 C :   -0.032855
  17 H :    0.129867
  18 H :    0.131369
  19 C :   -0.112179
  20 C :   -0.154236
  21 C :   -0.153116
  22 C :   -0.132225
  23 H :    0.124427
  24 H :    0.125307
  25 H :    0.266850
  26 H :    0.134232

  Mayer bond orders larger than 0.100000
B(  0-Pd,  1-Cl) :   0.9245 B(  0-Pd,  2-Cl) :   0.1384 B(  0-Pd,  3-Cl) :   0.9077
B(  0-Pd,  4-N ) :   0.3899 B(  0-Pd, 19-C ) :   0.2454 B(  2-Cl, 19-C ) :   0.1020
B(  2-Cl, 25-H ) :   0.5860 B(  4-N ,  5-C ) :   1.4597 B(  4-N ,  8-C ) :   1.1632
B(  5-C ,  6-C ) :   1.3263 B(  5-C , 11-H ) :   0.8929 B(  6-C ,  7-C ) :   1.4583
B(  6-C , 12-H ) :   0.9182 B(  7-C ,  9-C ) :   1.2803 B(  7-C , 10-H ) :   0.9282
B(  8-C ,  9-C ) :   1.2186 B(  8-C , 13-C ) :   1.1247 B(  9-C , 14-C ) :   1.1651
B( 13-C , 16-C ) :   1.2733 B( 13-C , 19-C ) :   1.3868 B( 14-C , 15-C ) :   1.6490
B( 14-C , 17-H ) :   0.9298 B( 15-C , 16-C ) :   1.1505 B( 15-C , 18-H ) :   0.9282
B( 16-C , 20-C ) :   1.2873 B( 19-C , 21-C ) :   1.4718 B( 19-C , 25-H ) :   0.2480
B( 20-C , 22-C ) :   1.4932 B( 20-C , 23-H ) :   0.9306 B( 21-C , 22-C ) :   1.3552
B( 21-C , 26-H ) :   0.9174 B( 22-C , 24-H ) :   0.9213

Dispersion correction           -0.024442200
FINAL SINGLE POINT ENERGY     -2061.362092669063
Dispersion correction            ... done

DIPOLE MOMENT
-------------
                                X             Y             Z
Electronic contribution:    -85.84380     -58.10951      32.31144
Nuclear contribution   :     88.77524      62.16422     -32.06591
                        -----------------------------------------
Total Dipole Moment    :      2.93144       4.05471       0.24553
                        -----------------------------------------
Magnitude (a.u.)       :      5.00942
Magnitude (Debye)      :     12.73294

Rotational constants in cm-1:     0.011406     0.007190     0.005569
Rotational constants in MHz :   341.953246   215.563046   166.960349

                             ****ORCA TERMINATED NORMALLY****
TOTAL RUN TIME: 0 days 0 hours 10 minutes 42 seconds 121 msec
