                         Program Version 5.0.3 -  RELEASE  -
|  1> ! EnGrad PBEh-3c
|  2> %output
|  3> xyzfile=True
|  4> end
|  5> %scf
|  6> maxiter 250
|  7> end
|  8> %output
|  9> Print[P_Hirshfeld] = 1
| 10> end
| 11> % maxcore
| 12> 4000
| 13> *xyz -1 1
| 14> Pd  -2.06303342  -1.63808800   0.53786296
| 15> Cl  -3.48634840  -3.27132012  -0.18518540
| 16> Cl  -0.60489483  -4.32322799   1.11514212
| 17> Cl  -3.98141574  -0.26533822   0.81799907
| 18> N   -0.97026296  -0.11559055   1.41438106
| 19> C   -1.28937210   0.43906930   2.57574728
| 20> C   -0.76481114   1.66737844   3.00272903
| 21> C    0.08231857   2.34369542   2.16412790
| 22> C   -0.06619836   0.47712742   0.61403349
| 23> C    0.44797877   1.75346392   0.94904082
| 24> H    0.48713022   3.31390654   2.43644723
| 25> H   -1.97934734  -0.10504949   3.21424683
| 26> H   -1.07396396   2.08651431   3.94990058
| 27> C    0.34195791  -0.22745434  -0.58297637
| 28> C    1.33815291   2.42586342   0.04857990
| 29> C    1.67753281   1.83780066  -1.11250158
| 30> C    1.20036332   0.51721931  -1.44905834
| 31> H    1.73214698   3.40583246   0.32260989
| 32> H    2.35578356   2.34983441  -1.80161316
| 33> C   -0.09805426  -1.55672949  -0.86064086
| 34> C    1.65494795  -0.06011054  -2.65213912
| 35> C    0.33607387  -2.03382671  -2.10016107
| 36> C    1.20304489  -1.32103127  -2.97107125
| 37> H    2.33632088   0.48582946  -3.30705225
| 38> H    1.57996826  -1.79090520  -3.88316228
| 39> H   -0.40489811  -3.39580127   0.20898399
| 40> H    0.00012706  -3.00060176  -2.45947960
| 41> *
| 42>
| 43>                          ****END OF INPUT****

CARTESIAN COORDINATES (ANGSTROEM)
---------------------------------
  Pd    -2.063033   -1.638088    0.537863
  Cl    -3.486348   -3.271320   -0.185185
  Cl    -0.604895   -4.323228    1.115142
  Cl    -3.981416   -0.265338    0.817999
  N     -0.970263   -0.115591    1.414381
  C     -1.289372    0.439069    2.575747
  C     -0.764811    1.667378    3.002729
  C      0.082319    2.343695    2.164128
  C     -0.066198    0.477127    0.614033
  C      0.447979    1.753464    0.949041
  H      0.487130    3.313907    2.436447
  H     -1.979347   -0.105049    3.214247
  H     -1.073964    2.086514    3.949901
  C      0.341958   -0.227454   -0.582976
  C      1.338153    2.425863    0.048580
  C      1.677533    1.837801   -1.112502
  C      1.200363    0.517219   -1.449058
  H      1.732147    3.405832    0.322610
  H      2.355784    2.349834   -1.801613
  C     -0.098054   -1.556729   -0.860641
  C      1.654948   -0.060111   -2.652139
  C      0.336074   -2.033827   -2.100161
  C      1.203045   -1.321031   -2.971071
  H      2.336321    0.485829   -3.307052
  H      1.579968   -1.790905   -3.883162
  H     -0.404898   -3.395801    0.208984
  H      0.000127   -3.000602   -2.459480

 Total Charge           Charge          ....   -1
 Multiplicity           Mult            ....    1
 Number of Electrons    NEL             ....  164
 Basis Dimension        Dim             ....  313

ORBITAL ENERGIES
----------------

  NO   OCC          E(Eh)            E(eV)
   0   2.0000    -102.141813     -2779.4200
   1   2.0000    -102.077980     -2777.6831
   2   2.0000    -102.075530     -2777.6164
   3   2.0000     -14.593354      -397.1054
   4   2.0000     -10.407155      -283.1931
   5   2.0000     -10.406807      -283.1836
   6   2.0000     -10.388993      -282.6989
   7   2.0000     -10.381757      -282.5020
   8   2.0000     -10.375484      -282.3313
   9   2.0000     -10.370279      -282.1896
  10   2.0000     -10.369035      -282.1558
  11   2.0000     -10.365683      -282.0646
  12   2.0000     -10.357470      -281.8411
  13   2.0000     -10.351344      -281.6744
  14   2.0000     -10.349891      -281.6349
  15   2.0000     -10.336445      -281.2690
  16   2.0000     -10.330807      -281.1156
  17   2.0000      -9.610473      -261.5143
  18   2.0000      -9.541404      -259.6348
  19   2.0000      -9.540128      -259.6001
  20   2.0000      -7.297264      -198.5687
  21   2.0000      -7.290472      -198.3838
  22   2.0000      -7.290064      -198.3727
  23   2.0000      -7.227313      -196.6652
  24   2.0000      -7.226353      -196.6391
  25   2.0000      -7.222517      -196.5347
  26   2.0000      -7.222202      -196.5261
  27   2.0000      -7.220958      -196.4923
  28   2.0000      -7.220583      -196.4820
  29   2.0000      -3.512298       -95.5745
  30   2.0000      -2.164029       -58.8862
  31   2.0000      -2.149577       -58.4930
  32   2.0000      -2.124094       -57.7995
  33   2.0000      -0.986157       -26.8347
  34   2.0000      -0.873850       -23.7787
  35   2.0000      -0.840488       -22.8708
  36   2.0000      -0.806512       -21.9463
  37   2.0000      -0.771991       -21.0069
  38   2.0000      -0.768572       -20.9139
  39   2.0000      -0.731482       -19.9046
  40   2.0000      -0.712008       -19.3747
  41   2.0000      -0.672093       -18.2886
  42   2.0000      -0.660543       -17.9743
  43   2.0000      -0.640830       -17.4379
  44   2.0000      -0.634533       -17.2665
  45   2.0000      -0.601249       -16.3608
  46   2.0000      -0.565090       -15.3769
  47   2.0000      -0.521458       -14.1896
  48   2.0000      -0.509993       -13.8776
  49   2.0000      -0.489676       -13.3248
  50   2.0000      -0.453961       -12.3529
  51   2.0000      -0.452073       -12.3015
  52   2.0000      -0.424388       -11.5482
  53   2.0000      -0.409718       -11.1490
  54   2.0000      -0.402082       -10.9412
  55   2.0000      -0.395061       -10.7501
  56   2.0000      -0.378234       -10.2923
  57   2.0000      -0.376647       -10.2491
  58   2.0000      -0.365232        -9.9385
  59   2.0000      -0.342277        -9.3138
  60   2.0000      -0.335544        -9.1306
  61   2.0000      -0.328862        -8.9488
  62   2.0000      -0.310751        -8.4560
  63   2.0000      -0.298074        -8.1110
  64   2.0000      -0.284973        -7.7545
  65   2.0000      -0.260516        -7.0890
  66   2.0000      -0.251581        -6.8459
  67   2.0000      -0.242866        -6.6087
  68   2.0000      -0.238133        -6.4799
  69   2.0000      -0.229841        -6.2543
  70   2.0000      -0.224135        -6.0990
  71   2.0000      -0.219295        -5.9673
  72   2.0000      -0.207307        -5.6411
  73   2.0000      -0.205356        -5.5880
  74   2.0000      -0.176313        -4.7977
  75   2.0000      -0.169076        -4.6008
  76   2.0000      -0.165927        -4.5151
  77   2.0000      -0.153054        -4.1648
  78   2.0000      -0.147527        -4.0144
  79   2.0000      -0.135737        -3.6936
  80   2.0000      -0.135092        -3.6760
  81   2.0000      -0.112707        -3.0669
  82   0.0000       0.050733         1.3805
  83   0.0000       0.072996         1.9863
  84   0.0000       0.075215         2.0467
  85   0.0000       0.111649         3.0381
  86   0.0000       0.146810         3.9949

MULLIKEN ATOMIC CHARGES
-----------------------
   0 Pd:    0.181362
   1 Cl:   -0.345001
   2 Cl:   -0.343896
   3 Cl:   -0.418249
   4 N :   -0.569379
   5 C :    0.048754
   6 C :   -0.334167
   7 C :   -0.151603
   8 C :    0.394866
   9 C :    0.038869
  10 H :    0.209501
  11 H :    0.273302
  12 H :    0.217678
  13 C :   -0.011277
  14 C :   -0.302755
  15 C :   -0.269368
  16 C :    0.106754
  17 H :    0.190774
  18 H :    0.192511
  19 C :   -0.182537
  20 C :   -0.318354
  21 C :   -0.323747
  22 C :   -0.196566
  23 H :    0.186558
  24 H :    0.186974
  25 H :    0.322709
  26 H :    0.216289
Sum of atomic charges:   -1.0000000

LOEWDIN ATOMIC CHARGES
----------------------
   0 Pd:   -0.833775
   1 Cl:   -0.084994
   2 Cl:   -0.167342
   3 Cl:   -0.164029
   4 N :    0.039500
   5 C :    0.010429
   6 C :   -0.171366
   7 C :   -0.089048
   8 C :    0.092581
   9 C :   -0.052979
  10 H :    0.134643
  11 H :    0.163006
  12 H :    0.139226
  13 C :   -0.032917
  14 C :   -0.146600
  15 C :   -0.118034
  16 C :   -0.033413
  17 H :    0.128170
  18 H :    0.129641
  19 C :   -0.119872
  20 C :   -0.157777
  21 C :   -0.144133
  22 C :   -0.134714
  23 H :    0.123060
  24 H :    0.122841
  25 H :    0.234328
  26 H :    0.133566

  Mayer bond orders larger than 0.100000
B(  0-Pd,  1-Cl) :   0.9308 B(  0-Pd,  2-Cl) :   0.1043 B(  0-Pd,  3-Cl) :   0.7912
B(  0-Pd,  4-N ) :   0.3999 B(  0-Pd, 19-C ) :   0.4520 B(  2-Cl, 25-H ) :   0.7632
B(  4-N ,  5-C ) :   1.4612 B(  4-N ,  8-C ) :   1.1538 B(  5-C ,  6-C ) :   1.3281
B(  5-C , 11-H ) :   0.8947 B(  6-C ,  7-C ) :   1.4463 B(  6-C , 12-H ) :   0.9199
B(  7-C ,  9-C ) :   1.2894 B(  7-C , 10-H ) :   0.9285 B(  8-C ,  9-C ) :   1.2140
B(  8-C , 13-C ) :   1.1234 B(  9-C , 14-C ) :   1.1602 B( 13-C , 16-C ) :   1.2705
B( 13-C , 19-C ) :   1.2714 B( 14-C , 15-C ) :   1.6469 B( 14-C , 17-H ) :   0.9300
B( 15-C , 16-C ) :   1.1467 B( 15-C , 18-H ) :   0.9286 B( 16-C , 20-C ) :   1.2870
B( 19-C , 21-C ) :   1.4769 B( 20-C , 22-C ) :   1.4915 B( 20-C , 23-H ) :   0.9301
B( 21-C , 22-C ) :   1.3468 B( 21-C , 26-H ) :   0.9162 B( 22-C , 24-H ) :   0.9245

Dispersion correction           -0.024347924
FINAL SINGLE POINT ENERGY     -2061.452539619042
Dispersion correction            ... done

DIPOLE MOMENT
-------------
                                X             Y             Z
Electronic contribution:    -79.48112     -60.24472      22.71866
Nuclear contribution   :     82.77226      63.03183     -22.03668
                        -----------------------------------------
Total Dipole Moment    :      3.29114       2.78711       0.68198
                        -----------------------------------------
Magnitude (a.u.)       :      4.36631
Magnitude (Debye)      :     11.09827

Rotational constants in cm-1:     0.011792     0.007721     0.005813
Rotational constants in MHz :   353.516311   231.481361   174.254824

                             ****ORCA TERMINATED NORMALLY****
TOTAL RUN TIME: 0 days 0 hours 9 minutes 10 seconds 771 msec
