                         Program Version 5.0.3 -  RELEASE  -
|  1> ! EnGrad PBEh-3c
|  2> %output
|  3> xyzfile=True
|  4> end
|  5> %scf
|  6> maxiter 250
|  7> end
|  8> %output
|  9> Print[P_Hirshfeld] = 1
| 10> end
| 11> % maxcore
| 12> 4000
| 13> *xyz -1 1
| 14> Pd  -2.05628388  -1.62334257   0.52014106
| 15> Cl  -3.48862157  -3.26976655  -0.18795102
| 16> Cl  -0.59482453  -4.29860372   1.09638134
| 17> Cl  -3.97169874  -0.26256359   0.81979673
| 18> N   -0.96815725  -0.11843547   1.41234096
| 19> C   -1.29164247   0.43457268   2.57600520
| 20> C   -0.76406175   1.66339599   3.00204380
| 21> C    0.08093986   2.33849050   2.16495892
| 22> C   -0.06470044   0.47334642   0.61434891
| 23> C    0.44823421   1.74989851   0.94929823
| 24> H    0.48589050   3.31202706   2.43439965
| 25> H   -1.98289131  -0.10686944   3.21346244
| 26> H   -1.07292789   2.08201866   3.95135210
| 27> C    0.34500911  -0.23161342  -0.57977665
| 28> C    1.33670602   2.42205889   0.04459352
| 29> C    1.67275494   1.83582872  -1.10877574
| 30> C    1.20142262   0.51339034  -1.44816304
| 31> H    1.72912281   3.40571302   0.32307898
| 32> H    2.35162189   2.34694825  -1.80343213
| 33> C   -0.09857066  -1.55625780  -0.85671380
| 34> C    1.64941749  -0.06397941  -2.65192086
| 35> C    0.33614995  -2.03974548  -2.09605799
| 36> C    1.20195799  -1.32178411  -2.96754710
| 37> H    2.33498473   0.48623449  -3.30522145
| 38> H    1.57524508  -1.79200961  -3.88263007
| 39> H   -0.40973777  -3.37375692   0.23170908
| 40> H    0.00531996  -3.00675915  -2.45782233
| 41> *
| 42>
| 43>                          ****END OF INPUT****

CARTESIAN COORDINATES (ANGSTROEM)
---------------------------------
  Pd    -2.056284   -1.623343    0.520141
  Cl    -3.488622   -3.269767   -0.187951
  Cl    -0.594825   -4.298604    1.096381
  Cl    -3.971699   -0.262564    0.819797
  N     -0.968157   -0.118435    1.412341
  C     -1.291642    0.434573    2.576005
  C     -0.764062    1.663396    3.002044
  C      0.080940    2.338490    2.164959
  C     -0.064700    0.473346    0.614349
  C      0.448234    1.749899    0.949298
  H      0.485890    3.312027    2.434400
  H     -1.982891   -0.106869    3.213462
  H     -1.072928    2.082019    3.951352
  C      0.345009   -0.231613   -0.579777
  C      1.336706    2.422059    0.044594
  C      1.672755    1.835829   -1.108776
  C      1.201423    0.513390   -1.448163
  H      1.729123    3.405713    0.323079
  H      2.351622    2.346948   -1.803432
  C     -0.098571   -1.556258   -0.856714
  C      1.649417   -0.063979   -2.651921
  C      0.336150   -2.039745   -2.096058
  C      1.201958   -1.321784   -2.967547
  H      2.334985    0.486234   -3.305221
  H      1.575245   -1.792010   -3.882630
  H     -0.409738   -3.373757    0.231709
  H      0.005320   -3.006759   -2.457822

 Total Charge           Charge          ....   -1
 Multiplicity           Mult            ....    1
 Number of Electrons    NEL             ....  164
 Basis Dimension        Dim             ....  313

ORBITAL ENERGIES
----------------

  NO   OCC          E(Eh)            E(eV)
   0   2.0000    -102.140425     -2779.3823
   1   2.0000    -102.077732     -2777.6763
   2   2.0000    -102.073801     -2777.5693
   3   2.0000     -14.593623      -397.1127
   4   2.0000     -10.407659      -283.2068
   5   2.0000     -10.406477      -283.1746
   6   2.0000     -10.388953      -282.6978
   7   2.0000     -10.381683      -282.5000
   8   2.0000     -10.375637      -282.3354
   9   2.0000     -10.369853      -282.1780
  10   2.0000     -10.368757      -282.1482
  11   2.0000     -10.365464      -282.0586
  12   2.0000     -10.356939      -281.8266
  13   2.0000     -10.351257      -281.6720
  14   2.0000     -10.349821      -281.6329
  15   2.0000     -10.337055      -281.2856
  16   2.0000     -10.330728      -281.1134
  17   2.0000      -9.610063      -261.5031
  18   2.0000      -9.541236      -259.6302
  19   2.0000      -9.538281      -259.5498
  20   2.0000      -7.296782      -198.5555
  21   2.0000      -7.290000      -198.3710
  22   2.0000      -7.289605      -198.3602
  23   2.0000      -7.227127      -196.6601
  24   2.0000      -7.224468      -196.5878
  25   2.0000      -7.222354      -196.5302
  26   2.0000      -7.222029      -196.5214
  27   2.0000      -7.219152      -196.4431
  28   2.0000      -7.218774      -196.4328
  29   2.0000      -3.512090       -95.5688
  30   2.0000      -2.163440       -58.8702
  31   2.0000      -2.149775       -58.4984
  32   2.0000      -2.123802       -57.7916
  33   2.0000      -0.986498       -26.8440
  34   2.0000      -0.874491       -23.7961
  35   2.0000      -0.840888       -22.8817
  36   2.0000      -0.807290       -21.9675
  37   2.0000      -0.775076       -21.0909
  38   2.0000      -0.771519       -20.9941
  39   2.0000      -0.731674       -19.9099
  40   2.0000      -0.712523       -19.3887
  41   2.0000      -0.670994       -18.2587
  42   2.0000      -0.659751       -17.9528
  43   2.0000      -0.641097       -17.4451
  44   2.0000      -0.634586       -17.2680
  45   2.0000      -0.601542       -16.3688
  46   2.0000      -0.564746       -15.3675
  47   2.0000      -0.521655       -14.1949
  48   2.0000      -0.510325       -13.8867
  49   2.0000      -0.489674       -13.3247
  50   2.0000      -0.453967       -12.3531
  51   2.0000      -0.452070       -12.3014
  52   2.0000      -0.424627       -11.5547
  53   2.0000      -0.410179       -11.1616
  54   2.0000      -0.402384       -10.9494
  55   2.0000      -0.395062       -10.7502
  56   2.0000      -0.380422       -10.3518
  57   2.0000      -0.378251       -10.2927
  58   2.0000      -0.366876        -9.9832
  59   2.0000      -0.341794        -9.3007
  60   2.0000      -0.335991        -9.1428
  61   2.0000      -0.328709        -8.9446
  62   2.0000      -0.311262        -8.4699
  63   2.0000      -0.298626        -8.1260
  64   2.0000      -0.285507        -7.7690
  65   2.0000      -0.261023        -7.1028
  66   2.0000      -0.251589        -6.8461
  67   2.0000      -0.243470        -6.6251
  68   2.0000      -0.238535        -6.4909
  69   2.0000      -0.230669        -6.2768
  70   2.0000      -0.224775        -6.1164
  71   2.0000      -0.219295        -5.9673
  72   2.0000      -0.205971        -5.6048
  73   2.0000      -0.203779        -5.5451
  74   2.0000      -0.176513        -4.8032
  75   2.0000      -0.168843        -4.5945
  76   2.0000      -0.166163        -4.5215
  77   2.0000      -0.152857        -4.1594
  78   2.0000      -0.147204        -4.0056
  79   2.0000      -0.135017        -3.6740
  80   2.0000      -0.134212        -3.6521
  81   2.0000      -0.112666        -3.0658
  82   0.0000       0.050848         1.3837
  83   0.0000       0.073614         2.0031
  84   0.0000       0.076622         2.0850
  85   0.0000       0.111181         3.0254
  86   0.0000       0.147923         4.0252

MULLIKEN ATOMIC CHARGES
-----------------------
   0 Pd:    0.178219
   1 Cl:   -0.351254
   2 Cl:   -0.343542
   3 Cl:   -0.416853
   4 N :   -0.571855
   5 C :    0.048595
   6 C :   -0.335168
   7 C :   -0.150494
   8 C :    0.396769
   9 C :    0.036737
  10 H :    0.209165
  11 H :    0.274369
  12 H :    0.217474
  13 C :   -0.009167
  14 C :   -0.299189
  15 C :   -0.269270
  16 C :    0.109161
  17 H :    0.190212
  18 H :    0.191498
  19 C :   -0.184841
  20 C :   -0.316880
  21 C :   -0.323426
  22 C :   -0.197439
  23 H :    0.185872
  24 H :    0.186776
  25 H :    0.327621
  26 H :    0.216912
Sum of atomic charges:   -1.0000000

LOEWDIN ATOMIC CHARGES
----------------------
   0 Pd:   -0.836805
   1 Cl:   -0.094297
   2 Cl:   -0.159048
   3 Cl:   -0.161059
   4 N :    0.040366
   5 C :    0.011283
   6 C :   -0.171045
   7 C :   -0.089501
   8 C :    0.092424
   9 C :   -0.052555
  10 H :    0.134567
  11 H :    0.163382
  12 H :    0.139217
  13 C :   -0.032873
  14 C :   -0.146080
  15 C :   -0.117956
  16 C :   -0.033233
  17 H :    0.128100
  18 H :    0.129351
  19 C :   -0.117429
  20 C :   -0.157379
  21 C :   -0.142221
  22 C :   -0.134594
  23 H :    0.122889
  24 H :    0.122806
  25 H :    0.227532
  26 H :    0.134158

  Mayer bond orders larger than 0.100000
B(  0-Pd,  1-Cl) :   0.9244 B(  0-Pd,  2-Cl) :   0.1039 B(  0-Pd,  3-Cl) :   0.7913
B(  0-Pd,  4-N ) :   0.4041 B(  0-Pd, 19-C ) :   0.4648 B(  2-Cl, 25-H ) :   0.7637
B(  4-N ,  5-C ) :   1.4579 B(  4-N ,  8-C ) :   1.1524 B(  5-C ,  6-C ) :   1.3290
B(  5-C , 11-H ) :   0.8942 B(  6-C ,  7-C ) :   1.4452 B(  6-C , 12-H ) :   0.9199
B(  7-C ,  9-C ) :   1.2909 B(  7-C , 10-H ) :   0.9285 B(  8-C ,  9-C ) :   1.2154
B(  8-C , 13-C ) :   1.1231 B(  9-C , 14-C ) :   1.1582 B( 13-C , 16-C ) :   1.2725
B( 13-C , 19-C ) :   1.2644 B( 14-C , 15-C ) :   1.6487 B( 14-C , 17-H ) :   0.9299
B( 15-C , 16-C ) :   1.1452 B( 15-C , 18-H ) :   0.9287 B( 16-C , 20-C ) :   1.2878
B( 19-C , 21-C ) :   1.4761 B( 20-C , 22-C ) :   1.4909 B( 20-C , 23-H ) :   0.9302
B( 21-C , 22-C ) :   1.3464 B( 21-C , 26-H ) :   0.9159 B( 22-C , 24-H ) :   0.9246

Dispersion correction           -0.024367116
FINAL SINGLE POINT ENERGY     -2061.453156279003
Dispersion correction            ... done

DIPOLE MOMENT
-------------
                                X             Y             Z
Electronic contribution:    -79.16643     -59.54157      21.87820
Nuclear contribution   :     82.47903      62.33684     -21.18857
                        -----------------------------------------
Total Dipole Moment    :      3.31260       2.79527       0.68963
                        -----------------------------------------
Magnitude (a.u.)       :      4.38890
Magnitude (Debye)      :     11.15570

Rotational constants in cm-1:     0.011825     0.007774     0.005840
Rotational constants in MHz :   354.514961   233.063415   175.066432

                             ****ORCA TERMINATED NORMALLY****
TOTAL RUN TIME: 0 days 0 hours 9 minutes 15 seconds 287 msec
