                         Program Version 5.0.3 -  RELEASE  -
|  1> ! EnGrad PBEh-3c
|  2> %output
|  3> xyzfile=True
|  4> end
|  5> %scf
|  6> maxiter 250
|  7> end
|  8> %output
|  9> Print[P_Hirshfeld] = 1
| 10> end
| 11> % maxcore
| 12> 4000
| 13> *xyz -1 1
| 14> Pd  -2.06155906  -1.63486704   0.53399183
| 15> Cl  -3.48684495  -3.27098076  -0.18578951
| 16> Cl  -0.60269509  -4.31784912   1.11104406
| 17> Cl  -3.97929318  -0.26473214   0.81839175
| 18> N   -0.96980299  -0.11621199   1.41393542
| 19> C   -1.28986804   0.43808707   2.57580362
| 20> C   -0.76464744   1.66650853   3.00257935
| 21> C    0.08201741   2.34255847   2.16430943
| 22> C   -0.06587116   0.47630151   0.61410239
| 23> C    0.44803457   1.75268510   0.94909705
| 24> H    0.48685942   3.31349599   2.43599996
| 25> H   -1.98012147  -0.10544704   3.21407549
| 26> H   -1.07373764   2.08553229   3.95021765
| 27> C    0.34262441  -0.22836284  -0.58227743
| 28> C    1.33783685   2.42503237   0.04770912
| 29> C    1.67648914   1.83736992  -1.11168772
| 30> C    1.20059471   0.51638292  -1.44886277
| 31> H    1.73148638   3.40580637   0.32271236
| 32> H    2.35487449   2.34920396  -1.80201049
| 33> C   -0.09816706  -1.55662645  -0.85978304
| 34> C    1.65373989  -0.06095565  -2.65209144
| 35> C    0.33609049  -2.03511959  -2.09926480
| 36> C    1.20280747  -1.32119572  -2.97030144
| 37> H    2.33602901   0.48591793  -3.30665234
| 38> H    1.57893654  -1.79114644  -3.88304603
| 39> H   -0.40595527  -3.39098595   0.21394801
| 40> H    0.00126138  -3.00194677  -2.45911759
| 41> *
| 42>
| 43>                          ****END OF INPUT****

CARTESIAN COORDINATES (ANGSTROEM)
---------------------------------
  Pd    -2.061559   -1.634867    0.533992
  Cl    -3.486845   -3.270981   -0.185790
  Cl    -0.602695   -4.317849    1.111044
  Cl    -3.979293   -0.264732    0.818392
  N     -0.969803   -0.116212    1.413935
  C     -1.289868    0.438087    2.575804
  C     -0.764647    1.666509    3.002579
  C      0.082017    2.342558    2.164309
  C     -0.065871    0.476302    0.614102
  C      0.448035    1.752685    0.949097
  H      0.486859    3.313496    2.436000
  H     -1.980121   -0.105447    3.214075
  H     -1.073738    2.085532    3.950218
  C      0.342624   -0.228363   -0.582277
  C      1.337837    2.425032    0.047709
  C      1.676489    1.837370   -1.111688
  C      1.200595    0.516383   -1.448863
  H      1.731486    3.405806    0.322712
  H      2.354874    2.349204   -1.802010
  C     -0.098167   -1.556626   -0.859783
  C      1.653740   -0.060956   -2.652091
  C      0.336090   -2.035120   -2.099265
  C      1.202807   -1.321196   -2.970301
  H      2.336029    0.485918   -3.306652
  H      1.578937   -1.791146   -3.883046
  H     -0.405955   -3.390986    0.213948
  H      0.001261   -3.001947   -2.459118

 Total Charge           Charge          ....   -1
 Multiplicity           Mult            ....    1
 Number of Electrons    NEL             ....  164
 Basis Dimension        Dim             ....  313

ORBITAL ENERGIES
----------------

  NO   OCC          E(Eh)            E(eV)
   0   2.0000    -102.141524     -2779.4122
   1   2.0000    -102.077924     -2777.6815
   2   2.0000    -102.075152     -2777.6061
   3   2.0000     -14.593414      -397.1070
   4   2.0000     -10.407265      -283.1961
   5   2.0000     -10.406734      -283.1816
   6   2.0000     -10.388984      -282.6986
   7   2.0000     -10.381741      -282.5015
   8   2.0000     -10.375517      -282.3322
   9   2.0000     -10.370184      -282.1870
  10   2.0000     -10.368977      -282.1542
  11   2.0000     -10.365633      -282.0632
  12   2.0000     -10.357353      -281.8379
  13   2.0000     -10.351324      -281.6739
  14   2.0000     -10.349875      -281.6344
  15   2.0000     -10.336577      -281.2725
  16   2.0000     -10.330787      -281.1150
  17   2.0000      -9.610391      -261.5120
  18   2.0000      -9.541365      -259.6337
  19   2.0000      -9.539725      -259.5891
  20   2.0000      -7.297165      -198.5660
  21   2.0000      -7.290377      -198.3812
  22   2.0000      -7.289972      -198.3702
  23   2.0000      -7.227270      -196.6640
  24   2.0000      -7.225941      -196.6279
  25   2.0000      -7.222479      -196.5337
  26   2.0000      -7.222162      -196.5250
  27   2.0000      -7.220563      -196.4815
  28   2.0000      -7.220188      -196.4713
  29   2.0000      -3.512249       -95.5732
  30   2.0000      -2.163897       -58.8826
  31   2.0000      -2.149615       -58.4940
  32   2.0000      -2.124026       -57.7977
  33   2.0000      -0.986231       -26.8367
  34   2.0000      -0.873988       -23.7824
  35   2.0000      -0.840574       -22.8732
  36   2.0000      -0.806680       -21.9509
  37   2.0000      -0.772346       -21.0166
  38   2.0000      -0.769512       -20.9395
  39   2.0000      -0.731523       -19.9057
  40   2.0000      -0.712121       -19.3778
  41   2.0000      -0.671831       -18.2815
  42   2.0000      -0.660390       -17.9701
  43   2.0000      -0.640886       -17.4394
  44   2.0000      -0.634547       -17.2669
  45   2.0000      -0.601312       -16.3625
  46   2.0000      -0.565014       -15.3748
  47   2.0000      -0.521500       -14.1907
  48   2.0000      -0.510064       -13.8795
  49   2.0000      -0.489678       -13.3248
  50   2.0000      -0.453961       -12.3529
  51   2.0000      -0.452070       -12.3014
  52   2.0000      -0.424441       -11.5496
  53   2.0000      -0.409819       -11.1518
  54   2.0000      -0.402146       -10.9429
  55   2.0000      -0.395055       -10.7500
  56   2.0000      -0.378367       -10.2959
  57   2.0000      -0.377317       -10.2673
  58   2.0000      -0.365624        -9.9491
  59   2.0000      -0.342169        -9.3109
  60   2.0000      -0.335647        -9.1334
  61   2.0000      -0.328838        -8.9481
  62   2.0000      -0.310861        -8.4590
  63   2.0000      -0.298192        -8.1142
  64   2.0000      -0.285094        -7.7578
  65   2.0000      -0.260622        -7.0919
  66   2.0000      -0.251579        -6.8458
  67   2.0000      -0.242997        -6.6123
  68   2.0000      -0.238215        -6.4822
  69   2.0000      -0.230021        -6.2592
  70   2.0000      -0.224276        -6.1029
  71   2.0000      -0.219293        -5.9673
  72   2.0000      -0.206892        -5.6298
  73   2.0000      -0.205143        -5.5822
  74   2.0000      -0.176357        -4.7989
  75   2.0000      -0.169022        -4.5993
  76   2.0000      -0.165978        -4.5165
  77   2.0000      -0.153011        -4.1636
  78   2.0000      -0.147456        -4.0125
  79   2.0000      -0.135576        -3.6892
  80   2.0000      -0.134905        -3.6710
  81   2.0000      -0.112694        -3.0666
  82   0.0000       0.050759         1.3812
  83   0.0000       0.073152         1.9906
  84   0.0000       0.075506         2.0546
  85   0.0000       0.111548         3.0354
  86   0.0000       0.147060         4.0017

MULLIKEN ATOMIC CHARGES
-----------------------
   0 Pd:    0.180680
   1 Cl:   -0.346358
   2 Cl:   -0.343826
   3 Cl:   -0.417948
   4 N :   -0.569932
   5 C :    0.048724
   6 C :   -0.334390
   7 C :   -0.151360
   8 C :    0.395291
   9 C :    0.038409
  10 H :    0.209428
  11 H :    0.273537
  12 H :    0.217633
  13 C :   -0.010804
  14 C :   -0.301982
  15 C :   -0.269356
  16 C :    0.107286
  17 H :    0.190653
  18 H :    0.192293
  19 C :   -0.183061
  20 C :   -0.318053
  21 C :   -0.323685
  22 C :   -0.196746
  23 H :    0.186411
  24 H :    0.186929
  25 H :    0.323798
  26 H :    0.216428
Sum of atomic charges:   -1.0000000

LOEWDIN ATOMIC CHARGES
----------------------
   0 Pd:   -0.834464
   1 Cl:   -0.087022
   2 Cl:   -0.165557
   3 Cl:   -0.163379
   4 N :    0.039697
   5 C :    0.010619
   6 C :   -0.171295
   7 C :   -0.089147
   8 C :    0.092548
   9 C :   -0.052886
  10 H :    0.134627
  11 H :    0.163090
  12 H :    0.139224
  13 C :   -0.032907
  14 C :   -0.146487
  15 C :   -0.118017
  16 C :   -0.033376
  17 H :    0.128156
  18 H :    0.129579
  19 C :   -0.119351
  20 C :   -0.157689
  21 C :   -0.143716
  22 C :   -0.134688
  23 H :    0.123023
  24 H :    0.122833
  25 H :    0.232890
  26 H :    0.133695

  Mayer bond orders larger than 0.100000
B(  0-Pd,  1-Cl) :   0.9294 B(  0-Pd,  2-Cl) :   0.1042 B(  0-Pd,  3-Cl) :   0.7912
B(  0-Pd,  4-N ) :   0.4008 B(  0-Pd, 19-C ) :   0.4548 B(  2-Cl, 25-H ) :   0.7634
B(  4-N ,  5-C ) :   1.4605 B(  4-N ,  8-C ) :   1.1535 B(  5-C ,  6-C ) :   1.3283
B(  5-C , 11-H ) :   0.8946 B(  6-C ,  7-C ) :   1.4461 B(  6-C , 12-H ) :   0.9199
B(  7-C ,  9-C ) :   1.2897 B(  7-C , 10-H ) :   0.9285 B(  8-C ,  9-C ) :   1.2143
B(  8-C , 13-C ) :   1.1234 B(  9-C , 14-C ) :   1.1598 B( 13-C , 16-C ) :   1.2709
B( 13-C , 19-C ) :   1.2698 B( 14-C , 15-C ) :   1.6473 B( 14-C , 17-H ) :   0.9300
B( 15-C , 16-C ) :   1.1464 B( 15-C , 18-H ) :   0.9286 B( 16-C , 20-C ) :   1.2872
B( 19-C , 21-C ) :   1.4767 B( 20-C , 22-C ) :   1.4914 B( 20-C , 23-H ) :   0.9301
B( 21-C , 22-C ) :   1.3467 B( 21-C , 26-H ) :   0.9161 B( 22-C , 24-H ) :   0.9245

Dispersion correction           -0.024354607
FINAL SINGLE POINT ENERGY     -2061.452823006700
Dispersion correction            ... done

DIPOLE MOMENT
-------------
                                X             Y             Z
Electronic contribution:    -79.41235     -60.09118      22.53510
Nuclear contribution   :     82.70821      62.88002     -21.85142
                        -----------------------------------------
Total Dipole Moment    :      3.29586       2.78883       0.68368
                        -----------------------------------------
Magnitude (a.u.)       :      4.37123
Magnitude (Debye)      :     11.11080

Rotational constants in cm-1:     0.011799     0.007733     0.005818
Rotational constants in MHz :   353.734581   231.826468   174.432195

                             ****ORCA TERMINATED NORMALLY****
TOTAL RUN TIME: 0 days 0 hours 9 minutes 8 seconds 813 msec
