                         Program Version 5.0.3 -  RELEASE  -
|  1> ! EnGrad PBEh-3c
|  2> %output
|  3> xyzfile=True
|  4> end
|  5> %scf
|  6> maxiter 250
|  7> end
|  8> %output
|  9> Print[P_Hirshfeld] = 1
| 10> end
| 11> % maxcore
| 12> 4000
| 13> *xyz -1 1
| 14> Pd  -2.05807744  -1.62726089   0.52485032
| 15> Cl  -3.48801752  -3.27017938  -0.18721611
| 16> Cl  -0.59750052  -4.30514716   1.10136666
| 17> Cl  -3.97428085  -0.26330090   0.81931903
| 18> N   -0.96871680  -0.11767948   1.41288308
| 19> C   -1.29103916   0.43576757   2.57593666
| 20> C   -0.76426088   1.66445425   3.00222589
| 21> C    0.08130622   2.33987361   2.16473809
| 22> C   -0.06509848   0.47435115   0.61426509
| 23> C    0.44816634   1.75084595   0.94922983
| 24> H    0.48621993   3.31252649   2.43494375
| 25> H   -1.98194957  -0.10638582   3.21367088
| 26> H   -1.07320320   2.08321329   3.95096639
| 27> C    0.34419831  -0.23050822  -0.58062692
| 28> C    1.33709051   2.42306987   0.04565282
| 29> C    1.67402456   1.83635273  -1.10976581
| 30> C    1.20114113   0.51440782  -1.44840095
| 31> H    1.72992643   3.40574476   0.32295433
| 32> H    2.35272777   2.34771519  -1.80294877
| 33> C   -0.09843344  -1.55638314  -0.85775734
| 34> C    1.65088710  -0.06295133  -2.65197886
| 35> C    0.33612973  -2.03817268  -2.09714831
| 36> C    1.20224681  -1.32158405  -2.96848358
| 37> H    2.33533978   0.48612686  -3.30570795
| 38> H    1.57650018  -1.79171613  -3.88277149
| 39> H   -0.40845172  -3.37961479   0.22567032
| 40> H    0.00394004  -3.00512294  -2.45826271
| 41> *
| 42>
| 43>                          ****END OF INPUT****

CARTESIAN COORDINATES (ANGSTROEM)
---------------------------------
  Pd    -2.058077   -1.627261    0.524850
  Cl    -3.488018   -3.270179   -0.187216
  Cl    -0.597501   -4.305147    1.101367
  Cl    -3.974281   -0.263301    0.819319
  N     -0.968717   -0.117679    1.412883
  C     -1.291039    0.435768    2.575937
  C     -0.764261    1.664454    3.002226
  C      0.081306    2.339874    2.164738
  C     -0.065098    0.474351    0.614265
  C      0.448166    1.750846    0.949230
  H      0.486220    3.312526    2.434944
  H     -1.981950   -0.106386    3.213671
  H     -1.073203    2.083213    3.950966
  C      0.344198   -0.230508   -0.580627
  C      1.337091    2.423070    0.045653
  C      1.674025    1.836353   -1.109766
  C      1.201141    0.514408   -1.448401
  H      1.729926    3.405745    0.322954
  H      2.352728    2.347715   -1.802949
  C     -0.098433   -1.556383   -0.857757
  C      1.650887   -0.062951   -2.651979
  C      0.336130   -2.038173   -2.097148
  C      1.202247   -1.321584   -2.968484
  H      2.335340    0.486127   -3.305708
  H      1.576500   -1.791716   -3.882771
  H     -0.408452   -3.379615    0.225670
  H      0.003940   -3.005123   -2.458263

 Total Charge           Charge          ....   -1
 Multiplicity           Mult            ....    1
 Number of Electrons    NEL             ....  164
 Basis Dimension        Dim             ....  313

ORBITAL ENERGIES
----------------

  NO   OCC          E(Eh)            E(eV)
   0   2.0000    -102.140809     -2779.3927
   1   2.0000    -102.077795     -2777.6780
   2   2.0000    -102.074260     -2777.5818
   3   2.0000     -14.593553      -397.1108
   4   2.0000     -10.407525      -283.2032
   5   2.0000     -10.406564      -283.1770
   6   2.0000     -10.388964      -282.6981
   7   2.0000     -10.381703      -282.5005
   8   2.0000     -10.375596      -282.3343
   9   2.0000     -10.369963      -282.1810
  10   2.0000     -10.368834      -282.1503
  11   2.0000     -10.365520      -282.0601
  12   2.0000     -10.357079      -281.8304
  13   2.0000     -10.351279      -281.6726
  14   2.0000     -10.349839      -281.6334
  15   2.0000     -10.336891      -281.2811
  16   2.0000     -10.330746      -281.1139
  17   2.0000      -9.610180      -261.5063
  18   2.0000      -9.541278      -259.6314
  19   2.0000      -9.538772      -259.5632
  20   2.0000      -7.296917      -198.5592
  21   2.0000      -7.290134      -198.3746
  22   2.0000      -7.289736      -198.3638
  23   2.0000      -7.227174      -196.6614
  24   2.0000      -7.224969      -196.6014
  25   2.0000      -7.222395      -196.5314
  26   2.0000      -7.222072      -196.5226
  27   2.0000      -7.219632      -196.4562
  28   2.0000      -7.219255      -196.4459
  29   2.0000      -3.512141       -95.5702
  30   2.0000      -2.163593       -58.8744
  31   2.0000      -2.149717       -58.4968
  32   2.0000      -2.123874       -57.7936
  33   2.0000      -0.986407       -26.8415
  34   2.0000      -0.874319       -23.7914
  35   2.0000      -0.840780       -22.8788
  36   2.0000      -0.807082       -21.9618
  37   2.0000      -0.773885       -21.0585
  38   2.0000      -0.771081       -20.9822
  39   2.0000      -0.731622       -19.9084
  40   2.0000      -0.712386       -19.3850
  41   2.0000      -0.671260       -18.2659
  42   2.0000      -0.659984       -17.9591
  43   2.0000      -0.641023       -17.4431
  44   2.0000      -0.634574       -17.2676
  45   2.0000      -0.601464       -16.3667
  46   2.0000      -0.564836       -15.3700
  47   2.0000      -0.521601       -14.1935
  48   2.0000      -0.510235       -13.8842
  49   2.0000      -0.489678       -13.3248
  50   2.0000      -0.453963       -12.3530
  51   2.0000      -0.452068       -12.3014
  52   2.0000      -0.424564       -11.5530
  53   2.0000      -0.410058       -11.1582
  54   2.0000      -0.402301       -10.9472
  55   2.0000      -0.395053       -10.7499
  56   2.0000      -0.379519       -10.3272
  57   2.0000      -0.378122       -10.2892
  58   2.0000      -0.366474        -9.9723
  59   2.0000      -0.341918        -9.3041
  60   2.0000      -0.335879        -9.1397
  61   2.0000      -0.328761        -8.9460
  62   2.0000      -0.311125        -8.4661
  63   2.0000      -0.298477        -8.1220
  64   2.0000      -0.285371        -7.7653
  65   2.0000      -0.260883        -7.0990
  66   2.0000      -0.251583        -6.8459
  67   2.0000      -0.243308        -6.6208
  68   2.0000      -0.238422        -6.4878
  69   2.0000      -0.230448        -6.2708
  70   2.0000      -0.224606        -6.1118
  71   2.0000      -0.219293        -5.9673
  72   2.0000      -0.206192        -5.6108
  73   2.0000      -0.204340        -5.5604
  74   2.0000      -0.176460        -4.8017
  75   2.0000      -0.168902        -4.5960
  76   2.0000      -0.166100        -4.5198
  77   2.0000      -0.152909        -4.1609
  78   2.0000      -0.147289        -4.0079
  79   2.0000      -0.135205        -3.6791
  80   2.0000      -0.134452        -3.6586
  81   2.0000      -0.112672        -3.0660
  82   0.0000       0.050819         1.3828
  83   0.0000       0.073471         1.9992
  84   0.0000       0.076233         2.0744
  85   0.0000       0.111307         3.0288
  86   0.0000       0.147634         4.0173

MULLIKEN ATOMIC CHARGES
-----------------------
   0 Pd:    0.179061
   1 Cl:   -0.349583
   2 Cl:   -0.343644
   3 Cl:   -0.417229
   4 N :   -0.571212
   5 C :    0.048643
   6 C :   -0.334906
   7 C :   -0.150789
   8 C :    0.396277
   9 C :    0.037310
  10 H :    0.209255
  11 H :    0.274088
  12 H :    0.217529
  13 C :   -0.009715
  14 C :   -0.300144
  15 C :   -0.269307
  16 C :    0.108527
  17 H :    0.190364
  18 H :    0.191770
  19 C :   -0.184251
  20 C :   -0.317298
  21 C :   -0.323521
  22 C :   -0.197192
  23 H :    0.186057
  24 H :    0.186826
  25 H :    0.326334
  26 H :    0.216750
Sum of atomic charges:   -1.0000000

LOEWDIN ATOMIC CHARGES
----------------------
   0 Pd:   -0.836031
   1 Cl:   -0.091821
   2 Cl:   -0.161282
   3 Cl:   -0.161847
   4 N :    0.040145
   5 C :    0.011060
   6 C :   -0.171130
   7 C :   -0.089381
   8 C :    0.092468
   9 C :   -0.052668
  10 H :    0.134588
  11 H :    0.163284
  12 H :    0.139220
  13 C :   -0.032884
  14 C :   -0.146219
  15 C :   -0.117977
  16 C :   -0.033283
  17 H :    0.128120
  18 H :    0.129429
  19 C :   -0.118093
  20 C :   -0.157484
  21 C :   -0.142730
  22 C :   -0.134625
  23 H :    0.122935
  24 H :    0.122815
  25 H :    0.229391
  26 H :    0.134000

  Mayer bond orders larger than 0.100000
B(  0-Pd,  1-Cl) :   0.9261 B(  0-Pd,  2-Cl) :   0.1040 B(  0-Pd,  3-Cl) :   0.7913
B(  0-Pd,  4-N ) :   0.4030 B(  0-Pd, 19-C ) :   0.4614 B(  2-Cl, 25-H ) :   0.7636
B(  4-N ,  5-C ) :   1.4588 B(  4-N ,  8-C ) :   1.1528 B(  5-C ,  6-C ) :   1.3287
B(  5-C , 11-H ) :   0.8943 B(  6-C ,  7-C ) :   1.4455 B(  6-C , 12-H ) :   0.9199
B(  7-C ,  9-C ) :   1.2905 B(  7-C , 10-H ) :   0.9285 B(  8-C ,  9-C ) :   1.2150
B(  8-C , 13-C ) :   1.1232 B(  9-C , 14-C ) :   1.1588 B( 13-C , 16-C ) :   1.2720
B( 13-C , 19-C ) :   1.2662 B( 14-C , 15-C ) :   1.6482 B( 14-C , 17-H ) :   0.9299
B( 15-C , 16-C ) :   1.1456 B( 15-C , 18-H ) :   0.9286 B( 16-C , 20-C ) :   1.2876
B( 19-C , 21-C ) :   1.4763 B( 20-C , 22-C ) :   1.4911 B( 20-C , 23-H ) :   0.9302
B( 21-C , 22-C ) :   1.3465 B( 21-C , 26-H ) :   0.9160 B( 22-C , 24-H ) :   0.9246

Dispersion correction           -0.024365151
FINAL SINGLE POINT ENERGY     -2061.453165152265
Dispersion correction            ... done

DIPOLE MOMENT
-------------
                                X             Y             Z
Electronic contribution:    -79.25001     -59.72848      22.10156
Nuclear contribution   :     82.55695      62.52152     -21.41394
                        -----------------------------------------
Total Dipole Moment    :      3.30694       2.79304       0.68762
                        -----------------------------------------
Magnitude (a.u.)       :      4.38289
Magnitude (Debye)      :     11.14042

Rotational constants in cm-1:     0.011816     0.007760     0.005832
Rotational constants in MHz :   354.249738   232.642476   174.850861

                             ****ORCA TERMINATED NORMALLY****
TOTAL RUN TIME: 0 days 0 hours 10 minutes 21 seconds 813 msec
