                         Program Version 5.0.3 -  RELEASE  -
|  1> ! EnGrad PBEh-3c
|  2> %output
|  3> xyzfile=True
|  4> end
|  5> %scf
|  6> maxiter 250
|  7> end
|  8> %output
|  9> Print[P_Hirshfeld] = 1
| 10> end
| 11> % maxcore
| 12> 4000
| 13> *xyz -1 1
| 14> Pd  -2.11311387  -1.69475150   0.63995287
| 15> Cl  -3.45245620  -3.28733121  -0.19042232
| 16> Cl  -0.65337576  -4.56412156   1.30021819
| 17> Cl  -4.03987226  -0.30609670   0.84128803
| 18> N   -0.99236719  -0.09826845   1.43357968
| 19> C   -1.28485378   0.46939080   2.59246361
| 20> C   -0.77103936   1.69233490   2.98687963
| 21> C    0.07715748   2.35654129   2.16571523
| 22> C   -0.07167175   0.49824859   0.60740528
| 23> C    0.46445677   1.80155786   0.94345315
| 24> H    0.49542858   3.32753588   2.44645282
| 25> H   -1.95066671  -0.07944541   3.19678681
| 26> H   -1.08434428   2.11763747   3.94190377
| 27> C    0.34067849  -0.16234080  -0.59431345
| 28> C    1.35645981   2.42935278   0.04944303
| 29> C    1.69741568   1.85092667  -1.10084599
| 30> C    1.23419387   0.55623363  -1.49123318
| 31> H    1.74986311   3.39870221   0.32014475
| 32> H    2.37565696   2.35213915  -1.78327395
| 33> C   -0.12950240  -1.55111749  -0.88375009
| 34> C    1.65160666  -0.08376548  -2.63035044
| 35> C    0.33593384  -2.00588948  -2.14132869
| 36> C    1.22615537  -1.29228196  -2.97674092
| 37> H    2.34085324   0.47881752  -3.31040142
| 38> H    1.59233511  -1.78569609  -3.87761883
| 39> H   -0.35564768  -3.46764812  -0.02303815
| 40> H   -0.04311685  -2.95236267  -2.46124573
| 41> *
| 42>
| 43>                          ****END OF INPUT****

CARTESIAN COORDINATES (ANGSTROEM)
---------------------------------
  Pd    -2.113114   -1.694751    0.639953
  Cl    -3.452456   -3.287331   -0.190422
  Cl    -0.653376   -4.564122    1.300218
  Cl    -4.039872   -0.306097    0.841288
  N     -0.992367   -0.098268    1.433580
  C     -1.284854    0.469391    2.592464
  C     -0.771039    1.692335    2.986880
  C      0.077157    2.356541    2.165715
  C     -0.071672    0.498249    0.607405
  C      0.464457    1.801558    0.943453
  H      0.495429    3.327536    2.446453
  H     -1.950667   -0.079445    3.196787
  H     -1.084344    2.117637    3.941904
  C      0.340678   -0.162341   -0.594313
  C      1.356460    2.429353    0.049443
  C      1.697416    1.850927   -1.100846
  C      1.234194    0.556234   -1.491233
  H      1.749863    3.398702    0.320145
  H      2.375657    2.352139   -1.783274
  C     -0.129502   -1.551117   -0.883750
  C      1.651607   -0.083765   -2.630350
  C      0.335934   -2.005889   -2.141329
  C      1.226155   -1.292282   -2.976741
  H      2.340853    0.478818   -3.310401
  H      1.592335   -1.785696   -3.877619
  H     -0.355648   -3.467648   -0.023038
  H     -0.043117   -2.952363   -2.461246

 Total Charge           Charge          ....   -1
 Multiplicity           Mult            ....    1
 Number of Electrons    NEL             ....  164
 Basis Dimension        Dim             ....  313

ORBITAL ENERGIES
----------------

  NO   OCC          E(Eh)            E(eV)
   0   2.0000    -102.122965     -2778.9072
   1   2.0000    -102.086723     -2777.9209
   2   2.0000    -102.084950     -2777.8727
   3   2.0000     -14.596957      -397.2034
   4   2.0000     -10.414494      -283.3928
   5   2.0000     -10.405361      -283.1443
   6   2.0000     -10.391478      -282.7665
   7   2.0000     -10.386355      -282.6271
   8   2.0000     -10.376560      -282.3605
   9   2.0000     -10.372535      -282.2510
  10   2.0000     -10.371198      -282.2147
  11   2.0000     -10.370874      -282.2058
  12   2.0000     -10.369851      -282.1780
  13   2.0000     -10.352883      -281.7163
  14   2.0000     -10.352133      -281.6959
  15   2.0000     -10.350832      -281.6605
  16   2.0000     -10.340316      -281.3743
  17   2.0000      -9.585413      -260.8324
  18   2.0000      -9.550096      -259.8713
  19   2.0000      -9.549910      -259.8663
  20   2.0000      -7.272502      -197.8949
  21   2.0000      -7.265897      -197.7151
  22   2.0000      -7.265457      -197.7031
  23   2.0000      -7.236544      -196.9164
  24   2.0000      -7.235996      -196.9015
  25   2.0000      -7.230923      -196.7634
  26   2.0000      -7.230701      -196.7574
  27   2.0000      -7.230642      -196.7558
  28   2.0000      -7.230320      -196.7470
  29   2.0000      -3.518882       -95.7537
  30   2.0000      -2.171961       -59.1021
  31   2.0000      -2.154947       -58.6391
  32   2.0000      -2.130995       -57.9873
  33   2.0000      -0.982785       -26.7429
  34   2.0000      -0.882035       -24.0014
  35   2.0000      -0.846892       -23.0451
  36   2.0000      -0.816310       -22.2129
  37   2.0000      -0.776410       -21.1272
  38   2.0000      -0.739575       -20.1248
  39   2.0000      -0.717379       -19.5209
  40   2.0000      -0.703415       -19.1409
  41   2.0000      -0.681423       -18.5425
  42   2.0000      -0.668686       -18.1959
  43   2.0000      -0.647184       -17.6108
  44   2.0000      -0.640196       -17.4206
  45   2.0000      -0.604033       -16.4366
  46   2.0000      -0.568553       -15.4711
  47   2.0000      -0.527848       -14.3635
  48   2.0000      -0.516219       -14.0470
  49   2.0000      -0.494265       -13.4496
  50   2.0000      -0.461146       -12.5484
  51   2.0000      -0.458938       -12.4883
  52   2.0000      -0.428660       -11.6644
  53   2.0000      -0.409987       -11.1563
  54   2.0000      -0.404267       -11.0007
  55   2.0000      -0.399776       -10.8785
  56   2.0000      -0.387237       -10.5373
  57   2.0000      -0.374259       -10.1841
  58   2.0000      -0.348835        -9.4923
  59   2.0000      -0.343106        -9.3364
  60   2.0000      -0.331235        -9.0134
  61   2.0000      -0.317137        -8.6297
  62   2.0000      -0.304480        -8.2853
  63   2.0000      -0.294700        -8.0192
  64   2.0000      -0.288098        -7.8395
  65   2.0000      -0.267682        -7.2840
  66   2.0000      -0.256164        -6.9706
  67   2.0000      -0.241782        -6.5792
  68   2.0000      -0.234661        -6.3855
  69   2.0000      -0.228185        -6.2092
  70   2.0000      -0.224620        -6.1122
  71   2.0000      -0.221901        -6.0382
  72   2.0000      -0.198632        -5.4050
  73   2.0000      -0.193166        -5.2563
  74   2.0000      -0.179423        -4.8823
  75   2.0000      -0.176707        -4.8084
  76   2.0000      -0.169202        -4.6042
  77   2.0000      -0.159275        -4.3341
  78   2.0000      -0.153906        -4.1880
  79   2.0000      -0.143175        -3.8960
  80   2.0000      -0.139649        -3.8000
  81   2.0000      -0.120251        -3.2722
  82   0.0000       0.044164         1.2018
  83   0.0000       0.062040         1.6882
  84   0.0000       0.067375         1.8334
  85   0.0000       0.109605         2.9825
  86   0.0000       0.117351         3.1933

MULLIKEN ATOMIC CHARGES
-----------------------
   0 Pd:    0.219790
   1 Cl:   -0.309899
   2 Cl:   -0.386117
   3 Cl:   -0.411964
   4 N :   -0.568087
   5 C :    0.056638
   6 C :   -0.328812
   7 C :   -0.152339
   8 C :    0.384940
   9 C :    0.043772
  10 H :    0.206473
  11 H :    0.276346
  12 H :    0.217563
  13 C :   -0.112520
  14 C :   -0.279881
  15 C :   -0.279750
  16 C :    0.181147
  17 H :    0.193344
  18 H :    0.192390
  19 C :   -0.174509
  20 C :   -0.314760
  21 C :   -0.330787
  22 C :   -0.173885
  23 H :    0.177060
  24 H :    0.194152
  25 H :    0.254511
  26 H :    0.225182
Sum of atomic charges:   -1.0000000

LOEWDIN ATOMIC CHARGES
----------------------
   0 Pd:   -0.804505
   1 Cl:   -0.036594
   2 Cl:   -0.298865
   3 Cl:   -0.156671
   4 N :    0.029657
   5 C :    0.009112
   6 C :   -0.170321
   7 C :   -0.087538
   8 C :    0.094325
   9 C :   -0.053371
  10 H :    0.133816
  11 H :    0.161607
  12 H :    0.140894
  13 C :   -0.027860
  14 C :   -0.144280
  15 C :   -0.116570
  16 C :   -0.037187
  17 H :    0.130390
  18 H :    0.129827
  19 C :   -0.113770
  20 C :   -0.150539
  21 C :   -0.154925
  22 C :   -0.133934
  23 H :    0.120003
  24 H :    0.128139
  25 H :    0.274059
  26 H :    0.135102

  Mayer bond orders larger than 0.100000
B(  0-Pd,  1-Cl) :   0.9587 B(  0-Pd,  2-Cl) :   0.1171 B(  0-Pd,  3-Cl) :   0.8137
B(  0-Pd,  4-N ) :   0.3859 B(  0-Pd, 19-C ) :   0.3478 B(  2-Cl, 25-H ) :   0.6823
B(  4-N ,  5-C ) :   1.4739 B(  4-N ,  8-C ) :   1.1436 B(  5-C ,  6-C ) :   1.3225
B(  5-C , 11-H ) :   0.8943 B(  6-C ,  7-C ) :   1.4538 B(  6-C , 12-H ) :   0.9199
B(  7-C ,  9-C ) :   1.2835 B(  7-C , 10-H ) :   0.9297 B(  8-C ,  9-C ) :   1.2237
B(  8-C , 13-C ) :   1.1611 B(  9-C , 14-C ) :   1.1797 B( 13-C , 16-C ) :   1.2672
B( 13-C , 19-C ) :   1.2936 B( 14-C , 15-C ) :   1.6278 B( 14-C , 17-H ) :   0.9293
B( 15-C , 16-C ) :   1.1646 B( 15-C , 18-H ) :   0.9271 B( 16-C , 20-C ) :   1.2675
B( 19-C , 21-C ) :   1.4871 B( 19-C , 25-H ) :   0.1636 B( 20-C , 22-C ) :   1.5033
B( 20-C , 23-H ) :   0.9327 B( 21-C , 22-C ) :   1.3257 B( 21-C , 26-H ) :   0.9143
B( 22-C , 24-H ) :   0.9229

Dispersion correction           -0.024241671
FINAL SINGLE POINT ENERGY     -2061.395019556384
Dispersion correction            ... done

DIPOLE MOMENT
-------------
                                X             Y             Z
Electronic contribution:    -81.99642     -61.89639      26.99516
Nuclear contribution   :     85.11075      65.21860     -26.63244
                        -----------------------------------------
Total Dipole Moment    :      3.11433       3.32221       0.36272
                        -----------------------------------------
Magnitude (a.u.)       :      4.56811
Magnitude (Debye)      :     11.61123

Rotational constants in cm-1:     0.011483     0.007350     0.005628
Rotational constants in MHz :   344.243546   220.335986   168.738131

                             ****ORCA TERMINATED NORMALLY****
TOTAL RUN TIME: 0 days 0 hours 9 minutes 56 seconds 393 msec
