                         Program Version 5.0.3 -  RELEASE  -
|  1> ! EnGrad PBEh-3c
|  2> %output
|  3> xyzfile=True
|  4> end
|  5> %scf
|  6> maxiter 250
|  7> end
|  8> %output
|  9> Print[P_Hirshfeld] = 1
| 10> end
| 11> % maxcore
| 12> 4000
| 13> *xyz -1 1
| 14> Pd  -2.08264476  -1.69300748   0.58815139
| 15> Cl  -3.45835663  -3.27565372  -0.18386208
| 16> Cl  -0.63104867  -4.48228500   1.22121059
| 17> Cl  -4.03325863  -0.28819913   0.84088588
| 18> N   -0.99154310  -0.10255441   1.42895329
| 19> C   -1.28419337   0.46139804   2.57982475
| 20> C   -0.77447373   1.68392080   3.00598364
| 21> C    0.08716089   2.36461940   2.15942922
| 22> C   -0.06873291   0.49937503   0.62399113
| 23> C    0.45317254   1.77922060   0.94553765
| 24> H    0.49164197   3.31994242   2.44153059
| 25> H   -1.96326539  -0.08840917   3.20612022
| 26> H   -1.07981618   2.10693674   3.93800634
| 27> C    0.34221000  -0.19094259  -0.59954181
| 28> C    1.35089476   2.43992878   0.06006966
| 29> C    1.70084031   1.84383190  -1.12342085
| 30> C    1.21219752   0.55292756  -1.45812617
| 31> H    1.74481380   3.39862131   0.32017882
| 32> H    2.36917176   2.35029712  -1.78656911
| 33> C   -0.12508365  -1.56523335  -0.87999971
| 34> C    1.68501281  -0.04644721  -2.65551956
| 35> C    0.33714415  -2.00714493  -2.12029644
| 36> C    1.20273650  -1.32717516  -2.98760528
| 37> H    2.33224930   0.47370409  -3.30012781
| 38> H    1.58909369  -1.78507554  -3.87627847
| 39> H   -0.37993415  -3.45629768   0.07665899
| 40> H   -0.03224797  -2.96834622  -2.46250886
| 41> *
| 42>
| 43>                          ****END OF INPUT****

CARTESIAN COORDINATES (ANGSTROEM)
---------------------------------
  Pd    -2.082645   -1.693007    0.588151
  Cl    -3.458357   -3.275654   -0.183862
  Cl    -0.631049   -4.482285    1.221211
  Cl    -4.033259   -0.288199    0.840886
  N     -0.991543   -0.102554    1.428953
  C     -1.284193    0.461398    2.579825
  C     -0.774474    1.683921    3.005984
  C      0.087161    2.364619    2.159429
  C     -0.068733    0.499375    0.623991
  C      0.453173    1.779221    0.945538
  H      0.491642    3.319942    2.441531
  H     -1.963265   -0.088409    3.206120
  H     -1.079816    2.106937    3.938006
  C      0.342210   -0.190943   -0.599542
  C      1.350895    2.439929    0.060070
  C      1.700840    1.843832   -1.123421
  C      1.212198    0.552928   -1.458126
  H      1.744814    3.398621    0.320179
  H      2.369172    2.350297   -1.786569
  C     -0.125084   -1.565233   -0.880000
  C      1.685013   -0.046447   -2.655520
  C      0.337144   -2.007145   -2.120296
  C      1.202737   -1.327175   -2.987605
  H      2.332249    0.473704   -3.300128
  H      1.589094   -1.785076   -3.876278
  H     -0.379934   -3.456298    0.076659
  H     -0.032248   -2.968346   -2.462509

 Total Charge           Charge          ....   -1
 Multiplicity           Mult            ....    1
 Number of Electrons    NEL             ....  164
 Basis Dimension        Dim             ....  313

ORBITAL ENERGIES
----------------

  NO   OCC          E(Eh)            E(eV)
   0   2.0000    -102.137431     -2779.3008
   1   2.0000    -102.083774     -2777.8407
   2   2.0000    -102.080355     -2777.7477
   3   2.0000     -14.594249      -397.1297
   4   2.0000     -10.411097      -283.3003
   5   2.0000     -10.404477      -283.1202
   6   2.0000     -10.390772      -282.7473
   7   2.0000     -10.383246      -282.5425
   8   2.0000     -10.375589      -282.3341
   9   2.0000     -10.371248      -282.2160
  10   2.0000     -10.370495      -282.1955
  11   2.0000     -10.368745      -282.1479
  12   2.0000     -10.366224      -282.0793
  13   2.0000     -10.353875      -281.7433
  14   2.0000     -10.351928      -281.6903
  15   2.0000     -10.343780      -281.4686
  16   2.0000     -10.336673      -281.2752
  17   2.0000      -9.601407      -261.2676
  18   2.0000      -9.548999      -259.8415
  19   2.0000      -9.543402      -259.6892
  20   2.0000      -7.288586      -198.3325
  21   2.0000      -7.281655      -198.1439
  22   2.0000      -7.281242      -198.1327
  23   2.0000      -7.235402      -196.8853
  24   2.0000      -7.229635      -196.7284
  25   2.0000      -7.229384      -196.7215
  26   2.0000      -7.229242      -196.7177
  27   2.0000      -7.224496      -196.5885
  28   2.0000      -7.224221      -196.5810
  29   2.0000      -3.516666       -95.6933
  30   2.0000      -2.169747       -59.0418
  31   2.0000      -2.152538       -58.5735
  32   2.0000      -2.128731       -57.9257
  33   2.0000      -0.984659       -26.7939
  34   2.0000      -0.875011       -23.8103
  35   2.0000      -0.839790       -22.8519
  36   2.0000      -0.805174       -21.9099
  37   2.0000      -0.773009       -21.0346
  38   2.0000      -0.733327       -19.9549
  39   2.0000      -0.730277       -19.8719
  40   2.0000      -0.711991       -19.3742
  41   2.0000      -0.680091       -18.5062
  42   2.0000      -0.662929       -18.0392
  43   2.0000      -0.643232       -17.5032
  44   2.0000      -0.636042       -17.3076
  45   2.0000      -0.602743       -16.4015
  46   2.0000      -0.571778       -15.5589
  47   2.0000      -0.523268       -14.2389
  48   2.0000      -0.512290       -13.9401
  49   2.0000      -0.492350       -13.3975
  50   2.0000      -0.457499       -12.4492
  51   2.0000      -0.456591       -12.4245
  52   2.0000      -0.426642       -11.6095
  53   2.0000      -0.409070       -11.1314
  54   2.0000      -0.403588       -10.9822
  55   2.0000      -0.397903       -10.8275
  56   2.0000      -0.380236       -10.3467
  57   2.0000      -0.368743       -10.0340
  58   2.0000      -0.355965        -9.6863
  59   2.0000      -0.337644        -9.1878
  60   2.0000      -0.335799        -9.1376
  61   2.0000      -0.322544        -8.7769
  62   2.0000      -0.311548        -8.4776
  63   2.0000      -0.297447        -8.0939
  64   2.0000      -0.282344        -7.6830
  65   2.0000      -0.260494        -7.0884
  66   2.0000      -0.252897        -6.8817
  67   2.0000      -0.238764        -6.4971
  68   2.0000      -0.236030        -6.4227
  69   2.0000      -0.227456        -6.1894
  70   2.0000      -0.224082        -6.0976
  71   2.0000      -0.219927        -5.9845
  72   2.0000      -0.210968        -5.7407
  73   2.0000      -0.204351        -5.5607
  74   2.0000      -0.177251        -4.8232
  75   2.0000      -0.173420        -4.7190
  76   2.0000      -0.168108        -4.5745
  77   2.0000      -0.155394        -4.2285
  78   2.0000      -0.150198        -4.0871
  79   2.0000      -0.140366        -3.8195
  80   2.0000      -0.138771        -3.7761
  81   2.0000      -0.118031        -3.2118
  82   0.0000       0.047221         1.2849
  83   0.0000       0.065050         1.7701
  84   0.0000       0.069873         1.9013
  85   0.0000       0.112291         3.0556
  86   0.0000       0.132589         3.6079

MULLIKEN ATOMIC CHARGES
-----------------------
   0 Pd:    0.207558
   1 Cl:   -0.313741
   2 Cl:   -0.359951
   3 Cl:   -0.424886
   4 N :   -0.557608
   5 C :    0.052984
   6 C :   -0.329558
   7 C :   -0.162709
   8 C :    0.371909
   9 C :    0.058282
  10 H :    0.210122
  11 H :    0.270783
  12 H :    0.219628
  13 C :   -0.053043
  14 C :   -0.308716
  15 C :   -0.271448
  16 C :    0.123663
  17 H :    0.194037
  18 H :    0.196980
  19 C :   -0.171980
  20 C :   -0.325837
  21 C :   -0.322119
  22 C :   -0.185184
  23 H :    0.191134
  24 H :    0.192380
  25 H :    0.280701
  26 H :    0.216619
Sum of atomic charges:   -1.0000000

LOEWDIN ATOMIC CHARGES
----------------------
   0 Pd:   -0.813673
   1 Cl:   -0.038149
   2 Cl:   -0.241811
   3 Cl:   -0.181843
   4 N :    0.033070
   5 C :    0.006829
   6 C :   -0.172681
   7 C :   -0.084890
   8 C :    0.094431
   9 C :   -0.056216
  10 H :    0.134302
  11 H :    0.160662
  12 H :    0.140015
  13 C :   -0.026481
  14 C :   -0.146150
  15 C :   -0.118177
  16 C :   -0.037338
  17 H :    0.129155
  18 H :    0.131002
  19 C :   -0.116178
  20 C :   -0.156924
  21 C :   -0.153121
  22 C :   -0.134489
  23 H :    0.123729
  24 H :    0.125432
  25 H :    0.266450
  26 H :    0.133042

  Mayer bond orders larger than 0.100000
B(  0-Pd,  1-Cl) :   0.9612 B(  0-Pd,  2-Cl) :   0.1066 B(  0-Pd,  3-Cl) :   0.7861
B(  0-Pd,  4-N ) :   0.3817 B(  0-Pd, 19-C ) :   0.3998 B(  2-Cl, 25-H ) :   0.7329
B(  4-N ,  5-C ) :   1.4787 B(  4-N ,  8-C ) :   1.1564 B(  5-C ,  6-C ) :   1.3255
B(  5-C , 11-H ) :   0.8961 B(  6-C ,  7-C ) :   1.4532 B(  6-C , 12-H ) :   0.9200
B(  7-C ,  9-C ) :   1.2833 B(  7-C , 10-H ) :   0.9287 B(  8-C ,  9-C ) :   1.2187
B(  8-C , 13-C ) :   1.1413 B(  9-C , 14-C ) :   1.1718 B( 13-C , 16-C ) :   1.2612
B( 13-C , 19-C ) :   1.2816 B( 14-C , 15-C ) :   1.6340 B( 14-C , 17-H ) :   0.9294
B( 15-C , 16-C ) :   1.1633 B( 15-C , 18-H ) :   0.9276 B( 16-C , 20-C ) :   1.2803
B( 19-C , 21-C ) :   1.4747 B( 19-C , 25-H ) :   0.1184 B( 20-C , 22-C ) :   1.4977
B( 20-C , 23-H ) :   0.9275 B( 21-C , 22-C ) :   1.3474 B( 21-C , 26-H ) :   0.9163
B( 22-C , 24-H ) :   0.9234

Dispersion correction           -0.024133595
FINAL SINGLE POINT ENERGY     -2061.423747796454
Dispersion correction            ... done

DIPOLE MOMENT
-------------
                                X             Y             Z
Electronic contribution:    -80.42200     -62.42199      24.72452
Nuclear contribution   :     83.63092      65.42107     -24.22186
                        -----------------------------------------
Total Dipole Moment    :      3.20892       2.99909       0.50266
                        -----------------------------------------
Magnitude (a.u.)       :      4.42090
Magnitude (Debye)      :     11.23703

Rotational constants in cm-1:     0.011561     0.007471     0.005679
Rotational constants in MHz :   346.584585   223.969671   170.264716

                             ****ORCA TERMINATED NORMALLY****
TOTAL RUN TIME: 0 days 0 hours 13 minutes 29 seconds 467 msec
