                         Program Version 5.0.3 -  RELEASE  -
|  1> ! EnGrad PBEh-3c
|  2> %output
|  3> xyzfile=True
|  4> end
|  5> %scf
|  6> maxiter 250
|  7> end
|  8> %output
|  9> Print[P_Hirshfeld] = 1
| 10> end
| 11> % maxcore
| 12> 4000
| 13> *xyz -1 1
| 14> Pd  -2.08526380  -1.67552178   0.58843181
| 15> Cl  -3.46700714  -3.27828889  -0.18515175
| 16> Cl  -0.63062026  -4.45278622   1.20728581
| 17> Cl  -4.01848199  -0.28529075   0.83129509
| 18> N   -0.97970285  -0.10395499   1.42074726
| 19> C   -1.28439049   0.45539110   2.57755236
| 20> C   -0.76993720   1.68408733   3.00326240
| 21> C    0.08502731   2.35930483   2.16213427
| 22> C   -0.07052915   0.49553527   0.61933129
| 23> C    0.44969829   1.76956958   0.94748732
| 24> H    0.49067772   3.31946540   2.44188595
| 25> H   -1.96740668  -0.09342384   3.21003401
| 26> H   -1.07869665   2.10309029   3.94200067
| 27> C    0.33794202  -0.20256183  -0.59543098
| 28> C    1.34887797   2.43315670   0.05240363
| 29> C    1.69377701   1.84516892  -1.11574315
| 30> C    1.20733887   0.54094784  -1.45422459
| 31> H    1.74322149   3.40312679   0.32114051
| 32> H    2.36822793   2.35286848  -1.79133586
| 33> C   -0.11150047  -1.55225609  -0.87880583
| 34> C    1.67478981  -0.05253501  -2.65523997
| 35> C    0.33264151  -2.01401008  -2.11417512
| 36> C    1.20701037  -1.32173907  -2.98025309
| 37> H    2.33491284   0.47789193  -3.30466203
| 38> H    1.58901525  -1.78659788  -3.88018751
| 39> H   -0.38185198  -3.44764176   0.09628651
| 40> H   -0.02426060  -2.97472303  -2.46262367
| 41> *
| 42>
| 43>                          ****END OF INPUT****

CARTESIAN COORDINATES (ANGSTROEM)
---------------------------------
  Pd    -2.085264   -1.675522    0.588432
  Cl    -3.467007   -3.278289   -0.185152
  Cl    -0.630620   -4.452786    1.207286
  Cl    -4.018482   -0.285291    0.831295
  N     -0.979703   -0.103955    1.420747
  C     -1.284390    0.455391    2.577552
  C     -0.769937    1.684087    3.003262
  C      0.085027    2.359305    2.162134
  C     -0.070529    0.495535    0.619331
  C      0.449698    1.769570    0.947487
  H      0.490678    3.319465    2.441886
  H     -1.967407   -0.093424    3.210034
  H     -1.078697    2.103090    3.942001
  C      0.337942   -0.202562   -0.595431
  C      1.348878    2.433157    0.052404
  C      1.693777    1.845169   -1.115743
  C      1.207339    0.540948   -1.454225
  H      1.743221    3.403127    0.321141
  H      2.368228    2.352868   -1.791336
  C     -0.111500   -1.552256   -0.878806
  C      1.674790   -0.052535   -2.655240
  C      0.332642   -2.014010   -2.114175
  C      1.207010   -1.321739   -2.980253
  H      2.334913    0.477892   -3.304662
  H      1.589015   -1.786598   -3.880188
  H     -0.381852   -3.447642    0.096287
  H     -0.024261   -2.974723   -2.462624

 Total Charge           Charge          ....   -1
 Multiplicity           Mult            ....    1
 Number of Electrons    NEL             ....  164
 Basis Dimension        Dim             ....  313

ORBITAL ENERGIES
----------------

  NO   OCC          E(Eh)            E(eV)
   0   2.0000    -102.138847     -2779.3393
   1   2.0000    -102.081305     -2777.7735
   2   2.0000    -102.080875     -2777.7618
   3   2.0000     -14.594237      -397.1294
   4   2.0000     -10.409475      -283.2562
   5   2.0000     -10.406543      -283.1764
   6   2.0000     -10.390383      -282.7367
   7   2.0000     -10.383270      -282.5431
   8   2.0000     -10.376102      -282.3481
   9   2.0000     -10.370900      -282.2065
  10   2.0000     -10.370059      -282.1837
  11   2.0000     -10.368023      -282.1283
  12   2.0000     -10.362822      -281.9867
  13   2.0000     -10.352871      -281.7159
  14   2.0000     -10.351158      -281.6693
  15   2.0000     -10.337863      -281.3075
  16   2.0000     -10.336337      -281.2660
  17   2.0000      -9.603313      -261.3194
  18   2.0000      -9.546277      -259.7674
  19   2.0000      -9.544083      -259.7077
  20   2.0000      -7.290467      -198.3837
  21   2.0000      -7.283526      -198.1948
  22   2.0000      -7.283108      -198.1834
  23   2.0000      -7.232637      -196.8100
  24   2.0000      -7.230063      -196.7400
  25   2.0000      -7.226969      -196.6558
  26   2.0000      -7.226591      -196.6455
  27   2.0000      -7.225163      -196.6067
  28   2.0000      -7.224878      -196.5989
  29   2.0000      -3.515163       -95.6525
  30   2.0000      -2.167865       -58.9906
  31   2.0000      -2.151453       -58.5440
  32   2.0000      -2.127150       -57.8827
  33   2.0000      -0.986476       -26.8434
  34   2.0000      -0.874786       -23.8041
  35   2.0000      -0.840713       -22.8770
  36   2.0000      -0.806712       -21.9517
  37   2.0000      -0.772902       -21.0317
  38   2.0000      -0.735430       -20.0121
  39   2.0000      -0.732579       -19.9345
  40   2.0000      -0.713082       -19.4040
  41   2.0000      -0.677398       -18.4329
  42   2.0000      -0.663601       -18.0575
  43   2.0000      -0.642727       -17.4895
  44   2.0000      -0.635955       -17.3052
  45   2.0000      -0.602774       -16.4023
  46   2.0000      -0.568808       -15.4781
  47   2.0000      -0.522795       -14.2260
  48   2.0000      -0.511809       -13.9270
  49   2.0000      -0.491921       -13.3859
  50   2.0000      -0.456156       -12.4126
  51   2.0000      -0.455109       -12.3842
  52   2.0000      -0.426728       -11.6119
  53   2.0000      -0.410048       -11.1580
  54   2.0000      -0.402888       -10.9631
  55   2.0000      -0.397185       -10.8080
  56   2.0000      -0.379026       -10.3138
  57   2.0000      -0.370853       -10.0914
  58   2.0000      -0.353074        -9.6076
  59   2.0000      -0.338342        -9.2068
  60   2.0000      -0.335820        -9.1381
  61   2.0000      -0.324940        -8.8421
  62   2.0000      -0.311692        -8.4816
  63   2.0000      -0.298226        -8.1151
  64   2.0000      -0.284663        -7.7461
  65   2.0000      -0.261116        -7.1053
  66   2.0000      -0.252561        -6.8725
  67   2.0000      -0.239853        -6.5267
  68   2.0000      -0.235227        -6.4008
  69   2.0000      -0.226238        -6.1562
  70   2.0000      -0.223858        -6.0915
  71   2.0000      -0.217856        -5.9282
  72   2.0000      -0.211980        -5.7683
  73   2.0000      -0.204537        -5.5657
  74   2.0000      -0.177292        -4.8244
  75   2.0000      -0.172168        -4.6849
  76   2.0000      -0.167239        -4.5508
  77   2.0000      -0.155426        -4.2294
  78   2.0000      -0.150071        -4.0836
  79   2.0000      -0.139438        -3.7943
  80   2.0000      -0.137911        -3.7527
  81   2.0000      -0.115975        -3.1558
  82   0.0000       0.048781         1.3274
  83   0.0000       0.067951         1.8490
  84   0.0000       0.071736         1.9520
  85   0.0000       0.111042         3.0216
  86   0.0000       0.137937         3.7535

MULLIKEN ATOMIC CHARGES
-----------------------
   0 Pd:    0.201867
   1 Cl:   -0.323333
   2 Cl:   -0.356428
   3 Cl:   -0.419976
   4 N :   -0.562427
   5 C :    0.049715
   6 C :   -0.330568
   7 C :   -0.155686
   8 C :    0.384619
   9 C :    0.046825
  10 H :    0.210186
  11 H :    0.272420
  12 H :    0.219189
  13 C :   -0.037117
  14 C :   -0.305937
  15 C :   -0.266311
  16 C :    0.108325
  17 H :    0.192239
  18 H :    0.195192
  19 C :   -0.173341
  20 C :   -0.319756
  21 C :   -0.321918
  22 C :   -0.191638
  23 H :    0.189525
  24 H :    0.189805
  25 H :    0.287037
  26 H :    0.217492
Sum of atomic charges:   -1.0000000

LOEWDIN ATOMIC CHARGES
----------------------
   0 Pd:   -0.817825
   1 Cl:   -0.053979
   2 Cl:   -0.230492
   3 Cl:   -0.169611
   4 N :    0.036018
   5 C :    0.009407
   6 C :   -0.171599
   7 C :   -0.086841
   8 C :    0.092303
   9 C :   -0.054340
  10 H :    0.134636
  11 H :    0.161945
  12 H :    0.139805
  13 C :   -0.029630
  14 C :   -0.145785
  15 C :   -0.118570
  16 C :   -0.035078
  17 H :    0.128621
  18 H :    0.130619
  19 C :   -0.121065
  20 C :   -0.157618
  21 C :   -0.150007
  22 C :   -0.134527
  23 H :    0.123585
  24 H :    0.124194
  25 H :    0.262597
  26 H :    0.133236

  Mayer bond orders larger than 0.100000
B(  0-Pd,  1-Cl) :   0.9508 B(  0-Pd,  2-Cl) :   0.1049 B(  0-Pd,  3-Cl) :   0.7949
B(  0-Pd,  4-N ) :   0.3871 B(  0-Pd, 19-C ) :   0.4037 B(  2-Cl, 25-H ) :   0.7405
B(  4-N ,  5-C ) :   1.4706 B(  4-N ,  8-C ) :   1.1601 B(  5-C ,  6-C ) :   1.3267
B(  5-C , 11-H ) :   0.8953 B(  6-C ,  7-C ) :   1.4512 B(  6-C , 12-H ) :   0.9197
B(  7-C ,  9-C ) :   1.2859 B(  7-C , 10-H ) :   0.9285 B(  8-C ,  9-C ) :   1.2180
B(  8-C , 13-C ) :   1.1283 B(  9-C , 14-C ) :   1.1638 B( 13-C , 16-C ) :   1.2697
B( 13-C , 19-C ) :   1.2937 B( 14-C , 15-C ) :   1.6432 B( 14-C , 17-H ) :   0.9298
B( 15-C , 16-C ) :   1.1539 B( 15-C , 18-H ) :   0.9280 B( 16-C , 20-C ) :   1.2827
B( 19-C , 21-C ) :   1.4787 B( 19-C , 25-H ) :   0.1123 B( 20-C , 22-C ) :   1.4990
B( 20-C , 23-H ) :   0.9285 B( 21-C , 22-C ) :   1.3453 B( 21-C , 26-H ) :   0.9162
B( 22-C , 24-H ) :   0.9238

Dispersion correction           -0.024178497
FINAL SINGLE POINT ENERGY     -2061.434398013350
Dispersion correction            ... done

DIPOLE MOMENT
-------------
                                X             Y             Z
Electronic contribution:    -80.57132     -61.60919      24.87053
Nuclear contribution   :     83.78295      64.58908     -24.30862
                        -----------------------------------------
Total Dipole Moment    :      3.21163       2.97989       0.56191
                        -----------------------------------------
Magnitude (a.u.)       :      4.41702
Magnitude (Debye)      :     11.22717

Rotational constants in cm-1:     0.011616     0.007516     0.005708
Rotational constants in MHz :   348.243978   225.314662   171.109740

                             ****ORCA TERMINATED NORMALLY****
TOTAL RUN TIME: 0 days 0 hours 9 minutes 38 seconds 380 msec
