                         Program Version 5.0.3 -  RELEASE  -
|  1> ! EnGrad PBEh-3c
|  2> %output
|  3> xyzfile=True
|  4> end
|  5> %scf
|  6> maxiter 250
|  7> end
|  8> %output
|  9> Print[P_Hirshfeld] = 1
| 10> end
| 11> % maxcore
| 12> 4000
| 13> *xyz -1 1
| 14> Pd  -2.05661440  -1.64059261   0.52861208
| 15> Cl  -3.49244574  -3.26781888  -0.18002227
| 16> Cl  -0.60350430  -4.28846445   1.08702909
| 17> Cl  -3.97745252  -0.25684154   0.80961835
| 18> N   -0.96461509  -0.11626424   1.40799054
| 19> C   -1.29119913   0.43530643   2.57582309
| 20> C   -0.75733228   1.66828062   3.00005796
| 21> C    0.07886399   2.34022565   2.16778030
| 22> C   -0.06748948   0.47181317   0.61418348
| 23> C    0.44451595   1.74836362   0.95155491
| 24> H    0.48737871   3.31423460   2.43626254
| 25> H   -1.98189211  -0.10915421   3.21870874
| 26> H   -1.07340106   2.08388982   3.95289798
| 27> C    0.33477773  -0.24145002  -0.57944604
| 28> C    1.33731637   2.42097769   0.04043669
| 29> C    1.67269916   1.84413974  -1.10444555
| 30> C    1.19558713   0.50983555  -1.44937410
| 31> H    1.73158092   3.41051689   0.32387737
| 32> H    2.35705134   2.35346058  -1.80699599
| 33> C   -0.08961287  -1.55558463  -0.85677125
| 34> C    1.64828259  -0.06859404  -2.65112271
| 35> C    0.33330598  -2.04179187  -2.09624180
| 36> C    1.20569429  -1.30719621  -2.96940980
| 37> H    2.34223477   0.49222140  -3.31378689
| 38> H    1.58290240  -1.79397374  -3.88830140
| 39> H   -0.41286280  -3.40320689   0.24734431
| 40> H    0.00674712  -3.00382620  -2.45927869
| 41> *
| 42>
| 43>                          ****END OF INPUT****

CARTESIAN COORDINATES (ANGSTROEM)
---------------------------------
  Pd    -2.056614   -1.640593    0.528612
  Cl    -3.492446   -3.267819   -0.180022
  Cl    -0.603504   -4.288464    1.087029
  Cl    -3.977453   -0.256842    0.809618
  N     -0.964615   -0.116264    1.407991
  C     -1.291199    0.435306    2.575823
  C     -0.757332    1.668281    3.000058
  C      0.078864    2.340226    2.167780
  C     -0.067489    0.471813    0.614183
  C      0.444516    1.748364    0.951555
  H      0.487379    3.314235    2.436263
  H     -1.981892   -0.109154    3.218709
  H     -1.073401    2.083890    3.952898
  C      0.334778   -0.241450   -0.579446
  C      1.337316    2.420978    0.040437
  C      1.672699    1.844140   -1.104446
  C      1.195587    0.509836   -1.449374
  H      1.731581    3.410517    0.323877
  H      2.357051    2.353461   -1.806996
  C     -0.089613   -1.555585   -0.856771
  C      1.648283   -0.068594   -2.651123
  C      0.333306   -2.041792   -2.096242
  C      1.205694   -1.307196   -2.969410
  H      2.342235    0.492221   -3.313787
  H      1.582902   -1.793974   -3.888301
  H     -0.412863   -3.403207    0.247344
  H      0.006747   -3.003826   -2.459279

 Total Charge           Charge          ....   -1
 Multiplicity           Mult            ....    1
 Number of Electrons    NEL             ....  164
 Basis Dimension        Dim             ....  313

ORBITAL ENERGIES
----------------

  NO   OCC          E(Eh)            E(eV)
   0   2.0000    -102.142186     -2779.4302
   1   2.0000    -102.075708     -2777.6212
   2   2.0000    -102.074744     -2777.5950
   3   2.0000     -14.592597      -397.0847
   4   2.0000     -10.408465      -283.2287
   5   2.0000     -10.405281      -283.1421
   6   2.0000     -10.387893      -282.6689
   7   2.0000     -10.381790      -282.5029
   8   2.0000     -10.375303      -282.3264
   9   2.0000     -10.369679      -282.1733
  10   2.0000     -10.368210      -282.1333
  11   2.0000     -10.365705      -282.0652
  12   2.0000     -10.355583      -281.7897
  13   2.0000     -10.350430      -281.6495
  14   2.0000     -10.349027      -281.6113
  15   2.0000     -10.336594      -281.2730
  16   2.0000     -10.326452      -280.9970
  17   2.0000      -9.613239      -261.5895
  18   2.0000      -9.539354      -259.5790
  19   2.0000      -9.539096      -259.5720
  20   2.0000      -7.299915      -198.6408
  21   2.0000      -7.293059      -198.4542
  22   2.0000      -7.292645      -198.4430
  23   2.0000      -7.225554      -196.6173
  24   2.0000      -7.224958      -196.6011
  25   2.0000      -7.220241      -196.4728
  26   2.0000      -7.220204      -196.4717
  27   2.0000      -7.219928      -196.4642
  28   2.0000      -7.219822      -196.4614
  29   2.0000      -3.510635       -95.5292
  30   2.0000      -2.162374       -58.8412
  31   2.0000      -2.147850       -58.4460
  32   2.0000      -2.122530       -57.7570
  33   2.0000      -0.986832       -26.8531
  34   2.0000      -0.872578       -23.7440
  35   2.0000      -0.841198       -22.8902
  36   2.0000      -0.807938       -21.9851
  37   2.0000      -0.786027       -21.3889
  38   2.0000      -0.770955       -20.9788
  39   2.0000      -0.729914       -19.8620
  40   2.0000      -0.712584       -19.3904
  41   2.0000      -0.670896       -18.2560
  42   2.0000      -0.658827       -17.9276
  43   2.0000      -0.640407       -17.4263
  44   2.0000      -0.633268       -17.2321
  45   2.0000      -0.600672       -16.3451
  46   2.0000      -0.561262       -15.2727
  47   2.0000      -0.521153       -14.1813
  48   2.0000      -0.508776       -13.8445
  49   2.0000      -0.488097       -13.2818
  50   2.0000      -0.452435       -12.3114
  51   2.0000      -0.450303       -12.2534
  52   2.0000      -0.423944       -11.5361
  53   2.0000      -0.410007       -11.1568
  54   2.0000      -0.401750       -10.9322
  55   2.0000      -0.393360       -10.7039
  56   2.0000      -0.385818       -10.4986
  57   2.0000      -0.378681       -10.3044
  58   2.0000      -0.366891        -9.9836
  59   2.0000      -0.338276        -9.2050
  60   2.0000      -0.333995        -9.0885
  61   2.0000      -0.327402        -8.9091
  62   2.0000      -0.310870        -8.4592
  63   2.0000      -0.298604        -8.1254
  64   2.0000      -0.285867        -7.7788
  65   2.0000      -0.261577        -7.1179
  66   2.0000      -0.252600        -6.8736
  67   2.0000      -0.244770        -6.6605
  68   2.0000      -0.238537        -6.4909
  69   2.0000      -0.232422        -6.3245
  70   2.0000      -0.223292        -6.0761
  71   2.0000      -0.218728        -5.9519
  72   2.0000      -0.206193        -5.6108
  73   2.0000      -0.204266        -5.5584
  74   2.0000      -0.175726        -4.7817
  75   2.0000      -0.167035        -4.5452
  76   2.0000      -0.165477        -4.5028
  77   2.0000      -0.152700        -4.1552
  78   2.0000      -0.146630        -3.9900
  79   2.0000      -0.134555        -3.6614
  80   2.0000      -0.134164        -3.6508
  81   2.0000      -0.110392        -3.0039
  82   0.0000       0.052654         1.4328
  83   0.0000       0.075128         2.0443
  84   0.0000       0.076507         2.0819
  85   0.0000       0.110540         3.0079
  86   0.0000       0.151778         4.1301

MULLIKEN ATOMIC CHARGES
-----------------------
   0 Pd:    0.168410
   1 Cl:   -0.347346
   2 Cl:   -0.337460
   3 Cl:   -0.423005
   4 N :   -0.568109
   5 C :    0.046118
   6 C :   -0.336400
   7 C :   -0.143012
   8 C :    0.399859
   9 C :    0.029531
  10 H :    0.209071
  11 H :    0.273956
  12 H :    0.216660
  13 C :    0.000092
  14 C :   -0.297677
  15 C :   -0.260358
  16 C :    0.089506
  17 H :    0.188427
  18 H :    0.190559
  19 C :   -0.184799
  20 C :   -0.306649
  21 C :   -0.324272
  22 C :   -0.202563
  23 H :    0.183099
  24 H :    0.183582
  25 H :    0.335495
  26 H :    0.217286
Sum of atomic charges:   -1.0000000

LOEWDIN ATOMIC CHARGES
----------------------
   0 Pd:   -0.838522
   1 Cl:   -0.086755
   2 Cl:   -0.136847
   3 Cl:   -0.171601
   4 N :    0.041242
   5 C :    0.012316
   6 C :   -0.170609
   7 C :   -0.091324
   8 C :    0.089761
   9 C :   -0.050989
  10 H :    0.134813
  11 H :    0.163685
  12 H :    0.138878
  13 C :   -0.033629
  14 C :   -0.146102
  15 C :   -0.118992
  16 C :   -0.031229
  17 H :    0.127377
  18 H :    0.129175
  19 C :   -0.121551
  20 C :   -0.157660
  21 C :   -0.141067
  22 C :   -0.135321
  23 H :    0.122018
  24 H :    0.121670
  25 H :    0.217534
  26 H :    0.133727

  Mayer bond orders larger than 0.100000
B(  0-Pd,  1-Cl) :   0.9304 B(  0-Pd,  2-Cl) :   0.1067 B(  0-Pd,  3-Cl) :   0.7820
B(  0-Pd,  4-N ) :   0.3993 B(  0-Pd, 19-C ) :   0.4699 B(  2-Cl, 25-H ) :   0.7697
B(  4-N ,  5-C ) :   1.4565 B(  4-N ,  8-C ) :   1.1618 B(  5-C ,  6-C ) :   1.3279
B(  5-C , 11-H ) :   0.8944 B(  6-C ,  7-C ) :   1.4440 B(  6-C , 12-H ) :   0.9199
B(  7-C ,  9-C ) :   1.2920 B(  7-C , 10-H ) :   0.9284 B(  8-C ,  9-C ) :   1.2127
B(  8-C , 13-C ) :   1.1101 B(  9-C , 14-C ) :   1.1535 B( 13-C , 16-C ) :   1.2784
B( 13-C , 19-C ) :   1.2718 B( 14-C , 15-C ) :   1.6534 B( 14-C , 17-H ) :   0.9301
B( 15-C , 16-C ) :   1.1396 B( 15-C , 18-H ) :   0.9284 B( 16-C , 20-C ) :   1.2862
B( 19-C , 21-C ) :   1.4843 B( 20-C , 22-C ) :   1.4962 B( 20-C , 23-H ) :   0.9310
B( 21-C , 22-C ) :   1.3379 B( 21-C , 26-H ) :   0.9155 B( 22-C , 24-H ) :   0.9253

Dispersion correction           -0.024365900
FINAL SINGLE POINT ENERGY     -2061.444561513778
Dispersion correction            ... done

DIPOLE MOMENT
-------------
                                X             Y             Z
Electronic contribution:    -79.11890     -60.59967      22.40050
Nuclear contribution   :     82.43518      63.27564     -21.66006
                        -----------------------------------------
Total Dipole Moment    :      3.31628       2.67596       0.74044
                        -----------------------------------------
Magnitude (a.u.)       :      4.32513
Magnitude (Debye)      :     10.99360

Rotational constants in cm-1:     0.011845     0.007766     0.005835
Rotational constants in MHz :   355.101490   232.826811   174.920943

                             ****ORCA TERMINATED NORMALLY****
TOTAL RUN TIME: 0 days 0 hours 10 minutes 53 seconds 937 msec
