                         Program Version 5.0.3 -  RELEASE  -
|  1> ! EnGrad PBEh-3c
|  2> %output
|  3> xyzfile=True
|  4> end
|  5> %scf
|  6> maxiter 250
|  7> end
|  8> %output
|  9> Print[P_Hirshfeld] = 1
| 10> end
| 11> % maxcore
| 12> 4000
| 13> *xyz -1 1
| 14> Pd  -2.07686666  -1.66528403   0.57089863
| 15> Cl  -3.47446320  -3.27522013  -0.18364830
| 16> Cl  -0.62267257  -4.40462347   1.17203854
| 17> Cl  -4.00645625  -0.27695228   0.82494163
| 18> N   -0.97528063  -0.10756284   1.41700826
| 19> C   -1.28638611   0.44950428   2.57704551
| 20> C   -0.76624269   1.67945438   3.00232318
| 21> C    0.08322084   2.35371272   2.16378912
| 22> C   -0.06963822   0.48858232   0.61782247
| 23> C    0.44817935   1.76335411   0.94867953
| 24> H    0.48971078   3.31793225   2.44023772
| 25> H   -1.97165236  -0.09803441   3.21257657
| 26> H   -1.07714451   2.09746263   3.94519468
| 27> C    0.33701456  -0.21395997  -0.59074579
| 28> C    1.34548926   2.42958703   0.04889612
| 29> C    1.68759909   1.84486727  -1.11243182
| 30> C    1.20389443   0.53182882  -1.45280291
| 31> H    1.73980963   3.40529283   0.32194268
| 32> H    2.36495207   2.35304202  -1.79592585
| 33> C   -0.10508521  -1.55323169  -0.87234749
| 34> C    1.66702054  -0.05724192  -2.65403320
| 35> C    0.33283627  -2.02215293  -2.10891886
| 36> C    1.20662462  -1.31747655  -2.97707492
| 37> H    2.33705890   0.48209190  -3.30733653
| 38> H    1.58722357  -1.78875975  -3.88256569
| 39> H   -0.39094126  -3.43461789   0.14056159
| 40> H   -0.01517223  -2.98325317  -2.46164326
| 41> *
| 42>
| 43>                          ****END OF INPUT****

CARTESIAN COORDINATES (ANGSTROEM)
---------------------------------
  Pd    -2.076867   -1.665284    0.570899
  Cl    -3.474463   -3.275220   -0.183648
  Cl    -0.622673   -4.404623    1.172039
  Cl    -4.006456   -0.276952    0.824942
  N     -0.975281   -0.107563    1.417008
  C     -1.286386    0.449504    2.577046
  C     -0.766243    1.679454    3.002323
  C      0.083221    2.353713    2.163789
  C     -0.069638    0.488582    0.617822
  C      0.448179    1.763354    0.948680
  H      0.489711    3.317932    2.440238
  H     -1.971652   -0.098034    3.212577
  H     -1.077145    2.097463    3.945195
  C      0.337015   -0.213960   -0.590746
  C      1.345489    2.429587    0.048896
  C      1.687599    1.844867   -1.112432
  C      1.203894    0.531829   -1.452803
  H      1.739810    3.405293    0.321943
  H      2.364952    2.353042   -1.795926
  C     -0.105085   -1.553232   -0.872347
  C      1.667021   -0.057242   -2.654033
  C      0.332836   -2.022153   -2.108919
  C      1.206625   -1.317477   -2.977075
  H      2.337059    0.482092   -3.307337
  H      1.587224   -1.788760   -3.882566
  H     -0.390941   -3.434618    0.140562
  H     -0.015172   -2.983253   -2.461643

 Total Charge           Charge          ....   -1
 Multiplicity           Mult            ....    1
 Number of Electrons    NEL             ....  164
 Basis Dimension        Dim             ....  313

ORBITAL ENERGIES
----------------

  NO   OCC          E(Eh)            E(eV)
   0   2.0000    -102.141729     -2779.4178
   1   2.0000    -102.079340     -2777.7201
   2   2.0000    -102.079203     -2777.7163
   3   2.0000     -14.593655      -397.1135
   4   2.0000     -10.408103      -283.2189
   5   2.0000     -10.406997      -283.1888
   6   2.0000     -10.389542      -282.7138
   7   2.0000     -10.382707      -282.5278
   8   2.0000     -10.375766      -282.3389
   9   2.0000     -10.370416      -282.1934
  10   2.0000     -10.369424      -282.1664
  11   2.0000     -10.367164      -282.1049
  12   2.0000     -10.360481      -281.9230
  13   2.0000     -10.351999      -281.6922
  14   2.0000     -10.350382      -281.6482
  15   2.0000     -10.336248      -281.2636
  16   2.0000     -10.334007      -281.2026
  17   2.0000      -9.607543      -261.4345
  18   2.0000      -9.544205      -259.7110
  19   2.0000      -9.542465      -259.6637
  20   2.0000      -7.294590      -198.4959
  21   2.0000      -7.287682      -198.3079
  22   2.0000      -7.287266      -198.2966
  23   2.0000      -7.230518      -196.7524
  24   2.0000      -7.228409      -196.6950
  25   2.0000      -7.224943      -196.6007
  26   2.0000      -7.224566      -196.5904
  27   2.0000      -7.223565      -196.5632
  28   2.0000      -7.223272      -196.5552
  29   2.0000      -3.513696       -95.6125
  30   2.0000      -2.166127       -58.9433
  31   2.0000      -2.150235       -58.5109
  32   2.0000      -2.125638       -57.8416
  33   2.0000      -0.986413       -26.8417
  34   2.0000      -0.873926       -23.7807
  35   2.0000      -0.840658       -22.8755
  36   2.0000      -0.806872       -21.9561
  37   2.0000      -0.772134       -21.0108
  38   2.0000      -0.748407       -20.3652
  39   2.0000      -0.731569       -19.9070
  40   2.0000      -0.712864       -19.3980
  41   2.0000      -0.675402       -18.3786
  42   2.0000      -0.662122       -18.0173
  43   2.0000      -0.641810       -17.4645
  44   2.0000      -0.635089       -17.2817
  45   2.0000      -0.601983       -16.3808
  46   2.0000      -0.566346       -15.4111
  47   2.0000      -0.522113       -14.2074
  48   2.0000      -0.510768       -13.8987
  49   2.0000      -0.490788       -13.3550
  50   2.0000      -0.454931       -12.3793
  51   2.0000      -0.453478       -12.3398
  52   2.0000      -0.425840       -11.5877
  53   2.0000      -0.409903       -11.1540
  54   2.0000      -0.402196       -10.9443
  55   2.0000      -0.395611       -10.7651
  56   2.0000      -0.378397       -10.2967
  57   2.0000      -0.371221       -10.1014
  58   2.0000      -0.356270        -9.6946
  59   2.0000      -0.341188        -9.2842
  60   2.0000      -0.335320        -9.1245
  61   2.0000      -0.328048        -8.9267
  62   2.0000      -0.311286        -8.4705
  63   2.0000      -0.298170        -8.1136
  64   2.0000      -0.285058        -7.7568
  65   2.0000      -0.261029        -7.1029
  66   2.0000      -0.252092        -6.8598
  67   2.0000      -0.240188        -6.5359
  68   2.0000      -0.236572        -6.4375
  69   2.0000      -0.226743        -6.1700
  70   2.0000      -0.223695        -6.0871
  71   2.0000      -0.218162        -5.9365
  72   2.0000      -0.212106        -5.7717
  73   2.0000      -0.205601        -5.5947
  74   2.0000      -0.176678        -4.8076
  75   2.0000      -0.170561        -4.6412
  76   2.0000      -0.166699        -4.5361
  77   2.0000      -0.154516        -4.2046
  78   2.0000      -0.148984        -4.0541
  79   2.0000      -0.137876        -3.7518
  80   2.0000      -0.136875        -3.7246
  81   2.0000      -0.114176        -3.1069
  82   0.0000       0.050083         1.3628
  83   0.0000       0.070296         1.9129
  84   0.0000       0.073312         1.9949
  85   0.0000       0.111017         3.0209
  86   0.0000       0.143086         3.8936

MULLIKEN ATOMIC CHARGES
-----------------------
   0 Pd:    0.193029
   1 Cl:   -0.330494
   2 Cl:   -0.349964
   3 Cl:   -0.421100
   4 N :   -0.564273
   5 C :    0.048711
   6 C :   -0.332419
   7 C :   -0.151917
   8 C :    0.389300
   9 C :    0.041752
  10 H :    0.209823
  11 H :    0.272835
  12 H :    0.218438
  13 C :   -0.026433
  14 C :   -0.303703
  15 C :   -0.264679
  16 C :    0.103005
  17 H :    0.191122
  18 H :    0.193855
  19 C :   -0.177260
  20 C :   -0.316639
  21 C :   -0.323120
  22 C :   -0.194629
  23 H :    0.187817
  24 H :    0.187924
  25 H :    0.301686
  26 H :    0.217331
Sum of atomic charges:   -1.0000000

LOEWDIN ATOMIC CHARGES
----------------------
   0 Pd:   -0.824491
   1 Cl:   -0.063673
   2 Cl:   -0.204811
   3 Cl:   -0.170422
   4 N :    0.037624
   5 C :    0.010291
   6 C :   -0.171376
   7 C :   -0.088200
   8 C :    0.091586
   9 C :   -0.053387
  10 H :    0.134668
  11 H :    0.162420
  12 H :    0.139528
  13 C :   -0.030857
  14 C :   -0.145954
  15 C :   -0.118729
  16 C :   -0.034027
  17 H :    0.128264
  18 H :    0.130201
  19 C :   -0.122219
  20 C :   -0.157826
  21 C :   -0.147528
  22 C :   -0.134814
  23 H :    0.123240
  24 H :    0.123432
  25 H :    0.253766
  26 H :    0.133293

  Mayer bond orders larger than 0.100000
B(  0-Pd,  1-Cl) :   0.9449 B(  0-Pd,  2-Cl) :   0.1037 B(  0-Pd,  3-Cl) :   0.7908
B(  0-Pd,  4-N ) :   0.3906 B(  0-Pd, 19-C ) :   0.4235 B(  2-Cl, 25-H ) :   0.7533
B(  4-N ,  5-C ) :   1.4666 B(  4-N ,  8-C ) :   1.1603 B(  5-C ,  6-C ) :   1.3271
B(  5-C , 11-H ) :   0.8951 B(  6-C ,  7-C ) :   1.4490 B(  6-C , 12-H ) :   0.9198
B(  7-C ,  9-C ) :   1.2878 B(  7-C , 10-H ) :   0.9285 B(  8-C ,  9-C ) :   1.2165
B(  8-C , 13-C ) :   1.1232 B(  9-C , 14-C ) :   1.1607 B( 13-C , 16-C ) :   1.2725
B( 13-C , 19-C ) :   1.2876 B( 14-C , 15-C ) :   1.6463 B( 14-C , 17-H ) :   0.9299
B( 15-C , 16-C ) :   1.1496 B( 15-C , 18-H ) :   0.9282 B( 16-C , 20-C ) :   1.2838
B( 19-C , 21-C ) :   1.4806 B( 20-C , 22-C ) :   1.4982 B( 20-C , 23-H ) :   0.9293
B( 21-C , 22-C ) :   1.3434 B( 21-C , 26-H ) :   0.9160 B( 22-C , 24-H ) :   0.9243

Dispersion correction           -0.024236996
FINAL SINGLE POINT ENERGY     -2061.444348895195
Dispersion correction            ... done

DIPOLE MOMENT
-------------
                                X             Y             Z
Electronic contribution:    -80.14496     -61.32954      24.15365
Nuclear contribution   :     83.38792      64.20411     -23.53233
                        -----------------------------------------
Total Dipole Moment    :      3.24296       2.87457       0.62133
                        -----------------------------------------
Magnitude (a.u.)       :      4.37789
Magnitude (Debye)      :     11.12772

Rotational constants in cm-1:     0.011683     0.007589     0.005745
Rotational constants in MHz :   350.241763   227.501873   172.231156

                             ****ORCA TERMINATED NORMALLY****
TOTAL RUN TIME: 0 days 0 hours 9 minutes 39 seconds 728 msec
