                         Program Version 5.0.3 -  RELEASE  -
|  1> ! EnGrad PBEh-3c
|  2> %output
|  3> xyzfile=True
|  4> end
|  5> %scf
|  6> maxiter 250
|  7> end
|  8> %output
|  9> Print[P_Hirshfeld] = 1
| 10> end
| 11> % maxcore
| 12> 4000
| 13> *xyz -1 1
| 14> Pd  -2.03910322  -1.59339245   0.48326798
| 15> Cl  -3.51252523  -3.26401699  -0.18463363
| 16> Cl  -0.57636501  -4.15838330   1.00237979
| 17> Cl  -3.93411435  -0.24064000   0.79772952
| 18> N   -0.96103723  -0.13118536   1.41104407
| 19> C   -1.29324184   0.42007025   2.57208154
| 20> C   -0.76241577   1.64344622   3.00483809
| 21> C    0.08225267   2.32687183   2.16365350
| 22> C   -0.05996027   0.45443133   0.60403155
| 23> C    0.44706900   1.73434737   0.94953660
| 24> H    0.48263520   3.30680745   2.43020563
| 25> H   -1.99299434  -0.11973819   3.21968389
| 26> H   -1.06764027   2.06622666   3.95938674
| 27> C    0.34949117  -0.25466140  -0.56859431
| 28> C    1.32206444   2.42258822   0.05413721
| 29> C    1.65990614   1.82322488  -1.11861156
| 30> C    1.18982290   0.48669057  -1.44109634
| 31> H    1.71775296   3.40737567   0.32353546
| 32> H    2.33942614   2.34638997  -1.81297452
| 33> C   -0.07960407  -1.56625036  -0.83754632
| 34> C    1.63348999  -0.06113967  -2.64773804
| 35> C    0.34406983  -2.05366620  -2.08474006
| 36> C    1.19580138  -1.32874420  -2.96163300
| 37> H    2.33659898   0.49455485  -3.30925590
| 38> H    1.56930196  -1.79452487  -3.88550580
| 39> H   -0.43218055  -3.33359810   0.34432863
| 40> H    0.03021251  -3.03428869  -2.45669496
| 41> *
| 42>
| 43>                          ****END OF INPUT****

CARTESIAN COORDINATES (ANGSTROEM)
---------------------------------
  Pd    -2.039103   -1.593392    0.483268
  Cl    -3.512525   -3.264017   -0.184634
  Cl    -0.576365   -4.158383    1.002380
  Cl    -3.934114   -0.240640    0.797730
  N     -0.961037   -0.131185    1.411044
  C     -1.293242    0.420070    2.572082
  C     -0.762416    1.643446    3.004838
  C      0.082253    2.326872    2.163654
  C     -0.059960    0.454431    0.604032
  C      0.447069    1.734347    0.949537
  H      0.482635    3.306807    2.430206
  H     -1.992994   -0.119738    3.219684
  H     -1.067640    2.066227    3.959387
  C      0.349491   -0.254661   -0.568594
  C      1.322064    2.422588    0.054137
  C      1.659906    1.823225   -1.118612
  C      1.189823    0.486691   -1.441096
  H      1.717753    3.407376    0.323535
  H      2.339426    2.346390   -1.812975
  C     -0.079604   -1.566250   -0.837546
  C      1.633490   -0.061140   -2.647738
  C      0.344070   -2.053666   -2.084740
  C      1.195801   -1.328744   -2.961633
  H      2.336599    0.494555   -3.309256
  H      1.569302   -1.794525   -3.885506
  H     -0.432181   -3.333598    0.344329
  H      0.030213   -3.034289   -2.456695

 Total Charge           Charge          ....   -1
 Multiplicity           Mult            ....    1
 Number of Electrons    NEL             ....  164
 Basis Dimension        Dim             ....  313

ORBITAL ENERGIES
----------------

  NO   OCC          E(Eh)            E(eV)
   0   2.0000    -102.133645     -2779.1978
   1   2.0000    -102.076264     -2777.6364
   2   2.0000    -102.068882     -2777.4355
   3   2.0000     -14.592552      -397.0835
   4   2.0000     -10.407285      -283.1966
   5   2.0000     -10.404860      -283.1306
   6   2.0000     -10.388201      -282.6773
   7   2.0000     -10.380110      -282.4572
   8   2.0000     -10.375026      -282.3188
   9   2.0000     -10.371432      -282.2210
  10   2.0000     -10.368942      -282.1533
  11   2.0000     -10.363320      -282.0003
  12   2.0000     -10.351920      -281.6901
  13   2.0000     -10.350691      -281.6566
  14   2.0000     -10.349650      -281.6283
  15   2.0000     -10.337155      -281.2883
  16   2.0000     -10.325158      -280.9618
  17   2.0000      -9.612772      -261.5768
  18   2.0000      -9.539987      -259.5963
  19   2.0000      -9.533053      -259.4076
  20   2.0000      -7.299679      -198.6344
  21   2.0000      -7.291580      -198.4140
  22   2.0000      -7.291167      -198.4027
  23   2.0000      -7.225842      -196.6252
  24   2.0000      -7.221119      -196.4966
  25   2.0000      -7.220758      -196.4868
  26   2.0000      -7.219115      -196.4421
  27   2.0000      -7.214047      -196.3042
  28   2.0000      -7.213662      -196.2937
  29   2.0000      -3.510133       -95.5156
  30   2.0000      -2.160705       -58.7958
  31   2.0000      -2.148759       -58.4707
  32   2.0000      -2.121849       -57.7384
  33   2.0000      -0.985623       -26.8202
  34   2.0000      -0.873690       -23.7743
  35   2.0000      -0.840182       -22.8625
  36   2.0000      -0.826924       -22.5017
  37   2.0000      -0.805178       -21.9100
  38   2.0000      -0.769690       -20.9443
  39   2.0000      -0.731645       -19.9091
  40   2.0000      -0.709963       -19.3191
  41   2.0000      -0.668640       -18.1946
  42   2.0000      -0.655976       -17.8500
  43   2.0000      -0.638611       -17.3775
  44   2.0000      -0.633661       -17.2428
  45   2.0000      -0.599723       -16.3193
  46   2.0000      -0.563500       -15.3336
  47   2.0000      -0.520234       -14.1563
  48   2.0000      -0.508315       -13.8319
  49   2.0000      -0.487371       -13.2620
  50   2.0000      -0.452219       -12.3055
  51   2.0000      -0.449329       -12.2269
  52   2.0000      -0.421141       -11.4598
  53   2.0000      -0.412288       -11.2189
  54   2.0000      -0.408928       -11.1275
  55   2.0000      -0.402076       -10.9411
  56   2.0000      -0.392505       -10.6806
  57   2.0000      -0.377565       -10.2741
  58   2.0000      -0.364210        -9.9107
  59   2.0000      -0.341032        -9.2799
  60   2.0000      -0.335957        -9.1418
  61   2.0000      -0.328674        -8.9437
  62   2.0000      -0.309070        -8.4102
  63   2.0000      -0.297635        -8.0991
  64   2.0000      -0.284467        -7.7407
  65   2.0000      -0.259898        -7.0722
  66   2.0000      -0.254125        -6.9151
  67   2.0000      -0.248599        -6.7647
  68   2.0000      -0.240890        -6.5550
  69   2.0000      -0.238458        -6.4888
  70   2.0000      -0.224453        -6.1077
  71   2.0000      -0.218653        -5.9499
  72   2.0000      -0.204553        -5.5662
  73   2.0000      -0.196140        -5.3372
  74   2.0000      -0.175525        -4.7763
  75   2.0000      -0.166556        -4.5322
  76   2.0000      -0.163981        -4.4621
  77   2.0000      -0.150455        -4.0941
  78   2.0000      -0.145149        -3.9497
  79   2.0000      -0.132418        -3.6033
  80   2.0000      -0.131268        -3.5720
  81   2.0000      -0.110382        -3.0036
  82   0.0000       0.051537         1.4024
  83   0.0000       0.073964         2.0127
  84   0.0000       0.080615         2.1937
  85   0.0000       0.113147         3.0789
  86   0.0000       0.150878         4.1056

MULLIKEN ATOMIC CHARGES
-----------------------
   0 Pd:    0.153454
   1 Cl:   -0.370774
   2 Cl:   -0.329940
   3 Cl:   -0.411640
   4 N :   -0.576355
   5 C :    0.048233
   6 C :   -0.335767
   7 C :   -0.153540
   8 C :    0.403105
   9 C :    0.035483
  10 H :    0.209444
  11 H :    0.272839
  12 H :    0.216297
  13 C :    0.020987
  14 C :   -0.305736
  15 C :   -0.279945
  16 C :    0.110398
  17 H :    0.191059
  18 H :    0.190975
  19 C :   -0.185490
  20 C :   -0.322367
  21 C :   -0.323037
  22 C :   -0.200826
  23 H :    0.184465
  24 H :    0.185655
  25 H :    0.360042
  26 H :    0.212981
Sum of atomic charges:   -1.0000000

LOEWDIN ATOMIC CHARGES
----------------------
   0 Pd:   -0.847919
   1 Cl:   -0.122825
   2 Cl:   -0.070691
   3 Cl:   -0.151236
   4 N :    0.041696
   5 C :    0.009205
   6 C :   -0.171601
   7 C :   -0.090329
   8 C :    0.095304
   9 C :   -0.052608
  10 H :    0.134816
  11 H :    0.163882
  12 H :    0.138550
  13 C :   -0.038196
  14 C :   -0.148700
  15 C :   -0.116529
  16 C :   -0.031730
  17 H :    0.128183
  18 H :    0.128850
  19 C :   -0.112200
  20 C :   -0.157609
  21 C :   -0.138232
  22 C :   -0.134624
  23 H :    0.122977
  24 H :    0.121701
  25 H :    0.166015
  26 H :    0.133848

  Mayer bond orders larger than 0.100000
B(  0-Pd,  1-Cl) :   0.9046 B(  0-Pd,  2-Cl) :   0.1143 B(  0-Pd,  3-Cl) :   0.7940
B(  0-Pd,  4-N ) :   0.4161 B(  0-Pd, 19-C ) :   0.5012 B(  2-Cl, 25-H ) :   0.7619
B(  4-N ,  5-C ) :   1.4523 B(  4-N ,  8-C ) :   1.1427 B(  5-C ,  6-C ) :   1.3293
B(  5-C , 11-H ) :   0.8948 B(  6-C ,  7-C ) :   1.4417 B(  6-C , 12-H ) :   0.9200
B(  7-C ,  9-C ) :   1.2910 B(  7-C , 10-H ) :   0.9283 B(  8-C ,  9-C ) :   1.2059
B(  8-C , 13-C ) :   1.1239 B(  9-C , 14-C ) :   1.1614 B( 13-C , 16-C ) :   1.2606
B( 13-C , 19-C ) :   1.2479 B( 14-C , 15-C ) :   1.6453 B( 14-C , 17-H ) :   0.9301
B( 15-C , 16-C ) :   1.1420 B( 15-C , 18-H ) :   0.9293 B( 16-C , 20-C ) :   1.2927
B( 19-C , 21-C ) :   1.4673 B( 20-C , 22-C ) :   1.4753 B( 20-C , 23-H ) :   0.9318
B( 21-C , 22-C ) :   1.3547 B( 21-C , 26-H ) :   0.9168 B( 22-C , 24-H ) :   0.9250

Dispersion correction           -0.024453901
FINAL SINGLE POINT ENERGY     -2061.400454857675
Dispersion correction            ... done

DIPOLE MOMENT
-------------
                                X             Y             Z
Electronic contribution:    -78.32407     -58.55940      20.42353
Nuclear contribution   :     81.69582      61.19984     -19.63789
                        -----------------------------------------
Total Dipole Moment    :      3.37175       2.64045       0.78564
                        -----------------------------------------
Magnitude (a.u.)       :      4.35406
Magnitude (Debye)      :     11.06715

Rotational constants in cm-1:     0.012016     0.007974     0.005937
Rotational constants in MHz :   360.233803   239.058114   178.000108

                             ****ORCA TERMINATED NORMALLY****
TOTAL RUN TIME: 0 days 0 hours 10 minutes 9 seconds 104 msec
