                         Program Version 5.0.3 -  RELEASE  -
|  1> ! EnGrad PBEh-3c
|  2> %output
|  3> xyzfile=True
|  4> end
|  5> %scf
|  6> maxiter 250
|  7> end
|  8> %output
|  9> Print[P_Hirshfeld] = 1
| 10> end
| 11> % maxcore
| 12> 4000
| 13> *xyz -1 1
| 14> Pd  -2.06609907  -1.64478540   0.54591228
| 15> Cl  -3.48531593  -3.27202575  -0.18392925
| 16> Cl  -0.60946877  -4.33441237   1.12366330
| 17> Cl  -3.98582921  -0.26659847   0.81718257
| 18> N   -0.97121937  -0.11429839   1.41530768
| 19> C   -1.28834090   0.44111167   2.57563012
| 20> C   -0.76515151   1.66918728   3.00304026
| 21> C    0.08294478   2.34605951   2.16375045
| 22> C   -0.06687872   0.47884476   0.61389023
| 23> C    0.44786275   1.75508334   0.94892391
| 24> H    0.48769330   3.31476021   2.43737725
| 25> H   -1.97773765  -0.10422287   3.21460310
| 26> H   -1.07443454   2.08855624   3.94924130
| 27> C    0.34057205  -0.22556527  -0.58442968
| 28> C    1.33881008   2.42759144   0.05039052
| 29> C    1.67970293   1.83869632  -1.11419387
| 30> C    1.19988218   0.51895843  -1.44946499
| 31> H    1.73352056   3.40588671   0.32239683
| 32> H    2.35767379   2.35114531  -1.80078698
| 33> C   -0.09781970  -1.55694374  -0.86242454
| 34> C    1.65745989  -0.05835329  -2.65223825
| 35> C    0.33603932  -2.03113839  -2.10202469
| 36> C    1.20353856  -1.32068933  -2.97267192
| 37> H    2.33692776   0.48564549  -3.30788381
| 38> H    1.58211354  -1.79040357  -3.88340401
| 39> H   -0.40269992  -3.40581385   0.19866221
| 40> H   -0.00223156  -2.99780506  -2.46023234
| 41> *
| 42>
| 43>                          ****END OF INPUT****

CARTESIAN COORDINATES (ANGSTROEM)
---------------------------------
  Pd    -2.066099   -1.644785    0.545912
  Cl    -3.485316   -3.272026   -0.183929
  Cl    -0.609469   -4.334412    1.123663
  Cl    -3.985829   -0.266598    0.817183
  N     -0.971219   -0.114298    1.415308
  C     -1.288341    0.441112    2.575630
  C     -0.765152    1.669187    3.003040
  C      0.082945    2.346060    2.163750
  C     -0.066879    0.478845    0.613890
  C      0.447863    1.755083    0.948924
  H      0.487693    3.314760    2.437377
  H     -1.977738   -0.104223    3.214603
  H     -1.074435    2.088556    3.949241
  C      0.340572   -0.225565   -0.584430
  C      1.338810    2.427591    0.050391
  C      1.679703    1.838696   -1.114194
  C      1.199882    0.518958   -1.449465
  H      1.733521    3.405887    0.322397
  H      2.357674    2.351145   -1.800787
  C     -0.097820   -1.556944   -0.862425
  C      1.657460   -0.058353   -2.652238
  C      0.336039   -2.031138   -2.102025
  C      1.203539   -1.320689   -2.972672
  H      2.336928    0.485645   -3.307884
  H      1.582114   -1.790404   -3.883404
  H     -0.402700   -3.405814    0.198662
  H     -0.002232   -2.997805   -2.460232

 Total Charge           Charge          ....   -1
 Multiplicity           Mult            ....    1
 Number of Electrons    NEL             ....  164
 Basis Dimension        Dim             ....  313

ORBITAL ENERGIES
----------------

  NO   OCC          E(Eh)            E(eV)
   0   2.0000    -102.142389     -2779.4357
   1   2.0000    -102.078101     -2777.6864
   2   2.0000    -102.076314     -2777.6377
   3   2.0000     -14.593227      -397.1019
   4   2.0000     -10.406960      -283.1878
   5   2.0000     -10.406926      -283.1869
   6   2.0000     -10.389012      -282.6994
   7   2.0000     -10.381792      -282.5029
   8   2.0000     -10.375414      -282.3294
   9   2.0000     -10.370481      -282.1951
  10   2.0000     -10.369153      -282.1590
  11   2.0000     -10.365789      -282.0675
  12   2.0000     -10.357715      -281.8478
  13   2.0000     -10.351386      -281.6755
  14   2.0000     -10.349925      -281.6358
  15   2.0000     -10.336175      -281.2616
  16   2.0000     -10.330855      -281.1168
  17   2.0000      -9.610631      -261.5186
  18   2.0000      -9.541489      -259.6371
  19   2.0000      -9.540967      -259.6229
  20   2.0000      -7.297456      -198.5739
  21   2.0000      -7.290653      -198.3887
  22   2.0000      -7.290239      -198.3775
  23   2.0000      -7.227406      -196.6677
  24   2.0000      -7.227208      -196.6623
  25   2.0000      -7.222600      -196.5369
  26   2.0000      -7.222289      -196.5285
  27   2.0000      -7.221778      -196.5146
  28   2.0000      -7.221404      -196.5044
  29   2.0000      -3.512407       -95.5775
  30   2.0000      -2.164309       -58.8938
  31   2.0000      -2.149506       -58.4910
  32   2.0000      -2.124245       -57.8036
  33   2.0000      -0.986006       -26.8306
  34   2.0000      -0.873564       -23.7709
  35   2.0000      -0.840312       -22.8661
  36   2.0000      -0.806165       -21.9369
  37   2.0000      -0.771493       -20.9934
  38   2.0000      -0.766419       -20.8553
  39   2.0000      -0.731399       -19.9024
  40   2.0000      -0.711773       -19.3683
  41   2.0000      -0.672677       -18.3045
  42   2.0000      -0.660830       -17.9821
  43   2.0000      -0.640720       -17.4349
  44   2.0000      -0.634503       -17.2657
  45   2.0000      -0.601119       -16.3573
  46   2.0000      -0.565249       -15.3812
  47   2.0000      -0.521373       -14.1873
  48   2.0000      -0.509851       -13.8738
  49   2.0000      -0.489665       -13.3245
  50   2.0000      -0.453964       -12.3530
  51   2.0000      -0.452083       -12.3018
  52   2.0000      -0.424278       -11.5452
  53   2.0000      -0.409506       -11.1432
  54   2.0000      -0.401955       -10.9378
  55   2.0000      -0.395079       -10.7507
  56   2.0000      -0.378109       -10.2889
  57   2.0000      -0.375169       -10.2089
  58   2.0000      -0.364350        -9.9145
  59   2.0000      -0.342501        -9.3199
  60   2.0000      -0.335320        -9.1245
  61   2.0000      -0.328892        -8.9496
  62   2.0000      -0.310524        -8.4498
  63   2.0000      -0.297830        -8.1044
  64   2.0000      -0.284712        -7.7474
  65   2.0000      -0.260306        -7.0833
  66   2.0000      -0.251588        -6.8460
  67   2.0000      -0.242595        -6.6014
  68   2.0000      -0.237974        -6.4756
  69   2.0000      -0.229470        -6.2442
  70   2.0000      -0.223840        -6.0910
  71   2.0000      -0.219308        -5.9677
  72   2.0000      -0.208302        -5.6682
  73   2.0000      -0.205651        -5.5960
  74   2.0000      -0.176222        -4.7952
  75   2.0000      -0.169192        -4.6040
  76   2.0000      -0.165823        -4.5123
  77   2.0000      -0.153144        -4.1673
  78   2.0000      -0.147677        -4.0185
  79   2.0000      -0.136079        -3.7029
  80   2.0000      -0.135468        -3.6863
  81   2.0000      -0.112743        -3.0679
  82   0.0000       0.050678         1.3790
  83   0.0000       0.072617         1.9760
  84   0.0000       0.074657         2.0315
  85   0.0000       0.111859         3.0438
  86   0.0000       0.146280         3.9805

MULLIKEN ATOMIC CHARGES
-----------------------
   0 Pd:    0.182760
   1 Cl:   -0.342187
   2 Cl:   -0.344035
   3 Cl:   -0.418865
   4 N :   -0.568210
   5 C :    0.048808
   6 C :   -0.333707
   7 C :   -0.152108
   8 C :    0.393962
   9 C :    0.039818
  10 H :    0.209650
  11 H :    0.272809
  12 H :    0.217773
  13 C :   -0.012302
  14 C :   -0.304347
  15 C :   -0.269375
  16 C :    0.105634
  17 H :    0.191022
  18 H :    0.192956
  19 C :   -0.181399
  20 C :   -0.318943
  21 C :   -0.323848
  22 C :   -0.196213
  23 H :    0.186865
  24 H :    0.187069
  25 H :    0.320422
  26 H :    0.215993
Sum of atomic charges:   -1.0000000

LOEWDIN ATOMIC CHARGES
----------------------
   0 Pd:   -0.832296
   1 Cl:   -0.080783
   2 Cl:   -0.171006
   3 Cl:   -0.165383
   4 N :    0.039079
   5 C :    0.010030
   6 C :   -0.171513
   7 C :   -0.088840
   8 C :    0.092648
   9 C :   -0.053172
  10 H :    0.134677
  11 H :    0.162829
  12 H :    0.139229
  13 C :   -0.032940
  14 C :   -0.146833
  15 C :   -0.118069
  16 C :   -0.033488
  17 H :    0.128200
  18 H :    0.129769
  19 C :   -0.120928
  20 C :   -0.157960
  21 C :   -0.145001
  22 C :   -0.134771
  23 H :    0.123136
  24 H :    0.122859
  25 H :    0.237230
  26 H :    0.133298

  Mayer bond orders larger than 0.100000
B(  0-Pd,  1-Cl) :   0.9336 B(  0-Pd,  2-Cl) :   0.1046 B(  0-Pd,  3-Cl) :   0.7911
B(  0-Pd,  4-N ) :   0.3980 B(  0-Pd, 19-C ) :   0.4463 B(  2-Cl, 25-H ) :   0.7629
B(  4-N ,  5-C ) :   1.4627 B(  4-N ,  8-C ) :   1.1545 B(  5-C ,  6-C ) :   1.3277
B(  5-C , 11-H ) :   0.8950 B(  6-C ,  7-C ) :   1.4468 B(  6-C , 12-H ) :   0.9199
B(  7-C ,  9-C ) :   1.2887 B(  7-C , 10-H ) :   0.9285 B(  8-C ,  9-C ) :   1.2133
B(  8-C , 13-C ) :   1.1235 B(  9-C , 14-C ) :   1.1611 B( 13-C , 16-C ) :   1.2696
B( 13-C , 19-C ) :   1.2746 B( 14-C , 15-C ) :   1.6460 B( 14-C , 17-H ) :   0.9300
B( 15-C , 16-C ) :   1.1474 B( 15-C , 18-H ) :   0.9285 B( 16-C , 20-C ) :   1.2866
B( 19-C , 21-C ) :   1.4772 B( 20-C , 22-C ) :   1.4917 B( 20-C , 23-H ) :   0.9300
B( 21-C , 22-C ) :   1.3470 B( 21-C , 26-H ) :   0.9163 B( 22-C , 24-H ) :   0.9245

Dispersion correction           -0.024331251
FINAL SINGLE POINT ENERGY     -2061.451697317951
Dispersion correction            ... done

DIPOLE MOMENT
-------------
                                X             Y             Z
Electronic contribution:    -79.62418     -60.56386      23.10029
Nuclear contribution   :     82.90545      63.34749     -22.42190
                        -----------------------------------------
Total Dipole Moment    :      3.28126       2.78363       0.67840
                        -----------------------------------------
Magnitude (a.u.)       :      4.35609
Magnitude (Debye)      :     11.07229

Rotational constants in cm-1:     0.011777     0.007697     0.005800
Rotational constants in MHz :   353.062248   230.764638   173.885869

                             ****ORCA TERMINATED NORMALLY****
TOTAL RUN TIME: 0 days 0 hours 9 minutes 0 seconds 960 msec
