                         Program Version 5.0.3 -  RELEASE  -
|  1> ! EnGrad PBEh-3c
|  2> %output
|  3> xyzfile=True
|  4> end
|  5> %scf
|  6> maxiter 250
|  7> end
|  8> %output
|  9> Print[P_Hirshfeld] = 1
| 10> end
| 11> % maxcore
| 12> 4000
| 13> *xyz -1 1
| 14> Pd  -2.01272803  -1.52818794   0.40577880
| 15> Cl  -3.50329068  -3.25974113  -0.20579803
| 16> Cl  -0.52983929  -4.13969938   0.97531500
| 17> Cl  -3.90899342  -0.24465844   0.83139730
| 18> N   -0.95456882  -0.13679416   1.39917586
| 19> C   -1.30629350   0.40555526   2.57766966
| 20> C   -0.75922580   1.63769660   2.99762191
| 21> C    0.07204280   2.30490231   2.17032162
| 22> C   -0.05503409   0.44894701   0.61638435
| 23> C    0.44988261   1.72689032   0.95095932
| 24> H    0.47789041   3.29989843   2.42118625
| 25> H   -2.00576117  -0.11861384   3.20840064
| 26> H   -1.06624195   2.05300754   3.96071899
| 27> C    0.36469900  -0.25845266  -0.55912838
| 28> C    1.32736906   2.39750766   0.01886875
| 29> C    1.64192256   1.82310348  -1.08473226
| 30> C    1.20825849   0.48868139  -1.44238552
| 31> H    1.70960738   3.40494222   0.32610604
| 32> H    2.32476598   2.32832341  -1.81517022
| 33> C   -0.10190312  -1.55321387  -0.83137183
| 34> C    1.61372856  -0.08894583  -2.65051245
| 35> C    0.33664085  -2.07794027  -2.06958017
| 36> C    1.19494403  -1.32664230  -2.94480523
| 37> H    2.32636232   0.48884823  -3.29340700
| 38> H    1.54476564  -1.79913655  -3.87919561
| 39> H   -0.44096890  -3.23150118   0.37835776
| 40> H    0.03883056  -3.04649376  -2.44712766
| 41> *
| 42>
| 43>                          ****END OF INPUT****

CARTESIAN COORDINATES (ANGSTROEM)
---------------------------------
  Pd    -2.012728   -1.528188    0.405779
  Cl    -3.503291   -3.259741   -0.205798
  Cl    -0.529839   -4.139699    0.975315
  Cl    -3.908993   -0.244658    0.831397
  N     -0.954569   -0.136794    1.399176
  C     -1.306293    0.405555    2.577670
  C     -0.759226    1.637697    2.997622
  C      0.072043    2.304902    2.170322
  C     -0.055034    0.448947    0.616384
  C      0.449883    1.726890    0.950959
  H      0.477890    3.299898    2.421186
  H     -2.005761   -0.118614    3.208401
  H     -1.066242    2.053008    3.960719
  C      0.364699   -0.258453   -0.559128
  C      1.327369    2.397508    0.018869
  C      1.641923    1.823103   -1.084732
  C      1.208258    0.488681   -1.442386
  H      1.709607    3.404942    0.326106
  H      2.324766    2.328323   -1.815170
  C     -0.101903   -1.553214   -0.831372
  C      1.613729   -0.088946   -2.650512
  C      0.336641   -2.077940   -2.069580
  C      1.194944   -1.326642   -2.944805
  H      2.326362    0.488848   -3.293407
  H      1.544766   -1.799137   -3.879196
  H     -0.440969   -3.231501    0.378358
  H      0.038831   -3.046494   -2.447128

 Total Charge           Charge          ....   -1
 Multiplicity           Mult            ....    1
 Number of Electrons    NEL             ....  164
 Basis Dimension        Dim             ....  313

ORBITAL ENERGIES
----------------

  NO   OCC          E(Eh)            E(eV)
   0   2.0000    -102.129180     -2779.0763
   1   2.0000    -102.076640     -2777.6466
   2   2.0000    -102.062583     -2777.2641
   3   2.0000     -14.594942      -397.1486
   4   2.0000     -10.410923      -283.2956
   5   2.0000     -10.404487      -283.1205
   6   2.0000     -10.388715      -282.6913
   7   2.0000     -10.381199      -282.4868
   8   2.0000     -10.376515      -282.3593
   9   2.0000     -10.367811      -282.1225
  10   2.0000     -10.366069      -282.0751
  11   2.0000     -10.364422      -282.0303
  12   2.0000     -10.353698      -281.7384
  13   2.0000     -10.350766      -281.6587
  14   2.0000     -10.349389      -281.6212
  15   2.0000     -10.341305      -281.4012
  16   2.0000     -10.330731      -281.1135
  17   2.0000      -9.606942      -261.4182
  18   2.0000      -9.540672      -259.6149
  19   2.0000      -9.526398      -259.2265
  20   2.0000      -7.293699      -198.4716
  21   2.0000      -7.285960      -198.2610
  22   2.0000      -7.285642      -198.2524
  23   2.0000      -7.226429      -196.6411
  24   2.0000      -7.221846      -196.5164
  25   2.0000      -7.221438      -196.5053
  26   2.0000      -7.212336      -196.2576
  27   2.0000      -7.207521      -196.1266
  28   2.0000      -7.207118      -196.1157
  29   2.0000      -3.511744       -95.5594
  30   2.0000      -2.160551       -58.7916
  31   2.0000      -2.152258       -58.5659
  32   2.0000      -2.123231       -57.7761
  33   2.0000      -0.988889       -26.9090
  34   2.0000      -0.878938       -23.9171
  35   2.0000      -0.843892       -22.9635
  36   2.0000      -0.815200       -22.1827
  37   2.0000      -0.812355       -22.1053
  38   2.0000      -0.776221       -21.1220
  39   2.0000      -0.733189       -19.9511
  40   2.0000      -0.715537       -19.4708
  41   2.0000      -0.669224       -18.2105
  42   2.0000      -0.650432       -17.6991
  43   2.0000      -0.643080       -17.4991
  44   2.0000      -0.634498       -17.2656
  45   2.0000      -0.603529       -16.4228
  46   2.0000      -0.562619       -15.3096
  47   2.0000      -0.523148       -14.2356
  48   2.0000      -0.512794       -13.9538
  49   2.0000      -0.488921       -13.3042
  50   2.0000      -0.454308       -12.3624
  51   2.0000      -0.452677       -12.3180
  52   2.0000      -0.425900       -11.5893
  53   2.0000      -0.413051       -11.2397
  54   2.0000      -0.406464       -11.0605
  55   2.0000      -0.404641       -11.0108
  56   2.0000      -0.391308       -10.6480
  57   2.0000      -0.382416       -10.4061
  58   2.0000      -0.372580       -10.1384
  59   2.0000      -0.342466        -9.3190
  60   2.0000      -0.335531        -9.1303
  61   2.0000      -0.325145        -8.8477
  62   2.0000      -0.314667        -8.5625
  63   2.0000      -0.302580        -8.2336
  64   2.0000      -0.287526        -7.8240
  65   2.0000      -0.265182        -7.2160
  66   2.0000      -0.252782        -6.8786
  67   2.0000      -0.248074        -6.7504
  68   2.0000      -0.242123        -6.5885
  69   2.0000      -0.235792        -6.4162
  70   2.0000      -0.228606        -6.2207
  71   2.0000      -0.219292        -5.9672
  72   2.0000      -0.203553        -5.5389
  73   2.0000      -0.187713        -5.1079
  74   2.0000      -0.177392        -4.8271
  75   2.0000      -0.168226        -4.5777
  76   2.0000      -0.167368        -4.5543
  77   2.0000      -0.151420        -4.1203
  78   2.0000      -0.145327        -3.9545
  79   2.0000      -0.130838        -3.5603
  80   2.0000      -0.127727        -3.4756
  81   2.0000      -0.113373        -3.0850
  82   0.0000       0.051418         1.3992
  83   0.0000       0.075947         2.0666
  84   0.0000       0.086157         2.3445
  85   0.0000       0.108036         2.9398
  86   0.0000       0.153973         4.1898

MULLIKEN ATOMIC CHARGES
-----------------------
   0 Pd:    0.158084
   1 Cl:   -0.392927
   2 Cl:   -0.340617
   3 Cl:   -0.407027
   4 N :   -0.584545
   5 C :    0.046380
   6 C :   -0.340818
   7 C :   -0.143083
   8 C :    0.406812
   9 C :    0.021142
  10 H :    0.206761
  11 H :    0.280559
  12 H :    0.215909
  13 C :    0.001176
  14 C :   -0.274655
  15 C :   -0.265776
  16 C :    0.121442
  17 H :    0.185852
  18 H :    0.184084
  19 C :   -0.196620
  20 C :   -0.301276
  21 C :   -0.318991
  22 C :   -0.205623
  23 H :    0.180595
  24 H :    0.185661
  25 H :    0.357567
  26 H :    0.219933
Sum of atomic charges:   -1.0000000

LOEWDIN ATOMIC CHARGES
----------------------
   0 Pd:   -0.848327
   1 Cl:   -0.155048
   2 Cl:   -0.099310
   3 Cl:   -0.142696
   4 N :    0.043903
   5 C :    0.015970
   6 C :   -0.169184
   7 C :   -0.092264
   8 C :    0.091016
   9 C :   -0.049916
  10 H :    0.134010
  11 H :    0.165357
  12 H :    0.139045
  13 C :   -0.032696
  14 C :   -0.142626
  15 C :   -0.117368
  16 C :   -0.031655
  17 H :    0.127436
  18 H :    0.127170
  19 C :   -0.099319
  20 C :   -0.155074
  21 C :   -0.130033
  22 C :   -0.134023
  23 H :    0.121634
  24 H :    0.122677
  25 H :    0.173340
  26 H :    0.137980

  Mayer bond orders larger than 0.100000
B(  0-Pd,  1-Cl) :   0.8815 B(  0-Pd,  2-Cl) :   0.1016 B(  0-Pd,  3-Cl) :   0.7916
B(  0-Pd,  4-N ) :   0.4307 B(  0-Pd, 19-C ) :   0.5498 B(  2-Cl, 25-H ) :   0.7557
B(  4-N ,  5-C ) :   1.4364 B(  4-N ,  8-C ) :   1.1474 B(  5-C ,  6-C ) :   1.3344
B(  5-C , 11-H ) :   0.8907 B(  6-C ,  7-C ) :   1.4387 B(  6-C , 12-H ) :   0.9202
B(  7-C ,  9-C ) :   1.3005 B(  7-C , 10-H ) :   0.9285 B(  8-C ,  9-C ) :   1.2254
B(  8-C , 13-C ) :   1.1222 B(  9-C , 14-C ) :   1.1449 B( 13-C , 16-C ) :   1.2834
B( 13-C , 19-C ) :   1.2297 B( 14-C , 15-C ) :   1.6583 B( 14-C , 17-H ) :   0.9297
B( 15-C , 16-C ) :   1.1373 B( 15-C , 18-H ) :   0.9287 B( 16-C , 20-C ) :   1.2919
B( 19-C , 21-C ) :   1.4693 B( 20-C , 22-C ) :   1.4861 B( 20-C , 23-H ) :   0.9310
B( 21-C , 22-C ) :   1.3422 B( 21-C , 26-H ) :   0.9151 B( 22-C , 24-H ) :   0.9254

Dispersion correction           -0.024572586
FINAL SINGLE POINT ENERGY     -2061.407831341475
Dispersion correction            ... done

DIPOLE MOMENT
-------------
                                X             Y             Z
Electronic contribution:    -77.14668     -54.99843      16.45109
Nuclear contribution   :     80.58678      57.85197     -15.71558
                        -----------------------------------------
Total Dipole Moment    :      3.44010       2.85355       0.73550
                        -----------------------------------------
Magnitude (a.u.)       :      4.52968
Magnitude (Debye)      :     11.51354

Rotational constants in cm-1:     0.012039     0.008119     0.006013
Rotational constants in MHz :   360.909389   243.393524   180.274068

                             ****ORCA TERMINATED NORMALLY****
TOTAL RUN TIME: 0 days 0 hours 11 minutes 56 seconds 341 msec
