                         Program Version 5.0.3 -  RELEASE  -
|  1> ! EnGrad PBEh-3c
|  2> %output
|  3> xyzfile=True
|  4> end
|  5> %scf
|  6> maxiter 250
|  7> end
|  8> %output
|  9> Print[P_Hirshfeld] = 1
| 10> end
| 11> % maxcore
| 12> 4000
| 13> *xyz -1 1
| 14> Pd  -2.05280685  -1.61574644   0.51101160
| 15> Cl  -3.48979260  -3.26896623  -0.18937574
| 16> Cl  -0.58963680  -4.28591849   1.08671669
| 17> Cl  -3.96669302  -0.26113423   0.82072279
| 18> N   -0.96707250  -0.11990103   1.41129000
| 19> C   -1.29281205   0.43225624   2.57613808
| 20> C   -0.76367570   1.66134443   3.00169081
| 21> C    0.08022961   2.33580918   2.16538702
| 22> C   -0.06392878   0.47139863   0.61451140
| 23> C    0.44836580   1.74806178   0.94943083
| 24> H    0.48525186   3.31105884   2.43334483
| 25> H   -1.98471700  -0.10780699   3.21305836
| 26> H   -1.07239415   2.07970272   3.95209985
| 27> C    0.34658094  -0.23375598  -0.57812831
| 28> C    1.33596066   2.42009898   0.04253993
| 29> C    1.67029361   1.83481288  -1.10685636
| 30> C    1.20196832   0.51141784  -1.44770183
| 31> H    1.72756491   3.40565149   0.32332062
| 32> H    2.34947800   2.34546144  -1.80436917
| 33> C   -0.09883669  -1.55601480  -0.85469077
| 34> C    1.64656847  -0.06597246  -2.65180843
| 35> C    0.33618913  -2.04279455  -2.09394428
| 36> C    1.20139807  -1.32217193  -2.96573164
| 37> H    2.33429641   0.48644314  -3.30427831
| 38> H    1.57281193  -1.79257855  -3.88235590
| 39> H   -0.41223093  -3.36240074   0.24341595
| 40> H    0.00799509  -3.00993114  -2.45696858
| 41> *
| 42>
| 43>                          ****END OF INPUT****

CARTESIAN COORDINATES (ANGSTROEM)
---------------------------------
  Pd    -2.052807   -1.615746    0.511012
  Cl    -3.489793   -3.268966   -0.189376
  Cl    -0.589637   -4.285918    1.086717
  Cl    -3.966693   -0.261134    0.820723
  N     -0.967072   -0.119901    1.411290
  C     -1.292812    0.432256    2.576138
  C     -0.763676    1.661344    3.001691
  C      0.080230    2.335809    2.165387
  C     -0.063929    0.471399    0.614511
  C      0.448366    1.748062    0.949431
  H      0.485252    3.311059    2.433345
  H     -1.984717   -0.107807    3.213058
  H     -1.072394    2.079703    3.952100
  C      0.346581   -0.233756   -0.578128
  C      1.335961    2.420099    0.042540
  C      1.670294    1.834813   -1.106856
  C      1.201968    0.511418   -1.447702
  H      1.727565    3.405651    0.323321
  H      2.349478    2.345461   -1.804369
  C     -0.098837   -1.556015   -0.854691
  C      1.646568   -0.065972   -2.651808
  C      0.336189   -2.042795   -2.093944
  C      1.201398   -1.322172   -2.965732
  H      2.334296    0.486443   -3.304278
  H      1.572812   -1.792579   -3.882356
  H     -0.412231   -3.362401    0.243416
  H      0.007995   -3.009931   -2.456969

 Total Charge           Charge          ....   -1
 Multiplicity           Mult            ....    1
 Number of Electrons    NEL             ....  164
 Basis Dimension        Dim             ....  313

ORBITAL ENERGIES
----------------

  NO   OCC          E(Eh)            E(eV)
   0   2.0000    -102.139652     -2779.3612
   1   2.0000    -102.077613     -2777.6731
   2   2.0000    -102.072907     -2777.5450
   3   2.0000     -14.593757      -397.1163
   4   2.0000     -10.407919      -283.2139
   5   2.0000     -10.406310      -283.1701
   6   2.0000     -10.388936      -282.6973
   7   2.0000     -10.381650      -282.4991
   8   2.0000     -10.375712      -282.3375
   9   2.0000     -10.369645      -282.1724
  10   2.0000     -10.368600      -282.1440
  11   2.0000     -10.365361      -282.0558
  12   2.0000     -10.356662      -281.8191
  13   2.0000     -10.351210      -281.6708
  14   2.0000     -10.349787      -281.6320
  15   2.0000     -10.337370      -281.2941
  16   2.0000     -10.330688      -281.1123
  17   2.0000      -9.609825      -261.4966
  18   2.0000      -9.541159      -259.6281
  19   2.0000      -9.537329      -259.5239
  20   2.0000      -7.296511      -198.5481
  21   2.0000      -7.289724      -198.3635
  22   2.0000      -7.289336      -198.3529
  23   2.0000      -7.227042      -196.6578
  24   2.0000      -7.223496      -196.5613
  25   2.0000      -7.222280      -196.5282
  26   2.0000      -7.221949      -196.5192
  27   2.0000      -7.218220      -196.4177
  28   2.0000      -7.217841      -196.4074
  29   2.0000      -3.512003       -95.5664
  30   2.0000      -2.163154       -58.8624
  31   2.0000      -2.149901       -58.5018
  32   2.0000      -2.123675       -57.7881
  33   2.0000      -0.986678       -26.8489
  34   2.0000      -0.874828       -23.8053
  35   2.0000      -0.841101       -22.8875
  36   2.0000      -0.807697       -21.9785
  37   2.0000      -0.777734       -21.1632
  38   2.0000      -0.772072       -21.0092
  39   2.0000      -0.731776       -19.9126
  40   2.0000      -0.712783       -19.3958
  41   2.0000      -0.670535       -18.2462
  42   2.0000      -0.659253       -17.9392
  43   2.0000      -0.641246       -17.4492
  44   2.0000      -0.634605       -17.2685
  45   2.0000      -0.601695       -16.3730
  46   2.0000      -0.564570       -15.3627
  47   2.0000      -0.521760       -14.1978
  48   2.0000      -0.510504       -13.8915
  49   2.0000      -0.489659       -13.3243
  50   2.0000      -0.453975       -12.3533
  51   2.0000      -0.452078       -12.3017
  52   2.0000      -0.424747       -11.5580
  53   2.0000      -0.410414       -11.1679
  54   2.0000      -0.402550       -10.9539
  55   2.0000      -0.395104       -10.7513
  56   2.0000      -0.382246       -10.4014
  57   2.0000      -0.378452       -10.2982
  58   2.0000      -0.367591       -10.0027
  59   2.0000      -0.341569        -9.2946
  60   2.0000      -0.336185        -9.1481
  61   2.0000      -0.328584        -8.9412
  62   2.0000      -0.311530        -8.4772
  63   2.0000      -0.298918        -8.1340
  64   2.0000      -0.285757        -7.7759
  65   2.0000      -0.261304        -7.1104
  66   2.0000      -0.251609        -6.8466
  67   2.0000      -0.243786        -6.6337
  68   2.0000      -0.238766        -6.4972
  69   2.0000      -0.231100        -6.2886
  70   2.0000      -0.225099        -6.1252
  71   2.0000      -0.219302        -5.9675
  72   2.0000      -0.205678        -5.5968
  73   2.0000      -0.202551        -5.5117
  74   2.0000      -0.176613        -4.8059
  75   2.0000      -0.168736        -4.5915
  76   2.0000      -0.166287        -4.5249
  77   2.0000      -0.152754        -4.1567
  78   2.0000      -0.147043        -4.0012
  79   2.0000      -0.134659        -3.6642
  80   2.0000      -0.133738        -3.6392
  81   2.0000      -0.112662        -3.0657
  82   0.0000       0.050905         1.3852
  83   0.0000       0.073867         2.0100
  84   0.0000       0.077392         2.1060
  85   0.0000       0.110938         3.0188
  86   0.0000       0.148473         4.0402

MULLIKEN ATOMIC CHARGES
-----------------------
   0 Pd:    0.176570
   1 Cl:   -0.354503
   2 Cl:   -0.343335
   3 Cl:   -0.416111
   4 N :   -0.573076
   5 C :    0.048492
   6 C :   -0.335667
   7 C :   -0.149928
   8 C :    0.397701
   9 C :    0.035603
  10 H :    0.208990
  11 H :    0.274908
  12 H :    0.217370
  13 C :   -0.008149
  14 C :   -0.297324
  15 C :   -0.269179
  16 C :    0.110360
  17 H :    0.189910
  18 H :    0.190963
  19 C :   -0.185911
  20 C :   -0.316039
  21 C :   -0.323206
  22 C :   -0.197921
  23 H :    0.185506
  24 H :    0.186675
  25 H :    0.330088
  26 H :    0.217212
Sum of atomic charges:   -1.0000000

LOEWDIN ATOMIC CHARGES
----------------------
   0 Pd:   -0.838249
   1 Cl:   -0.099103
   2 Cl:   -0.154658
   3 Cl:   -0.159532
   4 N :    0.040781
   5 C :    0.011712
   6 C :   -0.170878
   7 C :   -0.089734
   8 C :    0.092334
   9 C :   -0.052345
  10 H :    0.134528
  11 H :    0.163568
  12 H :    0.139211
  13 C :   -0.032843
  14 C :   -0.145811
  15 C :   -0.117916
  16 C :   -0.033139
  17 H :    0.128062
  18 H :    0.129197
  19 C :   -0.116104
  20 C :   -0.157184
  21 C :   -0.141234
  22 C :   -0.134531
  23 H :    0.122799
  24 H :    0.122789
  25 H :    0.223821
  26 H :    0.134460

  Mayer bond orders larger than 0.100000
B(  0-Pd,  1-Cl) :   0.9211 B(  0-Pd,  2-Cl) :   0.1037 B(  0-Pd,  3-Cl) :   0.7914
B(  0-Pd,  4-N ) :   0.4063 B(  0-Pd, 19-C ) :   0.4715 B(  2-Cl, 25-H ) :   0.7638
B(  4-N ,  5-C ) :   1.4563 B(  4-N ,  8-C ) :   1.1517 B(  5-C ,  6-C ) :   1.3294
B(  5-C , 11-H ) :   0.8939 B(  6-C ,  7-C ) :   1.4447 B(  6-C , 12-H ) :   0.9199
B(  7-C ,  9-C ) :   1.2916 B(  7-C , 10-H ) :   0.9285 B(  8-C ,  9-C ) :   1.2162
B(  8-C , 13-C ) :   1.1230 B(  9-C , 14-C ) :   1.1572 B( 13-C , 16-C ) :   1.2735
B( 13-C , 19-C ) :   1.2609 B( 14-C , 15-C ) :   1.6496 B( 14-C , 17-H ) :   0.9299
B( 15-C , 16-C ) :   1.1445 B( 15-C , 18-H ) :   0.9287 B( 16-C , 20-C ) :   1.2882
B( 19-C , 21-C ) :   1.4756 B( 20-C , 22-C ) :   1.4906 B( 20-C , 23-H ) :   0.9303
B( 21-C , 22-C ) :   1.3461 B( 21-C , 26-H ) :   0.9158 B( 22-C , 24-H ) :   0.9247

Dispersion correction           -0.024365251
FINAL SINGLE POINT ENERGY     -2061.452768285837
Dispersion correction            ... done

DIPOLE MOMENT
-------------
                                X             Y             Z
Electronic contribution:    -79.00454     -59.17919      21.44512
Nuclear contribution   :     82.32798      61.97882     -20.75167
                        -----------------------------------------
Total Dipole Moment    :      3.32344       2.79963       0.69345
                        -----------------------------------------
Magnitude (a.u.)       :      4.40046
Magnitude (Debye)      :     11.18507

Rotational constants in cm-1:     0.011842     0.007801     0.005854
Rotational constants in MHz :   355.028795   233.880543   175.484126

                             ****ORCA TERMINATED NORMALLY****
TOTAL RUN TIME: 0 days 0 hours 8 minutes 44 seconds 195 msec
