                         Program Version 5.0.3 -  RELEASE  -
|  1> ! EnGrad PBEh-3c
|  2> %output
|  3> xyzfile=True
|  4> end
|  5> %scf
|  6> maxiter 250
|  7> end
|  8> %output
|  9> Print[P_Hirshfeld] = 1
| 10> end
| 11> % maxcore
| 12> 4000
| 13> %pal nprocs 4
| 14> end
| 15> *xyz 1 1
| 16> Sc   1.69148000  -1.47736000  -1.54143000
| 17> C    0.53759000  -0.77390000   0.25469000
| 18> N   -0.44476000  -1.41618000   0.91369000
| 19> C   -0.93745000  -0.64583000   1.92857000
| 20> C   -0.24356000   0.51473000   1.90574000
| 21> N    0.65182000   0.41381000   0.87901000
| 22> C    1.56466000   1.48424000   0.51834000
| 23> H    2.03512000   1.88367000   1.41347000
| 24> H    1.03331000   2.28042000   0.00126000
| 25> H    2.34836000   1.10255000  -0.13211000
| 26> C   -0.95510000  -2.74249000   0.61366000
| 27> H   -0.29603000  -3.24467000  -0.09002000
| 28> H   -1.94968000  -2.67708000   0.17754000
| 29> H   -0.99706000  -3.33574000   1.52404000
| 30> H   -1.72669000  -0.97534000   2.58256000
| 31> H   -0.31604000   1.38461000   2.53599000
| 32> C   -0.39662000   1.64085000  -2.69436000
| 33> H   -0.67563000   1.10695000  -3.59866000
| 34> H   -0.83342000   2.63557000  -2.72231000
| 35> H   -0.77758000   1.10882000  -1.82420000
| 36> H    0.68730000   1.73239000  -2.64548000
| 37> *
| 38>
| 39>                          ****END OF INPUT****

CARTESIAN COORDINATES (ANGSTROEM)
---------------------------------
  Sc     1.691480   -1.477360   -1.541430
  C      0.537590   -0.773900    0.254690
  N     -0.444760   -1.416180    0.913690
  C     -0.937450   -0.645830    1.928570
  C     -0.243560    0.514730    1.905740
  N      0.651820    0.413810    0.879010
  C      1.564660    1.484240    0.518340
  H      2.035120    1.883670    1.413470
  H      1.033310    2.280420    0.001260
  H      2.348360    1.102550   -0.132110
  C     -0.955100   -2.742490    0.613660
  H     -0.296030   -3.244670   -0.090020
  H     -1.949680   -2.677080    0.177540
  H     -0.997060   -3.335740    1.524040
  H     -1.726690   -0.975340    2.582560
  H     -0.316040    1.384610    2.535990
  C     -0.396620    1.640850   -2.694360
  H     -0.675630    1.106950   -3.598660
  H     -0.833420    2.635570   -2.722310
  H     -0.777580    1.108820   -1.824200
  H      0.687300    1.732390   -2.645480

 Total Charge           Charge          ....    1
 Multiplicity           Mult            ....    1
 Number of Electrons    NEL             ....   82
 Basis Dimension        Dim             ....  175

ORBITAL ENERGIES
----------------

  NO   OCC          E(Eh)            E(eV)
   0   2.0000    -162.911033     -4433.0346
   1   2.0000     -18.221610      -495.8352
   2   2.0000     -15.062550      -409.8728
   3   2.0000     -15.060835      -409.8262
   4   2.0000     -15.045842      -409.4182
   5   2.0000     -14.871741      -404.6806
   6   2.0000     -14.871651      -404.6782
   7   2.0000     -10.653350      -289.8924
   8   2.0000     -10.634464      -289.3785
   9   2.0000     -10.633602      -289.3550
  10   2.0000     -10.624667      -289.1119
  11   2.0000     -10.623993      -289.0935
  12   2.0000     -10.530675      -286.5542
  13   2.0000      -2.429951       -66.1223
  14   2.0000      -1.576922       -42.9102
  15   2.0000      -1.572003       -42.7764
  16   2.0000      -1.560157       -42.4540
  17   2.0000      -1.320145       -35.9230
  18   2.0000      -1.196556       -32.5599
  19   2.0000      -1.030918       -28.0527
  20   2.0000      -0.989169       -26.9167
  21   2.0000      -0.931873       -25.3575
  22   2.0000      -0.892195       -24.2779
  23   2.0000      -0.851148       -23.1609
  24   2.0000      -0.811114       -22.0715
  25   2.0000      -0.757030       -20.5998
  26   2.0000      -0.710299       -19.3282
  27   2.0000      -0.682108       -18.5611
  28   2.0000      -0.664001       -18.0684
  29   2.0000      -0.661870       -18.0104
  30   2.0000      -0.655594       -17.8396
  31   2.0000      -0.608602       -16.5609
  32   2.0000      -0.603863       -16.4320
  33   2.0000      -0.596441       -16.2300
  34   2.0000      -0.565791       -15.3960
  35   2.0000      -0.561895       -15.2899
  36   2.0000      -0.558717       -15.2035
  37   2.0000      -0.528225       -14.3737
  38   2.0000      -0.492693       -13.4069
  39   2.0000      -0.443350       -12.0642
  40   2.0000      -0.332280        -9.0418
  41   0.0000      -0.188700        -5.1348
  42   0.0000      -0.186792        -5.0829
  43   0.0000      -0.186122        -5.0646
  44   0.0000      -0.173740        -4.7277
  45   0.0000      -0.169993        -4.6258

MULLIKEN ATOMIC CHARGES
-----------------------
   0 Sc:    0.525316
   1 C :    0.204936
   2 N :   -0.414986
   3 C :   -0.060976
   4 C :   -0.061520
   5 N :   -0.414156
   6 C :   -0.523008
   7 H :    0.282688
   8 H :    0.283661
   9 H :    0.253217
  10 C :   -0.518388
  11 H :    0.254730
  12 H :    0.280225
  13 H :    0.280031
  14 H :    0.306567
  15 H :    0.306652
  16 C :   -0.907799
  17 H :    0.248822
  18 H :    0.262339
  19 H :    0.206209
  20 H :    0.205440
Sum of atomic charges:    1.0000000

LOEWDIN ATOMIC CHARGES
----------------------
   0 Sc:    0.372678
   1 C :   -0.049612
   2 N :    0.010988
   3 C :   -0.075105
   4 C :   -0.074883
   5 N :    0.011174
   6 C :   -0.236890
   7 H :    0.157500
   8 H :    0.155501
   9 H :    0.149834
  10 C :   -0.236757
  11 H :    0.150324
  12 H :    0.155178
  13 H :    0.157080
  14 H :    0.170621
  15 H :    0.170603
  16 C :   -0.527126
  17 H :    0.143339
  18 H :    0.149808
  19 H :    0.121849
  20 H :    0.123895

  Mayer bond orders larger than 0.100000
B(  0-Sc,  1-C ) :   0.6962 B(  1-C ,  2-N ) :   1.2275 B(  1-C ,  5-N ) :   1.2226
B(  2-N ,  3-C ) :   1.1618 B(  2-N , 10-C ) :   0.9095 B(  3-C ,  4-C ) :   1.6223
B(  3-C , 14-H ) :   0.8770 B(  4-C ,  5-N ) :   1.1615 B(  4-C , 15-H ) :   0.8769
B(  5-N ,  6-C ) :   0.9090 B(  6-C ,  7-H ) :   0.8953 B(  6-C ,  8-H ) :   0.8878
B(  6-C ,  9-H ) :   0.8953 B( 10-C , 11-H ) :   0.8955 B( 10-C , 12-H ) :   0.8922
B( 10-C , 13-H ) :   0.8956 B( 16-C , 17-H ) :   0.9239 B( 16-C , 18-H ) :   0.9187
B( 16-C , 19-H ) :   0.9284 B( 16-C , 20-H ) :   0.9302

Dispersion correction           -0.011010796
FINAL SINGLE POINT ENERGY     -1104.454288962078
Dispersion correction            ... done

DIPOLE MOMENT
-------------
                                X             Y             Z
Electronic contribution:     10.23297     -11.83319      -2.54722
Nuclear contribution   :     -9.95711      11.41959       2.55636
                        -----------------------------------------
Total Dipole Moment    :      0.27586      -0.41360       0.00914
                        -----------------------------------------
Magnitude (a.u.)       :      0.49723
Magnitude (Debye)      :      1.26387

Rotational constants in cm-1:     0.039609     0.031023     0.023358
Rotational constants in MHz :  1187.442905   930.055270   700.250820

                             ****ORCA TERMINATED NORMALLY****
TOTAL RUN TIME: 0 days 0 hours 1 minutes 22 seconds 166 msec
