                         Program Version 5.0.3 -  RELEASE  -
|  1> ! EnGrad PBEh-3c
|  2> %output
|  3> xyzfile=True
|  4> end
|  5> %scf
|  6> maxiter 250
|  7> end
|  8> %output
|  9> Print[P_Hirshfeld] = 1
| 10> end
| 11> % maxcore
| 12> 4000
| 13> *xyz -1 1
| 14> Pd  -2.30905426  -1.65280271   0.81730205
| 15> Cl  -3.80016580  -3.17992988  -0.02479412
| 16> Cl  -1.08536422  -4.14796850   1.71330363
| 17> Cl  -3.71337354   0.04915207   0.22841359
| 18> N   -0.90683119  -0.21209483   1.43871016
| 19> C   -1.20902972   0.31623492   2.60953766
| 20> C   -0.72368147   1.55203069   3.04177741
| 21> C    0.08190388   2.25780546   2.18658661
| 22> C   -0.06481578   0.42442106   0.59857205
| 23> C    0.42618925   1.70106641   0.94760142
| 24> H    0.45580475   3.23374669   2.47330501
| 25> H   -1.89690454  -0.23906084   3.23313446
| 26> H   -1.00350573   1.93445756   4.01250988
| 27> C    0.36897554  -0.22828954  -0.61120100
| 28> C    1.25529632   2.41190387   0.02708668
| 29> C    1.58450651   1.85718441  -1.15900774
| 30> C    1.17498981   0.52772484  -1.49306826
| 31> H    1.60274828   3.40409162   0.28668244
| 32> H    2.19900992   2.41555007  -1.85556258
| 33> C    0.06461103  -1.56697110  -0.92193155
| 34> C    1.62325461  -0.04898293  -2.69086968
| 35> C    0.52149526  -2.09113852  -2.11480806
| 36> C    1.30997549  -1.34870123  -2.99595660
| 37> H    2.23079923   0.52571557  -3.37994483
| 38> H    1.66933800  -1.78319510  -3.92151734
| 39> H   -0.16916659  -2.99086470  -0.06121330
| 40> H    0.31298782  -3.12108535  -2.38465511
| 41> *
| 42>
| 43>                          ****END OF INPUT****

CARTESIAN COORDINATES (ANGSTROEM)
---------------------------------
  Pd    -2.309054   -1.652803    0.817302
  Cl    -3.800166   -3.179930   -0.024794
  Cl    -1.085364   -4.147969    1.713304
  Cl    -3.713374    0.049152    0.228414
  N     -0.906831   -0.212095    1.438710
  C     -1.209030    0.316235    2.609538
  C     -0.723681    1.552031    3.041777
  C      0.081904    2.257805    2.186587
  C     -0.064816    0.424421    0.598572
  C      0.426189    1.701066    0.947601
  H      0.455805    3.233747    2.473305
  H     -1.896905   -0.239061    3.233134
  H     -1.003506    1.934458    4.012510
  C      0.368976   -0.228290   -0.611201
  C      1.255296    2.411904    0.027087
  C      1.584507    1.857184   -1.159008
  C      1.174990    0.527725   -1.493068
  H      1.602748    3.404092    0.286682
  H      2.199010    2.415550   -1.855563
  C      0.064611   -1.566971   -0.921932
  C      1.623255   -0.048983   -2.690870
  C      0.521495   -2.091139   -2.114808
  C      1.309975   -1.348701   -2.995957
  H      2.230799    0.525716   -3.379945
  H      1.669338   -1.783195   -3.921517
  H     -0.169167   -2.990865   -0.061213
  H      0.312988   -3.121085   -2.384655

 Total Charge           Charge          ....   -1
 Multiplicity           Mult            ....    1
 Number of Electrons    NEL             ....  164
 Basis Dimension        Dim             ....  313

ORBITAL ENERGIES
----------------

  NO   OCC          E(Eh)            E(eV)
   0   2.0000    -102.099808     -2778.2770
   1   2.0000    -102.079785     -2777.7322
   2   2.0000    -102.057383     -2777.1226
   3   2.0000     -14.599005      -397.2591
   4   2.0000     -10.421680      -283.5883
   5   2.0000     -10.414496      -283.3928
   6   2.0000     -10.399231      -282.9775
   7   2.0000     -10.393635      -282.8252
   8   2.0000     -10.384364      -282.5729
   9   2.0000     -10.382418      -282.5200
  10   2.0000     -10.382004      -282.5087
  11   2.0000     -10.381228      -282.4876
  12   2.0000     -10.380018      -282.4547
  13   2.0000     -10.372040      -282.2376
  14   2.0000     -10.365109      -282.0490
  15   2.0000     -10.363444      -282.0036
  16   2.0000     -10.352445      -281.7043
  17   2.0000      -9.563706      -260.2417
  18   2.0000      -9.544112      -259.7085
  19   2.0000      -9.519307      -259.0335
  20   2.0000      -7.250109      -197.2855
  21   2.0000      -7.244429      -197.1309
  22   2.0000      -7.244188      -197.1244
  23   2.0000      -7.230677      -196.7567
  24   2.0000      -7.224776      -196.5962
  25   2.0000      -7.224318      -196.5837
  26   2.0000      -7.203716      -196.0231
  27   2.0000      -7.201958      -195.9752
  28   2.0000      -7.200530      -195.9364
  29   2.0000      -3.517740       -95.7226
  30   2.0000      -2.167703       -58.9862
  31   2.0000      -2.158834       -58.7449
  32   2.0000      -2.128862       -57.9293
  33   2.0000      -0.995905       -27.0999
  34   2.0000      -0.895353       -24.3638
  35   2.0000      -0.855888       -23.2899
  36   2.0000      -0.823298       -22.4031
  37   2.0000      -0.788158       -21.4469
  38   2.0000      -0.753934       -20.5156
  39   2.0000      -0.731513       -19.9055
  40   2.0000      -0.689606       -18.7651
  41   2.0000      -0.667790       -18.1715
  42   2.0000      -0.654804       -17.8181
  43   2.0000      -0.651277       -17.7222
  44   2.0000      -0.635449       -17.2915
  45   2.0000      -0.618832       -16.8393
  46   2.0000      -0.584758       -15.9121
  47   2.0000      -0.538079       -14.6419
  48   2.0000      -0.526321       -14.3219
  49   2.0000      -0.504408       -13.7256
  50   2.0000      -0.470208       -12.7950
  51   2.0000      -0.469113       -12.7652
  52   2.0000      -0.440883       -11.9970
  53   2.0000      -0.421297       -11.4641
  54   2.0000      -0.417424       -11.3587
  55   2.0000      -0.407232       -11.0813
  56   2.0000      -0.398725       -10.8499
  57   2.0000      -0.387182       -10.5358
  58   2.0000      -0.365347        -9.9416
  59   2.0000      -0.353388        -9.6162
  60   2.0000      -0.346706        -9.4343
  61   2.0000      -0.324847        -8.8395
  62   2.0000      -0.312046        -8.4912
  63   2.0000      -0.301573        -8.2062
  64   2.0000      -0.275451        -7.4954
  65   2.0000      -0.264989        -7.2107
  66   2.0000      -0.258745        -7.0408
  67   2.0000      -0.251850        -6.8532
  68   2.0000      -0.236189        -6.4270
  69   2.0000      -0.227432        -6.1887
  70   2.0000      -0.225603        -6.1390
  71   2.0000      -0.214681        -5.8418
  72   2.0000      -0.196496        -5.3469
  73   2.0000      -0.178962        -4.8698
  74   2.0000      -0.164217        -4.4686
  75   2.0000      -0.162375        -4.4185
  76   2.0000      -0.160539        -4.3685
  77   2.0000      -0.149944        -4.0802
  78   2.0000      -0.140898        -3.8340
  79   2.0000      -0.139850        -3.8055
  80   2.0000      -0.130978        -3.5641
  81   2.0000      -0.123105        -3.3499
  82   0.0000       0.037410         1.0180
  83   0.0000       0.055921         1.5217
  84   0.0000       0.065900         1.7932
  85   0.0000       0.099767         2.7148
  86   0.0000       0.119025         3.2388

MULLIKEN ATOMIC CHARGES
-----------------------
   0 Pd:    0.164429
   1 Cl:   -0.311746
   2 Cl:   -0.527840
   3 Cl:   -0.364975
   4 N :   -0.560106
   5 C :    0.049143
   6 C :   -0.310512
   7 C :   -0.157064
   8 C :    0.389397
   9 C :    0.037050
  10 H :    0.213465
  11 H :    0.282745
  12 H :    0.223332
  13 C :    0.000396
  14 C :   -0.296010
  15 C :   -0.278079
  16 C :    0.127336
  17 H :    0.198358
  18 H :    0.199776
  19 C :   -0.196554
  20 C :   -0.314547
  21 C :   -0.240924
  22 C :   -0.198508
  23 H :    0.192973
  24 H :    0.201156
  25 H :    0.245687
  26 H :    0.231623
Sum of atomic charges:   -1.0000000

LOEWDIN ATOMIC CHARGES
----------------------
   0 Pd:   -0.836801
   1 Cl:   -0.060194
   2 Cl:   -0.419464
   3 Cl:   -0.079494
   4 N :    0.033130
   5 C :    0.019363
   6 C :   -0.161139
   7 C :   -0.083200
   8 C :    0.094055
   9 C :   -0.048771
  10 H :    0.136771
  11 H :    0.167667
  12 H :    0.142164
  13 C :   -0.030256
  14 C :   -0.136746
  15 C :   -0.116093
  16 C :   -0.028824
  17 H :    0.131650
  18 H :    0.133392
  19 C :   -0.089603
  20 C :   -0.144102
  21 C :   -0.140836
  22 C :   -0.132757
  23 H :    0.126570
  24 H :    0.128193
  25 H :    0.256494
  26 H :    0.138830

  Mayer bond orders larger than 0.100000
B(  0-Pd,  1-Cl) :   0.9536 B(  0-Pd,  2-Cl) :   0.4604 B(  0-Pd,  3-Cl) :   0.9011
B(  0-Pd,  4-N ) :   0.3592 B(  2-Cl, 25-H ) :   0.2067 B(  4-N ,  5-C ) :   1.4647
B(  4-N ,  8-C ) :   1.2035 B(  5-C ,  6-C ) :   1.3192 B(  5-C , 11-H ) :   0.8934
B(  6-C ,  7-C ) :   1.4647 B(  6-C , 12-H ) :   0.9179 B(  7-C ,  9-C ) :   1.2784
B(  7-C , 10-H ) :   0.9279 B(  8-C ,  9-C ) :   1.2250 B(  8-C , 13-C ) :   1.1111
B(  9-C , 14-C ) :   1.1635 B( 13-C , 16-C ) :   1.2995 B( 13-C , 19-C ) :   1.3108
B( 14-C , 15-C ) :   1.6500 B( 14-C , 17-H ) :   0.9290 B( 15-C , 16-C ) :   1.1531
B( 15-C , 18-H ) :   0.9274 B( 16-C , 20-C ) :   1.2783 B( 19-C , 21-C ) :   1.4626
B( 19-C , 25-H ) :   0.6584 B( 20-C , 22-C ) :   1.4944 B( 20-C , 23-H ) :   0.9309
B( 21-C , 22-C ) :   1.3540 B( 21-C , 26-H ) :   0.9149 B( 22-C , 24-H ) :   0.9210

Dispersion correction           -0.024807601
FINAL SINGLE POINT ENERGY     -2061.411876370308
Dispersion correction            ... done

DIPOLE MOMENT
-------------
                                X             Y             Z
Electronic contribution:    -90.56157     -60.93633      35.73317
Nuclear contribution   :     93.93815      65.11249     -35.80881
                        -----------------------------------------
Total Dipole Moment    :      3.37658       4.17616      -0.07564
                        -----------------------------------------
Magnitude (a.u.)       :      5.37097
Magnitude (Debye)      :     13.65192

Rotational constants in cm-1:     0.012003     0.007199     0.005829
Rotational constants in MHz :   359.830540   215.814718   174.746932

                             ****ORCA TERMINATED NORMALLY****
TOTAL RUN TIME: 0 days 0 hours 9 minutes 58 seconds 645 msec
