                         Program Version 5.0.3 -  RELEASE  -
|  1> ! EnGrad PBEh-3c
|  2> %output
|  3> xyzfile=True
|  4> end
|  5> %scf
|  6> maxiter 250
|  7> end
|  8> %output
|  9> Print[P_Hirshfeld] = 1
| 10> end
| 11> % maxcore
| 12> 4000
| 13> *xyz -1 1
| 14> Pd  -2.28320817  -1.74409220   0.79585083
| 15> Cl  -3.74894294  -3.17631156  -0.03805209
| 16> Cl  -1.03296318  -4.14276752   1.63996087
| 17> Cl  -3.74959141   0.01991891   0.30482576
| 18> N   -0.93644520  -0.20020937   1.44782617
| 19> C   -1.21722332   0.34526058   2.60925161
| 20> C   -0.72739348   1.56409441   3.02936294
| 21> C    0.07686137   2.26414234   2.18908576
| 22> C   -0.06144272   0.42318179   0.62102459
| 23> C    0.43693552   1.72368099   0.94229050
| 24> H    0.46240819   3.24667637   2.46548989
| 25> H   -1.90487111  -0.21868330   3.22811443
| 26> H   -1.01567348   1.95845882   4.00447259
| 27> C    0.35178599  -0.21884451  -0.58914708
| 28> C    1.26719835   2.40921537   0.02494412
| 29> C    1.59520729   1.85897421  -1.14025460
| 30> C    1.18569755   0.53424661  -1.51003736
| 31> H    1.62196359   3.40502146   0.29268394
| 32> H    2.22202769   2.40358522  -1.84981408
| 33> C    0.06391875  -1.76196941  -0.85838514
| 34> C    1.63311010  -0.05358617  -2.69136334
| 35> C    0.50164074  -2.07941463  -2.13643291
| 36> C    1.28678202  -1.32959247  -3.00221642
| 37> H    2.24638688   0.52386758  -3.36577169
| 38> H    1.65952365  -1.78434023  -3.91542849
| 39> H   -0.20050678  -2.87030046  -0.11240772
| 40> H    0.26699342  -3.09769876  -2.38513409
| 41> *
| 42>
| 43>                          ****END OF INPUT****

CARTESIAN COORDINATES (ANGSTROEM)
---------------------------------
  Pd    -2.283208   -1.744092    0.795851
  Cl    -3.748943   -3.176312   -0.038052
  Cl    -1.032963   -4.142768    1.639961
  Cl    -3.749591    0.019919    0.304826
  N     -0.936445   -0.200209    1.447826
  C     -1.217223    0.345261    2.609252
  C     -0.727393    1.564094    3.029363
  C      0.076861    2.264142    2.189086
  C     -0.061443    0.423182    0.621025
  C      0.436936    1.723681    0.942291
  H      0.462408    3.246676    2.465490
  H     -1.904871   -0.218683    3.228114
  H     -1.015673    1.958459    4.004473
  C      0.351786   -0.218845   -0.589147
  C      1.267198    2.409215    0.024944
  C      1.595207    1.858974   -1.140255
  C      1.185698    0.534247   -1.510037
  H      1.621964    3.405021    0.292684
  H      2.222028    2.403585   -1.849814
  C      0.063919   -1.761969   -0.858385
  C      1.633110   -0.053586   -2.691363
  C      0.501641   -2.079415   -2.136433
  C      1.286782   -1.329592   -3.002216
  H      2.246387    0.523868   -3.365772
  H      1.659524   -1.784340   -3.915428
  H     -0.200507   -2.870300   -0.112408
  H      0.266993   -3.097699   -2.385134

 Total Charge           Charge          ....   -1
 Multiplicity           Mult            ....    1
 Number of Electrons    NEL             ....  164
 Basis Dimension        Dim             ....  313

ORBITAL ENERGIES
----------------

  NO   OCC          E(Eh)            E(eV)
   0   2.0000    -102.093714     -2778.1112
   1   2.0000    -102.085685     -2777.8927
   2   2.0000    -102.054801     -2777.0523
   3   2.0000     -14.595805      -397.1720
   4   2.0000     -10.420231      -283.5489
   5   2.0000     -10.409979      -283.2699
   6   2.0000     -10.397535      -282.9313
   7   2.0000     -10.397179      -282.9216
   8   2.0000     -10.393036      -282.8089
   9   2.0000     -10.388489      -282.6852
  10   2.0000     -10.388037      -282.6729
  11   2.0000     -10.381786      -282.5028
  12   2.0000     -10.381077      -282.4835
  13   2.0000     -10.380073      -282.4561
  14   2.0000     -10.367184      -282.1054
  15   2.0000     -10.365532      -282.0605
  16   2.0000     -10.350971      -281.6642
  17   2.0000      -9.557098      -260.0619
  18   2.0000      -9.551063      -259.8976
  19   2.0000      -9.516957      -258.9696
  20   2.0000      -7.243380      -197.1024
  21   2.0000      -7.237962      -196.9550
  22   2.0000      -7.237714      -196.9482
  23   2.0000      -7.237697      -196.9477
  24   2.0000      -7.231580      -196.7813
  25   2.0000      -7.231049      -196.7668
  26   2.0000      -7.201722      -195.9688
  27   2.0000      -7.199136      -195.8984
  28   2.0000      -7.198321      -195.8763
  29   2.0000      -3.516365       -95.6852
  30   2.0000      -2.167497       -58.9806
  31   2.0000      -2.155865       -58.6641
  32   2.0000      -2.128183       -57.9108
  33   2.0000      -0.993223       -27.0270
  34   2.0000      -0.890684       -24.2367
  35   2.0000      -0.853704       -23.2305
  36   2.0000      -0.824991       -22.4491
  37   2.0000      -0.785441       -21.3729
  38   2.0000      -0.750101       -20.4113
  39   2.0000      -0.732976       -19.9453
  40   2.0000      -0.685440       -18.6518
  41   2.0000      -0.674231       -18.3468
  42   2.0000      -0.656221       -17.8567
  43   2.0000      -0.647858       -17.6291
  44   2.0000      -0.635326       -17.2881
  45   2.0000      -0.610453       -16.6113
  46   2.0000      -0.589085       -16.0298
  47   2.0000      -0.533596       -14.5199
  48   2.0000      -0.524255       -14.2657
  49   2.0000      -0.505938       -13.7673
  50   2.0000      -0.471040       -12.8176
  51   2.0000      -0.468372       -12.7451
  52   2.0000      -0.435716       -11.8564
  53   2.0000      -0.420690       -11.4476
  54   2.0000      -0.413515       -11.2523
  55   2.0000      -0.405683       -11.0392
  56   2.0000      -0.391475       -10.6526
  57   2.0000      -0.389375       -10.5954
  58   2.0000      -0.370918       -10.0932
  59   2.0000      -0.350893        -9.5483
  60   2.0000      -0.347167        -9.4469
  61   2.0000      -0.319092        -8.6829
  62   2.0000      -0.313724        -8.5369
  63   2.0000      -0.307232        -8.3602
  64   2.0000      -0.287154        -7.8139
  65   2.0000      -0.275854        -7.5064
  66   2.0000      -0.258150        -7.0246
  67   2.0000      -0.249184        -6.7806
  68   2.0000      -0.237876        -6.4729
  69   2.0000      -0.232906        -6.3377
  70   2.0000      -0.224999        -6.1225
  71   2.0000      -0.221261        -6.0208
  72   2.0000      -0.191675        -5.2157
  73   2.0000      -0.181470        -4.9380
  74   2.0000      -0.166347        -4.5265
  75   2.0000      -0.162498        -4.4218
  76   2.0000      -0.160279        -4.3614
  77   2.0000      -0.147608        -4.0166
  78   2.0000      -0.141285        -3.8446
  79   2.0000      -0.139089        -3.7848
  80   2.0000      -0.136849        -3.7238
  81   2.0000      -0.123797        -3.3687
  82   0.0000       0.037277         1.0144
  83   0.0000       0.055210         1.5023
  84   0.0000       0.066243         1.8026
  85   0.0000       0.103352         2.8123
  86   0.0000       0.123017         3.3475

MULLIKEN ATOMIC CHARGES
-----------------------
   0 Pd:    0.142762
   1 Cl:   -0.283233
   2 Cl:   -0.534389
   3 Cl:   -0.386467
   4 N :   -0.542908
   5 C :    0.050150
   6 C :   -0.309360
   7 C :   -0.154926
   8 C :    0.387675
   9 C :    0.040930
  10 H :    0.210123
  11 H :    0.278261
  12 H :    0.221738
  13 C :   -0.100411
  14 C :   -0.275551
  15 C :   -0.283074
  16 C :    0.162597
  17 H :    0.197386
  18 H :    0.197154
  19 C :   -0.257195
  20 C :   -0.303331
  21 C :   -0.220741
  22 C :   -0.177774
  23 H :    0.194458
  24 H :    0.204540
  25 H :    0.316001
  26 H :    0.225583
Sum of atomic charges:   -1.0000000

LOEWDIN ATOMIC CHARGES
----------------------
   0 Pd:   -0.860080
   1 Cl:   -0.003582
   2 Cl:   -0.412678
   3 Cl:   -0.123097
   4 N :    0.027637
   5 C :    0.015086
   6 C :   -0.164305
   7 C :   -0.082666
   8 C :    0.080695
   9 C :   -0.048913
  10 H :    0.135130
  11 H :    0.165274
  12 H :    0.142765
  13 C :   -0.002981
  14 C :   -0.136435
  15 C :   -0.118512
  16 C :   -0.032047
  17 H :    0.132417
  18 H :    0.132531
  19 C :   -0.082117
  20 C :   -0.144622
  21 C :   -0.147514
  22 C :   -0.129421
  23 H :    0.127613
  24 H :    0.132287
  25 H :    0.257856
  26 H :    0.139680

  Mayer bond orders larger than 0.100000
B(  0-Pd,  1-Cl) :   0.9938 B(  0-Pd,  2-Cl) :   0.5285 B(  0-Pd,  3-Cl) :   0.8524
B(  0-Pd,  4-N ) :   0.3355 B(  2-Cl, 25-H ) :   0.1632 B(  4-N ,  5-C ) :   1.4903
B(  4-N ,  8-C ) :   1.2012 B(  5-C ,  6-C ) :   1.3078 B(  5-C , 11-H ) :   0.8962
B(  6-C ,  7-C ) :   1.4685 B(  6-C , 12-H ) :   0.9186 B(  7-C ,  9-C ) :   1.2764
B(  7-C , 10-H ) :   0.9285 B(  8-C ,  9-C ) :   1.2250 B(  8-C , 13-C ) :   1.1426
B(  9-C , 14-C ) :   1.1792 B( 13-C , 16-C ) :   1.3223 B( 13-C , 19-C ) :   1.2162
B( 14-C , 15-C ) :   1.6291 B( 14-C , 17-H ) :   0.9292 B( 15-C , 16-C ) :   1.1655
B( 15-C , 18-H ) :   0.9272 B( 16-C , 20-C ) :   1.2465 B( 19-C , 21-C ) :   1.4934
B( 19-C , 25-H ) :   0.7206 B( 20-C , 22-C ) :   1.5217 B( 20-C , 23-H ) :   0.9282
B( 21-C , 22-C ) :   1.3078 B( 21-C , 26-H ) :   0.9154 B( 22-C , 24-H ) :   0.9231

Dispersion correction           -0.024244175
FINAL SINGLE POINT ENERGY     -2061.443845823958
Dispersion correction            ... done

DIPOLE MOMENT
-------------
                                X             Y             Z
Electronic contribution:    -89.43849     -65.57377      34.51630
Nuclear contribution   :     92.79188      69.62360     -34.69140
                        -----------------------------------------
Total Dipole Moment    :      3.35339       4.04983      -0.17511
                        -----------------------------------------
Magnitude (a.u.)       :      5.26089
Magnitude (Debye)      :     13.37213

Rotational constants in cm-1:     0.012002     0.007237     0.005808
Rotational constants in MHz :   359.801100   216.946806   174.128324

                             ****ORCA TERMINATED NORMALLY****
TOTAL RUN TIME: 0 days 0 hours 7 minutes 40 seconds 671 msec
