                         Program Version 5.0.3 -  RELEASE  -
|  1> ! EnGrad PBEh-3c
|  2> %output
|  3> xyzfile=True
|  4> end
|  5> %scf
|  6> maxiter 250
|  7> end
|  8> %output
|  9> Print[P_Hirshfeld] = 1
| 10> end
| 11> % maxcore
| 12> 4000
| 13> *xyz -1 1
| 14> Pd  -2.26913845  -1.76565704   0.79111974
| 15> Cl  -3.73070146  -3.18398151  -0.04895913
| 16> Cl  -1.00857083  -4.14204476   1.60531198
| 17> Cl  -3.76360116  -0.00141562   0.34431467
| 18> N   -0.94155323  -0.19692256   1.44851336
| 19> C   -1.22959846   0.34662900   2.60796305
| 20> C   -0.73140488   1.57792901   3.03590460
| 21> C    0.08327884   2.27687222   2.18209311
| 22> C   -0.06099120   0.42890703   0.62427984
| 23> C    0.43386941   1.72258152   0.94686352
| 24> H    0.46362081   3.25038989   2.46250606
| 25> H   -1.90889338  -0.20675273   3.22625251
| 26> H   -1.02019471   1.96840287   3.99658124
| 27> C    0.34985140  -0.25431650  -0.58887385
| 28> C    1.27195249   2.41987201   0.03777334
| 29> C    1.60651592   1.85138224  -1.15317633
| 30> C    1.17423755   0.52890940  -1.49123544
| 31> H    1.63077392   3.40264087   0.29423433
| 32> H    2.23153868   2.39733643  -1.84371681
| 33> C    0.07423601  -1.77746689  -0.84139687
| 34> C    1.63868719  -0.05300437  -2.69432562
| 35> C    0.48181741  -2.09281176  -2.12436644
| 36> C    1.27842917  -1.32167385  -3.00894545
| 37> H    2.25585510   0.52260209  -3.36092118
| 38> H    1.65247489  -1.78383572  -3.91184207
| 39> H   -0.20958376  -2.81929445  -0.13943149
| 40> H    0.24742154  -3.09228287  -2.39482766
| 41> *
| 42>
| 43>                          ****END OF INPUT****

CARTESIAN COORDINATES (ANGSTROEM)
---------------------------------
  Pd    -2.269138   -1.765657    0.791120
  Cl    -3.730701   -3.183982   -0.048959
  Cl    -1.008571   -4.142045    1.605312
  Cl    -3.763601   -0.001416    0.344315
  N     -0.941553   -0.196923    1.448513
  C     -1.229598    0.346629    2.607963
  C     -0.731405    1.577929    3.035905
  C      0.083279    2.276872    2.182093
  C     -0.060991    0.428907    0.624280
  C      0.433869    1.722582    0.946864
  H      0.463621    3.250390    2.462506
  H     -1.908893   -0.206753    3.226253
  H     -1.020195    1.968403    3.996581
  C      0.349851   -0.254317   -0.588874
  C      1.271952    2.419872    0.037773
  C      1.606516    1.851382   -1.153176
  C      1.174238    0.528909   -1.491235
  H      1.630774    3.402641    0.294234
  H      2.231539    2.397336   -1.843717
  C      0.074236   -1.777467   -0.841397
  C      1.638687   -0.053004   -2.694326
  C      0.481817   -2.092812   -2.124366
  C      1.278429   -1.321674   -3.008945
  H      2.255855    0.522602   -3.360921
  H      1.652475   -1.783836   -3.911842
  H     -0.209584   -2.819294   -0.139431
  H      0.247422   -3.092283   -2.394828

 Total Charge           Charge          ....   -1
 Multiplicity           Mult            ....    1
 Number of Electrons    NEL             ....  164
 Basis Dimension        Dim             ....  313

ORBITAL ENERGIES
----------------

  NO   OCC          E(Eh)            E(eV)
   0   2.0000    -102.092247     -2778.0713
   1   2.0000    -102.085913     -2777.8989
   2   2.0000    -102.053952     -2777.0292
   3   2.0000     -14.595447      -397.1623
   4   2.0000     -10.421319      -283.5785
   5   2.0000     -10.409824      -283.2657
   6   2.0000     -10.399423      -282.9827
   7   2.0000     -10.397282      -282.9244
   8   2.0000     -10.393101      -282.8107
   9   2.0000     -10.389611      -282.7157
  10   2.0000     -10.384008      -282.5632
  11   2.0000     -10.383964      -282.5620
  12   2.0000     -10.382132      -282.5122
  13   2.0000     -10.382090      -282.5110
  14   2.0000     -10.368435      -282.1395
  15   2.0000     -10.366941      -282.0988
  16   2.0000     -10.353095      -281.7220
  17   2.0000      -9.555580      -260.0205
  18   2.0000      -9.551423      -259.9074
  19   2.0000      -9.516156      -258.9478
  20   2.0000      -7.241825      -197.0601
  21   2.0000      -7.238075      -196.9580
  22   2.0000      -7.236479      -196.9146
  23   2.0000      -7.236212      -196.9073
  24   2.0000      -7.231924      -196.7907
  25   2.0000      -7.231378      -196.7758
  26   2.0000      -7.201026      -195.9499
  27   2.0000      -7.198212      -195.8733
  28   2.0000      -7.197537      -195.8549
  29   2.0000      -3.515574       -95.6636
  30   2.0000      -2.166837       -58.9626
  31   2.0000      -2.154931       -58.6387
  32   2.0000      -2.127515       -57.8926
  33   2.0000      -0.991403       -26.9774
  34   2.0000      -0.887426       -24.1481
  35   2.0000      -0.852258       -23.1911
  36   2.0000      -0.820179       -22.3182
  37   2.0000      -0.784295       -21.3418
  38   2.0000      -0.746692       -20.3185
  39   2.0000      -0.735002       -20.0004
  40   2.0000      -0.685325       -18.6487
  41   2.0000      -0.673592       -18.3294
  42   2.0000      -0.654961       -17.8224
  43   2.0000      -0.646494       -17.5920
  44   2.0000      -0.634951       -17.2779
  45   2.0000      -0.613109       -16.6835
  46   2.0000      -0.588791       -16.0218
  47   2.0000      -0.534889       -14.5551
  48   2.0000      -0.524041       -14.2599
  49   2.0000      -0.504619       -13.7314
  50   2.0000      -0.471057       -12.8181
  51   2.0000      -0.470183       -12.7943
  52   2.0000      -0.436121       -11.8675
  53   2.0000      -0.419776       -11.4227
  54   2.0000      -0.412875       -11.2349
  55   2.0000      -0.405699       -11.0396
  56   2.0000      -0.396369       -10.7857
  57   2.0000      -0.390801       -10.6342
  58   2.0000      -0.373540       -10.1645
  59   2.0000      -0.350810        -9.5460
  60   2.0000      -0.347508        -9.4562
  61   2.0000      -0.318294        -8.6612
  62   2.0000      -0.316003        -8.5989
  63   2.0000      -0.306535        -8.3413
  64   2.0000      -0.293236        -7.9793
  65   2.0000      -0.272854        -7.4247
  66   2.0000      -0.257342        -7.0026
  67   2.0000      -0.247843        -6.7442
  68   2.0000      -0.238189        -6.4814
  69   2.0000      -0.233077        -6.3424
  70   2.0000      -0.225550        -6.1375
  71   2.0000      -0.220446        -5.9987
  72   2.0000      -0.190029        -5.1710
  73   2.0000      -0.181565        -4.9406
  74   2.0000      -0.166019        -4.5176
  75   2.0000      -0.162352        -4.4178
  76   2.0000      -0.159656        -4.3445
  77   2.0000      -0.147141        -4.0039
  78   2.0000      -0.140798        -3.8313
  79   2.0000      -0.139215        -3.7882
  80   2.0000      -0.135939        -3.6991
  81   2.0000      -0.123285        -3.3548
  82   0.0000       0.037810         1.0289
  83   0.0000       0.056067         1.5257
  84   0.0000       0.066827         1.8184
  85   0.0000       0.101075         2.7504
  86   0.0000       0.120507         3.2792

MULLIKEN ATOMIC CHARGES
-----------------------
   0 Pd:    0.136008
   1 Cl:   -0.280808
   2 Cl:   -0.533618
   3 Cl:   -0.390282
   4 N :   -0.539164
   5 C :    0.053736
   6 C :   -0.316224
   7 C :   -0.157838
   8 C :    0.363454
   9 C :    0.058188
  10 H :    0.211821
  11 H :    0.278806
  12 H :    0.222569
  13 C :   -0.061719
  14 C :   -0.296394
  15 C :   -0.271697
  16 C :    0.133772
  17 H :    0.199808
  18 H :    0.201092
  19 C :   -0.262162
  20 C :   -0.296195
  21 C :   -0.219156
  22 C :   -0.188025
  23 H :    0.195821
  24 H :    0.203961
  25 H :    0.325987
  26 H :    0.228262
Sum of atomic charges:   -1.0000000

LOEWDIN ATOMIC CHARGES
----------------------
   0 Pd:   -0.865056
   1 Cl:    0.002612
   2 Cl:   -0.407343
   3 Cl:   -0.130319
   4 N :    0.026591
   5 C :    0.015331
   6 C :   -0.163634
   7 C :   -0.083552
   8 C :    0.082709
   9 C :   -0.050919
  10 H :    0.135810
  11 H :    0.163867
  12 H :    0.141908
  13 C :    0.000802
  14 C :   -0.136141
  15 C :   -0.121067
  16 C :   -0.031089
  17 H :    0.132228
  18 H :    0.134042
  19 C :   -0.082916
  20 C :   -0.143082
  21 C :   -0.139437
  22 C :   -0.131340
  23 H :    0.127878
  24 H :    0.131622
  25 H :    0.250775
  26 H :    0.139717

  Mayer bond orders larger than 0.100000
B(  0-Pd,  1-Cl) :   0.9979 B(  0-Pd,  2-Cl) :   0.5455 B(  0-Pd,  3-Cl) :   0.8426
B(  0-Pd,  4-N ) :   0.3317 B(  2-Cl, 25-H ) :   0.1528 B(  4-N ,  5-C ) :   1.4952
B(  4-N ,  8-C ) :   1.2039 B(  5-C ,  6-C ) :   1.3049 B(  5-C , 11-H ) :   0.8955
B(  6-C ,  7-C ) :   1.4749 B(  6-C , 12-H ) :   0.9185 B(  7-C ,  9-C ) :   1.2688
B(  7-C , 10-H ) :   0.9285 B(  8-C ,  9-C ) :   1.2163 B(  8-C , 13-C ) :   1.1333
B(  9-C , 14-C ) :   1.1833 B( 13-C , 16-C ) :   1.3243 B( 13-C , 19-C ) :   1.2023
B( 14-C , 15-C ) :   1.6204 B( 14-C , 17-H ) :   0.9285 B( 15-C , 16-C ) :   1.1716
B( 15-C , 18-H ) :   0.9269 B( 16-C , 20-C ) :   1.2330 B( 19-C , 21-C ) :   1.5140
B( 19-C , 25-H ) :   0.7357 B( 20-C , 22-C ) :   1.5459 B( 20-C , 23-H ) :   0.9279
B( 21-C , 22-C ) :   1.2879 B( 21-C , 26-H ) :   0.9145 B( 22-C , 24-H ) :   0.9239

Dispersion correction           -0.024212622
FINAL SINGLE POINT ENERGY     -2061.459196162828
Dispersion correction            ... done

DIPOLE MOMENT
-------------
                                X             Y             Z
Electronic contribution:    -88.78764     -66.55547      34.23880
Nuclear contribution   :     92.14594      70.61089     -34.43332
                        -----------------------------------------
Total Dipole Moment    :      3.35831       4.05542      -0.19452
                        -----------------------------------------
Magnitude (a.u.)       :      5.26901
Magnitude (Debye)      :     13.39276

Rotational constants in cm-1:     0.012002     0.007264     0.005802
Rotational constants in MHz :   359.810219   217.766756   173.932656

                             ****ORCA TERMINATED NORMALLY****
TOTAL RUN TIME: 0 days 0 hours 11 minutes 24 seconds 941 msec
