                         Program Version 5.0.3 -  RELEASE  -
|  1> ! EnGrad PBEh-3c
|  2> %output
|  3> xyzfile=True
|  4> end
|  5> %scf
|  6> maxiter 250
|  7> end
|  8> %output
|  9> Print[P_Hirshfeld] = 1
| 10> end
| 11> % maxcore
| 12> 4000
| 13> *xyz -1 1
| 14> Pd  -2.26273867  -1.76105440   0.79200914
| 15> Cl  -3.72689339  -3.19264822  -0.05620207
| 16> Cl  -0.99837276  -4.14281271   1.59076139
| 17> Cl  -3.76746652  -0.01439535   0.36235705
| 18> N   -0.93823793  -0.19607753   1.44698341
| 19> C   -1.23393174   0.34889774   2.60701620
| 20> C   -0.73162898   1.58353991   3.03434114
| 21> C    0.08306673   2.28072126   2.18275167
| 22> C   -0.06282025   0.42631083   0.61906087
| 23> C    0.43257597   1.71984217   0.94774848
| 24> H    0.46444086   3.25309140   2.46163274
| 25> H   -1.91318444  -0.20288198   3.22747094
| 26> H   -1.02242061   1.97341351   3.99527704
| 27> C    0.35284549  -0.27585443  -0.58639544
| 28> C    1.27504148   2.41830279   0.03551214
| 29> C    1.60600411   1.84887147  -1.14934397
| 30> C    1.16707129   0.51840589  -1.48122882
| 31> H    1.63524705   3.40387733   0.29570876
| 32> H    2.23663457   2.39520801  -1.84278335
| 33> C    0.08094614  -1.74425377  -0.84507867
| 34> C    1.63700277  -0.05178929  -2.69049713
| 35> C    0.47692175  -2.09706672  -2.11591934
| 36> C    1.27148523  -1.32399762  -3.00617913
| 37> H    2.26124819   0.52255603  -3.36030054
| 38> H    1.64862027  -1.78384994  -3.91169368
| 39> H   -0.21050182  -2.80684081  -0.14686393
| 40> H    0.23937334  -3.09683423  -2.40369446
| 41> *
| 42>
| 43>                          ****END OF INPUT****

CARTESIAN COORDINATES (ANGSTROEM)
---------------------------------
  Pd    -2.262739   -1.761054    0.792009
  Cl    -3.726893   -3.192648   -0.056202
  Cl    -0.998373   -4.142813    1.590761
  Cl    -3.767467   -0.014395    0.362357
  N     -0.938238   -0.196078    1.446983
  C     -1.233932    0.348898    2.607016
  C     -0.731629    1.583540    3.034341
  C      0.083067    2.280721    2.182752
  C     -0.062820    0.426311    0.619061
  C      0.432576    1.719842    0.947748
  H      0.464441    3.253091    2.461633
  H     -1.913184   -0.202882    3.227471
  H     -1.022421    1.973414    3.995277
  C      0.352845   -0.275854   -0.586395
  C      1.275041    2.418303    0.035512
  C      1.606004    1.848871   -1.149344
  C      1.167071    0.518406   -1.481229
  H      1.635247    3.403877    0.295709
  H      2.236635    2.395208   -1.842783
  C      0.080946   -1.744254   -0.845079
  C      1.637003   -0.051789   -2.690497
  C      0.476922   -2.097067   -2.115919
  C      1.271485   -1.323998   -3.006179
  H      2.261248    0.522556   -3.360301
  H      1.648620   -1.783850   -3.911694
  H     -0.210502   -2.806841   -0.146864
  H      0.239373   -3.096834   -2.403694

 Total Charge           Charge          ....   -1
 Multiplicity           Mult            ....    1
 Number of Electrons    NEL             ....  164
 Basis Dimension        Dim             ....  313

ORBITAL ENERGIES
----------------

  NO   OCC          E(Eh)            E(eV)
   0   2.0000    -102.092836     -2778.0873
   1   2.0000    -102.084698     -2777.8659
   2   2.0000    -102.053271     -2777.0107
   3   2.0000     -14.595925      -397.1753
   4   2.0000     -10.422220      -283.6030
   5   2.0000     -10.410749      -283.2909
   6   2.0000     -10.397391      -282.9274
   7   2.0000     -10.396607      -282.9060
   8   2.0000     -10.394069      -282.8370
   9   2.0000     -10.389637      -282.7164
  10   2.0000     -10.384481      -282.5761
  11   2.0000     -10.382539      -282.5232
  12   2.0000     -10.382259      -282.5156
  13   2.0000     -10.379587      -282.4429
  14   2.0000     -10.368629      -282.1448
  15   2.0000     -10.367847      -282.1235
  16   2.0000     -10.354230      -281.7529
  17   2.0000      -9.556241      -260.0385
  18   2.0000      -9.550005      -259.8688
  19   2.0000      -9.515473      -258.9292
  20   2.0000      -7.242488      -197.0781
  21   2.0000      -7.237137      -196.9325
  22   2.0000      -7.236860      -196.9250
  23   2.0000      -7.236648      -196.9192
  24   2.0000      -7.230536      -196.7529
  25   2.0000      -7.229993      -196.7381
  26   2.0000      -7.200332      -195.9310
  27   2.0000      -7.197544      -195.8551
  28   2.0000      -7.196851      -195.8363
  29   2.0000      -3.515288       -95.6558
  30   2.0000      -2.166249       -58.9466
  31   2.0000      -2.154915       -58.6382
  32   2.0000      -2.127163       -57.8831
  33   2.0000      -0.991397       -26.9773
  34   2.0000      -0.887899       -24.1610
  35   2.0000      -0.852944       -23.2098
  36   2.0000      -0.820280       -22.3210
  37   2.0000      -0.784974       -21.3602
  38   2.0000      -0.747220       -20.3329
  39   2.0000      -0.736305       -20.0359
  40   2.0000      -0.684621       -18.6295
  41   2.0000      -0.673182       -18.3182
  42   2.0000      -0.653817       -17.7913
  43   2.0000      -0.647089       -17.6082
  44   2.0000      -0.634242       -17.2586
  45   2.0000      -0.614569       -16.7233
  46   2.0000      -0.587835       -15.9958
  47   2.0000      -0.535595       -14.5743
  48   2.0000      -0.524566       -14.2742
  49   2.0000      -0.504260       -13.7216
  50   2.0000      -0.470382       -12.7997
  51   2.0000      -0.469892       -12.7864
  52   2.0000      -0.437130       -11.8949
  53   2.0000      -0.419808       -11.4236
  54   2.0000      -0.413185       -11.2433
  55   2.0000      -0.405701       -11.0397
  56   2.0000      -0.395703       -10.7676
  57   2.0000      -0.392289       -10.6747
  58   2.0000      -0.373352       -10.1594
  59   2.0000      -0.349921        -9.5218
  60   2.0000      -0.348170        -9.4742
  61   2.0000      -0.319703        -8.6996
  62   2.0000      -0.314124        -8.5478
  63   2.0000      -0.305807        -8.3214
  64   2.0000      -0.295702        -8.0465
  65   2.0000      -0.272950        -7.4273
  66   2.0000      -0.257164        -6.9978
  67   2.0000      -0.248884        -6.7725
  68   2.0000      -0.237110        -6.4521
  69   2.0000      -0.232589        -6.3291
  70   2.0000      -0.223965        -6.0944
  71   2.0000      -0.220711        -6.0059
  72   2.0000      -0.191233        -5.2037
  73   2.0000      -0.181567        -4.9407
  74   2.0000      -0.165552        -4.5049
  75   2.0000      -0.162239        -4.4147
  76   2.0000      -0.159596        -4.3428
  77   2.0000      -0.147192        -4.0053
  78   2.0000      -0.140555        -3.8247
  79   2.0000      -0.138386        -3.7657
  80   2.0000      -0.135334        -3.6826
  81   2.0000      -0.122516        -3.3338
  82   0.0000       0.039097         1.0639
  83   0.0000       0.056265         1.5310
  84   0.0000       0.067249         1.8299
  85   0.0000       0.099407         2.7050
  86   0.0000       0.122456         3.3322

MULLIKEN ATOMIC CHARGES
-----------------------
   0 Pd:    0.137364
   1 Cl:   -0.285710
   2 Cl:   -0.533649
   3 Cl:   -0.387454
   4 N :   -0.542525
   5 C :    0.053669
   6 C :   -0.317613
   7 C :   -0.154103
   8 C :    0.356747
   9 C :    0.052853
  10 H :    0.212529
  11 H :    0.279872
  12 H :    0.222368
  13 C :   -0.030400
  14 C :   -0.297769
  15 C :   -0.265199
  16 C :    0.119383
  17 H :    0.199406
  18 H :    0.201013
  19 C :   -0.261758
  20 C :   -0.298730
  21 C :   -0.217882
  22 C :   -0.194248
  23 H :    0.196170
  24 H :    0.202693
  25 H :    0.321922
  26 H :    0.231052
Sum of atomic charges:   -1.0000000

LOEWDIN ATOMIC CHARGES
----------------------
   0 Pd:   -0.863904
   1 Cl:   -0.006985
   2 Cl:   -0.407920
   3 Cl:   -0.124373
   4 N :    0.027148
   5 C :    0.016135
   6 C :   -0.162858
   7 C :   -0.085266
   8 C :    0.085643
   9 C :   -0.050038
  10 H :    0.136245
  11 H :    0.164423
  12 H :    0.141662
  13 C :   -0.004422
  14 C :   -0.136623
  15 C :   -0.120981
  16 C :   -0.028602
  17 H :    0.131862
  18 H :    0.134355
  19 C :   -0.087347
  20 C :   -0.143157
  21 C :   -0.134059
  22 C :   -0.132012
  23 H :    0.128054
  24 H :    0.130553
  25 H :    0.252118
  26 H :    0.140348

  Mayer bond orders larger than 0.100000
B(  0-Pd,  1-Cl) :   0.9911 B(  0-Pd,  2-Cl) :   0.5433 B(  0-Pd,  3-Cl) :   0.8475
B(  0-Pd,  4-N ) :   0.3348 B(  2-Cl, 25-H ) :   0.1540 B(  4-N ,  5-C ) :   1.4885
B(  4-N ,  8-C ) :   1.2082 B(  5-C ,  6-C ) :   1.3082 B(  5-C , 11-H ) :   0.8950
B(  6-C ,  7-C ) :   1.4717 B(  6-C , 12-H ) :   0.9184 B(  7-C ,  9-C ) :   1.2716
B(  7-C , 10-H ) :   0.9281 B(  8-C ,  9-C ) :   1.2153 B(  8-C , 13-C ) :   1.1187
B(  9-C , 14-C ) :   1.1766 B( 13-C , 16-C ) :   1.3209 B( 13-C , 19-C ) :   1.2183
B( 14-C , 15-C ) :   1.6287 B( 14-C , 17-H ) :   0.9283 B( 15-C , 16-C ) :   1.1615
B( 15-C , 18-H ) :   0.9272 B( 16-C , 20-C ) :   1.2436 B( 19-C , 21-C ) :   1.4997
B( 19-C , 25-H ) :   0.7354 B( 20-C , 22-C ) :   1.5346 B( 20-C , 23-H ) :   0.9283
B( 21-C , 22-C ) :   1.3016 B( 21-C , 26-H ) :   0.9137 B( 22-C , 24-H ) :   0.9240

Dispersion correction           -0.024248371
FINAL SINGLE POINT ENERGY     -2061.465982590551
Dispersion correction            ... done

DIPOLE MOMENT
-------------
                                X             Y             Z
Electronic contribution:    -88.48026     -66.21417      34.27941
Nuclear contribution   :     91.84429      70.30566     -34.47575
                        -----------------------------------------
Total Dipole Moment    :      3.36403       4.09148      -0.19634
                        -----------------------------------------
Magnitude (a.u.)       :      5.30051
Magnitude (Debye)      :     13.47284

Rotational constants in cm-1:     0.012017     0.007286     0.005807
Rotational constants in MHz :   360.261917   218.435685   174.091989

                             ****ORCA TERMINATED NORMALLY****
TOTAL RUN TIME: 0 days 0 hours 11 minutes 25 seconds 682 msec
