                         Program Version 5.0.3 -  RELEASE  -
|  1> ! EnGrad PBEh-3c
|  2> %output
|  3> xyzfile=True
|  4> end
|  5> %scf
|  6> maxiter 250
|  7> end
|  8> %output
|  9> Print[P_Hirshfeld] = 1
| 10> end
| 11> % maxcore
| 12> 4000
| 13> *xyz -1 1
| 14> Pd  -2.23128334  -1.78281604   0.78421865
| 15> Cl  -3.68998687  -3.21972661  -0.08644734
| 16> Cl  -0.93922715  -4.14548297   1.50851244
| 17> Cl  -3.79722087  -0.07152980   0.45774571
| 18> N   -0.94137906  -0.18784173   1.44753460
| 19> C   -1.24970565   0.37077407   2.60208405
| 20> C   -0.73821453   1.60450902   3.02656872
| 21> C    0.08233677   2.29574189   2.18087357
| 22> C   -0.06658275   0.41779469   0.61466042
| 23> C    0.43304826   1.71957563   0.94698321
| 24> H    0.47021535   3.26821507   2.45543488
| 25> H   -1.93145079  -0.18057664   3.22905486
| 26> H   -1.03497397   2.00075953   3.98659893
| 27> C    0.35703910  -0.33011483  -0.56923338
| 28> C    1.28887408   2.41618787   0.03499390
| 29> C    1.61111035   1.83675506  -1.13577318
| 30> C    1.15351959   0.49003799  -1.45967040
| 31> H    1.65805490   3.40578093   0.30231301
| 32> H    2.26152169   2.38026583  -1.83479900
| 33> C    0.09595102  -1.72542321  -0.82563385
| 34> C    1.63402270  -0.05148989  -2.67681270
| 35> C    0.45590198  -2.10345527  -2.10757746
| 36> C    1.24001257  -1.32462328  -2.99945874
| 37> H    2.28398865   0.51984546  -3.34954047
| 38> H    1.63009163  -1.78398957  -3.90742845
| 39> H   -0.22727654  -2.71820691  -0.18897309
| 40> H    0.19189097  -3.09847624  -2.43086056
| 41> *
| 42>
| 43>                          ****END OF INPUT****

CARTESIAN COORDINATES (ANGSTROEM)
---------------------------------
  Pd    -2.231283   -1.782816    0.784219
  Cl    -3.689987   -3.219727   -0.086447
  Cl    -0.939227   -4.145483    1.508512
  Cl    -3.797221   -0.071530    0.457746
  N     -0.941379   -0.187842    1.447535
  C     -1.249706    0.370774    2.602084
  C     -0.738215    1.604509    3.026569
  C      0.082337    2.295742    2.180874
  C     -0.066583    0.417795    0.614660
  C      0.433048    1.719576    0.946983
  H      0.470215    3.268215    2.455435
  H     -1.931451   -0.180577    3.229055
  H     -1.034974    2.000760    3.986599
  C      0.357039   -0.330115   -0.569233
  C      1.288874    2.416188    0.034994
  C      1.611110    1.836755   -1.135773
  C      1.153520    0.490038   -1.459670
  H      1.658055    3.405781    0.302313
  H      2.261522    2.380266   -1.834799
  C      0.095951   -1.725423   -0.825634
  C      1.634023   -0.051490   -2.676813
  C      0.455902   -2.103455   -2.107577
  C      1.240013   -1.324623   -2.999459
  H      2.283989    0.519845   -3.349540
  H      1.630092   -1.783990   -3.907428
  H     -0.227277   -2.718207   -0.188973
  H      0.191891   -3.098476   -2.430861

 Total Charge           Charge          ....   -1
 Multiplicity           Mult            ....    1
 Number of Electrons    NEL             ....  164
 Basis Dimension        Dim             ....  313

ORBITAL ENERGIES
----------------

  NO   OCC          E(Eh)            E(eV)
   0   2.0000    -102.092397     -2778.0754
   1   2.0000    -102.083851     -2777.8428
   2   2.0000    -102.051817     -2776.9711
   3   2.0000     -14.595675      -397.1685
   4   2.0000     -10.423890      -283.6485
   5   2.0000     -10.410981      -283.2972
   6   2.0000     -10.397479      -282.9298
   7   2.0000     -10.395993      -282.8894
   8   2.0000     -10.393528      -282.8223
   9   2.0000     -10.390786      -282.7477
  10   2.0000     -10.386036      -282.6184
  11   2.0000     -10.382460      -282.5211
  12   2.0000     -10.382215      -282.5144
  13   2.0000     -10.371207      -282.2149
  14   2.0000     -10.370882      -282.2060
  15   2.0000     -10.368952      -282.1535
  16   2.0000     -10.358426      -281.8671
  17   2.0000      -9.555837      -260.0276
  18   2.0000      -9.549013      -259.8419
  19   2.0000      -9.514083      -258.8914
  20   2.0000      -7.242061      -197.0665
  21   2.0000      -7.236755      -196.9221
  22   2.0000      -7.236455      -196.9139
  23   2.0000      -7.235663      -196.8924
  24   2.0000      -7.229567      -196.7265
  25   2.0000      -7.229008      -196.7113
  26   2.0000      -7.199041      -195.8959
  27   2.0000      -7.196044      -195.8143
  28   2.0000      -7.195468      -195.7986
  29   2.0000      -3.514545       -95.6356
  30   2.0000      -2.165189       -58.9178
  31   2.0000      -2.154383       -58.6237
  32   2.0000      -2.126524       -57.8657
  33   2.0000      -0.990739       -26.9594
  34   2.0000      -0.888242       -24.1703
  35   2.0000      -0.853858       -23.2347
  36   2.0000      -0.820236       -22.3198
  37   2.0000      -0.786009       -21.3884
  38   2.0000      -0.747582       -20.3427
  39   2.0000      -0.738521       -20.0962
  40   2.0000      -0.684047       -18.6139
  41   2.0000      -0.672224       -18.2921
  42   2.0000      -0.651387       -17.7251
  43   2.0000      -0.647239       -17.6123
  44   2.0000      -0.633409       -17.2359
  45   2.0000      -0.615709       -16.7543
  46   2.0000      -0.588047       -16.0016
  47   2.0000      -0.536821       -14.6076
  48   2.0000      -0.524575       -14.2744
  49   2.0000      -0.503403       -13.6983
  50   2.0000      -0.470347       -12.7988
  51   2.0000      -0.468313       -12.7435
  52   2.0000      -0.437775       -11.9125
  53   2.0000      -0.420900       -11.4533
  54   2.0000      -0.412920       -11.2361
  55   2.0000      -0.408186       -11.1073
  56   2.0000      -0.398008       -10.8303
  57   2.0000      -0.392937       -10.6923
  58   2.0000      -0.374852       -10.2002
  59   2.0000      -0.349258        -9.5038
  60   2.0000      -0.348583        -9.4854
  61   2.0000      -0.321967        -8.7612
  62   2.0000      -0.315503        -8.5853
  63   2.0000      -0.305312        -8.3080
  64   2.0000      -0.298432        -8.1207
  65   2.0000      -0.272527        -7.4158
  66   2.0000      -0.257483        -7.0065
  67   2.0000      -0.249557        -6.7908
  68   2.0000      -0.236229        -6.4281
  69   2.0000      -0.232260        -6.3201
  70   2.0000      -0.223014        -6.0685
  71   2.0000      -0.220461        -5.9991
  72   2.0000      -0.192587        -5.2406
  73   2.0000      -0.181264        -4.9325
  74   2.0000      -0.165190        -4.4950
  75   2.0000      -0.162331        -4.4172
  76   2.0000      -0.159063        -4.3283
  77   2.0000      -0.146844        -3.9958
  78   2.0000      -0.140218        -3.8155
  79   2.0000      -0.137680        -3.7465
  80   2.0000      -0.133857        -3.6424
  81   2.0000      -0.121219        -3.2985
  82   0.0000       0.041820         1.1380
  83   0.0000       0.055413         1.5079
  84   0.0000       0.068141         1.8542
  85   0.0000       0.096203         2.6178
  86   0.0000       0.125472         3.4143

MULLIKEN ATOMIC CHARGES
-----------------------
   0 Pd:    0.131083
   1 Cl:   -0.289254
   2 Cl:   -0.532508
   3 Cl:   -0.387259
   4 N :   -0.542772
   5 C :    0.052531
   6 C :   -0.318089
   7 C :   -0.150217
   8 C :    0.336235
   9 C :    0.041066
  10 H :    0.213263
  11 H :    0.279741
  12 H :    0.221710
  13 C :    0.030145
  14 C :   -0.295403
  15 C :   -0.255593
  16 C :    0.094363
  17 H :    0.199137
  18 H :    0.199943
  19 C :   -0.260915
  20 C :   -0.300185
  21 C :   -0.225513
  22 C :   -0.202022
  23 H :    0.197495
  24 H :    0.200531
  25 H :    0.325772
  26 H :    0.236715
Sum of atomic charges:   -1.0000000

LOEWDIN ATOMIC CHARGES
----------------------
   0 Pd:   -0.866561
   1 Cl:   -0.012861
   2 Cl:   -0.401562
   3 Cl:   -0.123923
   4 N :    0.026426
   5 C :    0.014841
   6 C :   -0.162460
   7 C :   -0.088772
   8 C :    0.088923
   9 C :   -0.048309
  10 H :    0.136720
  11 H :    0.164860
  12 H :    0.141265
  13 C :   -0.010444
  14 C :   -0.139143
  15 C :   -0.120827
  16 C :   -0.024574
  17 H :    0.131517
  18 H :    0.134557
  19 C :   -0.085913
  20 C :   -0.142032
  21 C :   -0.120695
  22 C :   -0.134222
  23 H :    0.129046
  24 H :    0.129174
  25 H :    0.241861
  26 H :    0.143109

  Mayer bond orders larger than 0.100000
B(  0-Pd,  1-Cl) :   0.9862 B(  0-Pd,  2-Cl) :   0.5583 B(  0-Pd,  3-Cl) :   0.8421
B(  0-Pd,  4-N ) :   0.3351 B(  2-Cl, 25-H ) :   0.1446 B(  4-N ,  5-C ) :   1.4766
B(  4-N ,  8-C ) :   1.2212 B(  5-C ,  6-C ) :   1.3168 B(  5-C , 11-H ) :   0.8949
B(  6-C ,  7-C ) :   1.4621 B(  6-C , 12-H ) :   0.9181 B(  7-C ,  9-C ) :   1.2793
B(  7-C , 10-H ) :   0.9274 B(  8-C ,  9-C ) :   1.2111 B(  8-C , 13-C ) :   1.0891
B(  9-C , 14-C ) :   1.1661 B( 13-C , 16-C ) :   1.3039 B( 13-C , 19-C ) :   1.2264
B( 14-C , 15-C ) :   1.6412 B( 14-C , 17-H ) :   0.9275 B( 15-C , 16-C ) :   1.1425
B( 15-C , 18-H ) :   0.9278 B( 16-C , 20-C ) :   1.2706 B( 19-C , 21-C ) :   1.4691
B( 19-C , 25-H ) :   0.7523 B( 20-C , 22-C ) :   1.5011 B( 20-C , 23-H ) :   0.9285
B( 21-C , 22-C ) :   1.3325 B( 21-C , 26-H ) :   0.9120 B( 22-C , 24-H ) :   0.9250

Dispersion correction           -0.024299617
FINAL SINGLE POINT ENERGY     -2061.480249268041
Dispersion correction            ... done

DIPOLE MOMENT
-------------
                                X             Y             Z
Electronic contribution:    -87.05733     -66.98262      33.84164
Nuclear contribution   :     90.41022      71.11400     -34.06684
                        -----------------------------------------
Total Dipole Moment    :      3.35289       4.13138      -0.22520
                        -----------------------------------------
Magnitude (a.u.)       :      5.32549
Magnitude (Debye)      :     13.53633

Rotational constants in cm-1:     0.012048     0.007373     0.005809
Rotational constants in MHz :   361.197040   221.024673   174.161342

                             ****ORCA TERMINATED NORMALLY****
TOTAL RUN TIME: 0 days 0 hours 11 minutes 53 seconds 740 msec
