                         Program Version 5.0.3 -  RELEASE  -
|  1> ! EnGrad PBEh-3c
|  2> %output
|  3> xyzfile=True
|  4> end
|  5> %scf
|  6> maxiter 250
|  7> end
|  8> %output
|  9> Print[P_Hirshfeld] = 1
| 10> end
| 11> % maxcore
| 12> 4000
| 13> *xyz -1 1
| 14> Pd  -2.21434594  -1.78145902   0.78011717
| 15> Cl  -3.66954541  -3.24018392  -0.10760433
| 16> Cl  -0.89904845  -4.14449070   1.45235997
| 17> Cl  -3.81309218  -0.11103228   0.51984434
| 18> N   -0.94074005  -0.18398882   1.44875121
| 19> C   -1.25714615   0.38526651   2.59816759
| 20> C   -0.74700318   1.61331267   3.02260230
| 21> C    0.08243396   2.30087727   2.17402218
| 22> C   -0.06816105   0.40956704   0.61412537
| 23> C    0.43303423   1.71503351   0.94415064
| 24> H    0.47389604   3.27796755   2.45140102
| 25> H   -1.94458031  -0.16641535   3.23014937
| 26> H   -1.04233586   2.01740863   3.98148108
| 27> C    0.36812649  -0.33406113  -0.55448391
| 28> C    1.29507051   2.41472044   0.03940469
| 29> C    1.61277507   1.82282209  -1.13075013
| 30> C    1.15498372   0.47399605  -1.45284777
| 31> H    1.67100582   3.40398290   0.30539328
| 32> H    2.27214871   2.36561378  -1.82719310
| 33> C    0.09811131  -1.69927718  -0.83232546
| 34> C    1.62595624  -0.05434734  -2.66377490
| 35> C    0.45032384  -2.10350063  -2.10932855
| 36> C    1.22347374  -1.33157075  -2.99244394
| 37> H    2.29339459   0.51463266  -3.33788606
| 38> H    1.61449183  -1.78337258  -3.90374364
| 39> H   -0.23678739  -2.68074875  -0.19554349
| 40> H    0.16361918  -3.09907795  -2.44606560
| 41> *
| 42>
| 43>                          ****END OF INPUT****

CARTESIAN COORDINATES (ANGSTROEM)
---------------------------------
  Pd    -2.214346   -1.781459    0.780117
  Cl    -3.669545   -3.240184   -0.107604
  Cl    -0.899048   -4.144491    1.452360
  Cl    -3.813092   -0.111032    0.519844
  N     -0.940740   -0.183989    1.448751
  C     -1.257146    0.385267    2.598168
  C     -0.747003    1.613313    3.022602
  C      0.082434    2.300877    2.174022
  C     -0.068161    0.409567    0.614125
  C      0.433034    1.715034    0.944151
  H      0.473896    3.277968    2.451401
  H     -1.944580   -0.166415    3.230149
  H     -1.042336    2.017409    3.981481
  C      0.368126   -0.334061   -0.554484
  C      1.295071    2.414720    0.039405
  C      1.612775    1.822822   -1.130750
  C      1.154984    0.473996   -1.452848
  H      1.671006    3.403983    0.305393
  H      2.272149    2.365614   -1.827193
  C      0.098111   -1.699277   -0.832325
  C      1.625956   -0.054347   -2.663775
  C      0.450324   -2.103501   -2.109329
  C      1.223474   -1.331571   -2.992444
  H      2.293395    0.514633   -3.337886
  H      1.614492   -1.783373   -3.903744
  H     -0.236787   -2.680749   -0.195543
  H      0.163619   -3.099078   -2.446066

 Total Charge           Charge          ....   -1
 Multiplicity           Mult            ....    1
 Number of Electrons    NEL             ....  164
 Basis Dimension        Dim             ....  313

ORBITAL ENERGIES
----------------

  NO   OCC          E(Eh)            E(eV)
   0   2.0000    -102.093522     -2778.1060
   1   2.0000    -102.082508     -2777.8063
   2   2.0000    -102.050883     -2776.9457
   3   2.0000     -14.596085      -397.1797
   4   2.0000     -10.424108      -283.6544
   5   2.0000     -10.411204      -283.3033
   6   2.0000     -10.398484      -282.9571
   7   2.0000     -10.396436      -282.9014
   8   2.0000     -10.389495      -282.7125
   9   2.0000     -10.388894      -282.6962
  10   2.0000     -10.386271      -282.6248
  11   2.0000     -10.382720      -282.5282
  12   2.0000     -10.382626      -282.5256
  13   2.0000     -10.371498      -282.2228
  14   2.0000     -10.367923      -282.1255
  15   2.0000     -10.366987      -282.1001
  16   2.0000     -10.358224      -281.8616
  17   2.0000      -9.557104      -260.0620
  18   2.0000      -9.547403      -259.7981
  19   2.0000      -9.513200      -258.8673
  20   2.0000      -7.243350      -197.1016
  21   2.0000      -7.237993      -196.9558
  22   2.0000      -7.237687      -196.9475
  23   2.0000      -7.234046      -196.8484
  24   2.0000      -7.227996      -196.6838
  25   2.0000      -7.227436      -196.6685
  26   2.0000      -7.198150      -195.8716
  27   2.0000      -7.195164      -195.7904
  28   2.0000      -7.194577      -195.7744
  29   2.0000      -3.514533       -95.6353
  30   2.0000      -2.164743       -58.9056
  31   2.0000      -2.154810       -58.6354
  32   2.0000      -2.126435       -57.8633
  33   2.0000      -0.992187       -26.9988
  34   2.0000      -0.890738       -24.2382
  35   2.0000      -0.854554       -23.2536
  36   2.0000      -0.821006       -22.3407
  37   2.0000      -0.787002       -21.4154
  38   2.0000      -0.750004       -20.4087
  39   2.0000      -0.737907       -20.0795
  40   2.0000      -0.684461       -18.6251
  41   2.0000      -0.671180       -18.2637
  42   2.0000      -0.652028       -17.7426
  43   2.0000      -0.647835       -17.6285
  44   2.0000      -0.632899       -17.2221
  45   2.0000      -0.616285       -16.7700
  46   2.0000      -0.588374       -16.0105
  47   2.0000      -0.537470       -14.6253
  48   2.0000      -0.524998       -14.2859
  49   2.0000      -0.503205       -13.6929
  50   2.0000      -0.470402       -12.8003
  51   2.0000      -0.468146       -12.7389
  52   2.0000      -0.437830       -11.9140
  53   2.0000      -0.421758       -11.4766
  54   2.0000      -0.413351       -11.2478
  55   2.0000      -0.408234       -11.1086
  56   2.0000      -0.398696       -10.8491
  57   2.0000      -0.393216       -10.7000
  58   2.0000      -0.375636       -10.2216
  59   2.0000      -0.351216        -9.5571
  60   2.0000      -0.348055        -9.4711
  61   2.0000      -0.321444        -8.7469
  62   2.0000      -0.315414        -8.5828
  63   2.0000      -0.305957        -8.3255
  64   2.0000      -0.298679        -8.1275
  65   2.0000      -0.272568        -7.4169
  66   2.0000      -0.258057        -7.0221
  67   2.0000      -0.251495        -6.8435
  68   2.0000      -0.235826        -6.4171
  69   2.0000      -0.230927        -6.2839
  70   2.0000      -0.223212        -6.0739
  71   2.0000      -0.219563        -5.9746
  72   2.0000      -0.193882        -5.2758
  73   2.0000      -0.180706        -4.9173
  74   2.0000      -0.164838        -4.4855
  75   2.0000      -0.162553        -4.4233
  76   2.0000      -0.159082        -4.3288
  77   2.0000      -0.146844        -3.9958
  78   2.0000      -0.140137        -3.8133
  79   2.0000      -0.136514        -3.7147
  80   2.0000      -0.133204        -3.6247
  81   2.0000      -0.120209        -3.2710
  82   0.0000       0.041765         1.1365
  83   0.0000       0.054530         1.4838
  84   0.0000       0.068488         1.8637
  85   0.0000       0.096760         2.6330
  86   0.0000       0.127420         3.4673

MULLIKEN ATOMIC CHARGES
-----------------------
   0 Pd:    0.132634
   1 Cl:   -0.295524
   2 Cl:   -0.532084
   3 Cl:   -0.382232
   4 N :   -0.546219
   5 C :    0.050108
   6 C :   -0.314524
   7 C :   -0.155272
   8 C :    0.343173
   9 C :    0.029172
  10 H :    0.213319
  11 H :    0.279186
  12 H :    0.222094
  13 C :    0.058008
  14 C :   -0.290271
  15 C :   -0.266015
  16 C :    0.103272
  17 H :    0.200234
  18 H :    0.198505
  19 C :   -0.271043
  20 C :   -0.305300
  21 C :   -0.225798
  22 C :   -0.204646
  23 H :    0.196912
  24 H :    0.200072
  25 H :    0.322766
  26 H :    0.239474
Sum of atomic charges:   -1.0000000

LOEWDIN ATOMIC CHARGES
----------------------
   0 Pd:   -0.865430
   1 Cl:   -0.025406
   2 Cl:   -0.401109
   3 Cl:   -0.113835
   4 N :    0.027337
   5 C :    0.013600
   6 C :   -0.162933
   7 C :   -0.088950
   8 C :    0.089588
   9 C :   -0.047226
  10 H :    0.136750
  11 H :    0.165466
  12 H :    0.141380
  13 C :   -0.016435
  14 C :   -0.140475
  15 C :   -0.119042
  16 C :   -0.024207
  17 H :    0.132180
  18 H :    0.133677
  19 C :   -0.084266
  20 C :   -0.141666
  21 C :   -0.118993
  22 C :   -0.133043
  23 H :    0.129405
  24 H :    0.128613
  25 H :    0.239714
  26 H :    0.145307

  Mayer bond orders larger than 0.100000
B(  0-Pd,  1-Cl) :   0.9768 B(  0-Pd,  2-Cl) :   0.5546 B(  0-Pd,  3-Cl) :   0.8480
B(  0-Pd,  4-N ) :   0.3393 B(  2-Cl, 25-H ) :   0.1483 B(  4-N ,  5-C ) :   1.4653
B(  4-N ,  8-C ) :   1.2268 B(  5-C ,  6-C ) :   1.3269 B(  5-C , 11-H ) :   0.8950
B(  6-C ,  7-C ) :   1.4526 B(  6-C , 12-H ) :   0.9178 B(  7-C ,  9-C ) :   1.2869
B(  7-C , 10-H ) :   0.9274 B(  8-C ,  9-C ) :   1.2077 B(  8-C , 13-C ) :   1.0861
B(  9-C , 14-C ) :   1.1629 B( 13-C , 16-C ) :   1.2966 B( 13-C , 19-C ) :   1.2278
B( 14-C , 15-C ) :   1.6467 B( 14-C , 17-H ) :   0.9274 B( 15-C , 16-C ) :   1.1374
B( 15-C , 18-H ) :   0.9283 B( 16-C , 20-C ) :   1.2848 B( 19-C , 21-C ) :   1.4560
B( 19-C , 25-H ) :   0.7503 B( 20-C , 22-C ) :   1.4775 B( 20-C , 23-H ) :   0.9298
B( 21-C , 22-C ) :   1.3548 B( 21-C , 26-H ) :   0.9110 B( 22-C , 24-H ) :   0.9248

Dispersion correction           -0.024354748
FINAL SINGLE POINT ENERGY     -2061.484114824124
Dispersion correction            ... done

DIPOLE MOMENT
-------------
                                X             Y             Z
Electronic contribution:    -86.34041     -66.67077      33.66032
Nuclear contribution   :     89.67353      70.85908     -33.88321
                        -----------------------------------------
Total Dipole Moment    :      3.33312       4.18831      -0.22289
                        -----------------------------------------
Magnitude (a.u.)       :      5.35736
Magnitude (Debye)      :     13.61733

Rotational constants in cm-1:     0.012068     0.007437     0.005813
Rotational constants in MHz :   361.786730   222.942474   174.263583

                             ****ORCA TERMINATED NORMALLY****
TOTAL RUN TIME: 0 days 0 hours 12 minutes 12 seconds 835 msec
