                         Program Version 5.0.3 -  RELEASE  -
|  1> ! EnGrad PBEh-3c
|  2> %output
|  3> xyzfile=True
|  4> end
|  5> %scf
|  6> maxiter 250
|  7> end
|  8> %output
|  9> Print[P_Hirshfeld] = 1
| 10> end
| 11> % maxcore
| 12> 4000
| 13> *xyz -1 1
| 14> Pd  -2.18733821  -1.79410591   0.76706546
| 15> Cl  -3.62884560  -3.26734428  -0.14103171
| 16> Cl  -0.82535255  -4.13591767   1.34857602
| 17> Cl  -3.84241465  -0.17412486   0.62744237
| 18> N   -0.94733263  -0.17853330   1.45299549
| 19> C   -1.27370409   0.40492224   2.59536766
| 20> C   -0.75918398   1.63205545   3.01427122
| 21> C    0.08104512   2.30748324   2.16368621
| 22> C   -0.06578540   0.40497777   0.62459946
| 23> C    0.43476376   1.71296198   0.94153966
| 24> H    0.47908963   3.29056284   2.44197892
| 25> H   -1.96334522  -0.13929144   3.22729317
| 26> H   -1.05506795   2.04470964   3.97129590
| 27> C    0.38377429  -0.32192345  -0.53443988
| 28> C    1.30518609   2.40789105   0.04353240
| 29> C    1.62005040   1.80464917  -1.12101916
| 30> C    1.16506986   0.46469962  -1.44255683
| 31> H    1.69185196   3.39855223   0.31022176
| 32> H    2.28790723   2.33789573  -1.81312646
| 33> C    0.09393432  -1.71118217  -0.83556895
| 34> C    1.61873764  -0.06604553  -2.65408417
| 35> C    0.43363906  -2.10639276  -2.11508964
| 36> C    1.20456611  -1.33328611  -2.98857381
| 37> H    2.30329567   0.50236590  -3.31198637
| 38> H    1.58733759  -1.78242674  -3.89696493
| 39> H   -0.25821677  -2.61329815  -0.19950203
| 40> H    0.11623872  -3.08907960  -2.46306218
| 41> *
| 42>
| 43>                          ****END OF INPUT****

CARTESIAN COORDINATES (ANGSTROEM)
---------------------------------
  Pd    -2.187338   -1.794106    0.767065
  Cl    -3.628846   -3.267344   -0.141032
  Cl    -0.825353   -4.135918    1.348576
  Cl    -3.842415   -0.174125    0.627442
  N     -0.947333   -0.178533    1.452995
  C     -1.273704    0.404922    2.595368
  C     -0.759184    1.632055    3.014271
  C      0.081045    2.307483    2.163686
  C     -0.065785    0.404978    0.624599
  C      0.434764    1.712962    0.941540
  H      0.479090    3.290563    2.441979
  H     -1.963345   -0.139291    3.227293
  H     -1.055068    2.044710    3.971296
  C      0.383774   -0.321923   -0.534440
  C      1.305186    2.407891    0.043532
  C      1.620050    1.804649   -1.121019
  C      1.165070    0.464700   -1.442557
  H      1.691852    3.398552    0.310222
  H      2.287907    2.337896   -1.813126
  C      0.093934   -1.711182   -0.835569
  C      1.618738   -0.066046   -2.654084
  C      0.433639   -2.106393   -2.115090
  C      1.204566   -1.333286   -2.988574
  H      2.303296    0.502366   -3.311986
  H      1.587338   -1.782427   -3.896965
  H     -0.258217   -2.613298   -0.199502
  H      0.116239   -3.089080   -2.463062

 Total Charge           Charge          ....   -1
 Multiplicity           Mult            ....    1
 Number of Electrons    NEL             ....  164
 Basis Dimension        Dim             ....  313

ORBITAL ENERGIES
----------------

  NO   OCC          E(Eh)            E(eV)
   0   2.0000    -102.094093     -2778.1215
   1   2.0000    -102.082233     -2777.7988
   2   2.0000    -102.050448     -2776.9339
   3   2.0000     -14.596466      -397.1900
   4   2.0000     -10.423257      -283.6313
   5   2.0000     -10.411314      -283.3062
   6   2.0000     -10.398913      -282.9688
   7   2.0000     -10.395574      -282.8780
   8   2.0000     -10.388571      -282.6874
   9   2.0000     -10.386595      -282.6336
  10   2.0000     -10.384514      -282.5770
  11   2.0000     -10.382888      -282.5327
  12   2.0000     -10.382701      -282.5277
  13   2.0000     -10.369901      -282.1793
  14   2.0000     -10.366155      -282.0774
  15   2.0000     -10.363513      -282.0055
  16   2.0000     -10.356088      -281.8035
  17   2.0000      -9.557791      -260.0807
  18   2.0000      -9.546996      -259.7870
  19   2.0000      -9.512916      -258.8596
  20   2.0000      -7.244069      -197.1211
  21   2.0000      -7.238643      -196.9735
  22   2.0000      -7.238338      -196.9652
  23   2.0000      -7.233641      -196.8374
  24   2.0000      -7.227609      -196.6732
  25   2.0000      -7.227039      -196.6577
  26   2.0000      -7.197902      -195.8649
  27   2.0000      -7.194820      -195.7810
  28   2.0000      -7.194282      -195.7664
  29   2.0000      -3.514861       -95.6442
  30   2.0000      -2.164823       -58.9078
  31   2.0000      -2.155415       -58.6518
  32   2.0000      -2.126766       -57.8722
  33   2.0000      -0.992604       -27.0101
  34   2.0000      -0.891677       -24.2638
  35   2.0000      -0.854389       -23.2491
  36   2.0000      -0.821661       -22.3585
  37   2.0000      -0.786693       -21.4070
  38   2.0000      -0.751053       -20.4372
  39   2.0000      -0.737178       -20.0596
  40   2.0000      -0.685129       -18.6433
  41   2.0000      -0.670844       -18.2546
  42   2.0000      -0.653396       -17.7798
  43   2.0000      -0.647811       -17.6278
  44   2.0000      -0.633691       -17.2436
  45   2.0000      -0.615221       -16.7410
  46   2.0000      -0.589770       -16.0485
  47   2.0000      -0.536855       -14.6086
  48   2.0000      -0.525351       -14.2955
  49   2.0000      -0.503553       -13.7024
  50   2.0000      -0.471126       -12.8200
  51   2.0000      -0.468573       -12.7505
  52   2.0000      -0.436487       -11.8774
  53   2.0000      -0.422921       -11.5083
  54   2.0000      -0.413085       -11.2406
  55   2.0000      -0.409334       -11.1385
  56   2.0000      -0.400723       -10.9042
  57   2.0000      -0.393237       -10.7005
  58   2.0000      -0.377115       -10.2618
  59   2.0000      -0.351546        -9.5661
  60   2.0000      -0.348321        -9.4783
  61   2.0000      -0.321463        -8.7475
  62   2.0000      -0.316971        -8.6252
  63   2.0000      -0.309422        -8.4198
  64   2.0000      -0.298133        -8.1126
  65   2.0000      -0.272674        -7.4198
  66   2.0000      -0.258607        -7.0371
  67   2.0000      -0.252651        -6.8750
  68   2.0000      -0.235203        -6.4002
  69   2.0000      -0.230401        -6.2695
  70   2.0000      -0.224179        -6.1002
  71   2.0000      -0.219367        -5.9693
  72   2.0000      -0.193578        -5.2675
  73   2.0000      -0.180876        -4.9219
  74   2.0000      -0.165215        -4.4957
  75   2.0000      -0.163451        -4.4477
  76   2.0000      -0.159238        -4.3331
  77   2.0000      -0.146992        -3.9999
  78   2.0000      -0.140437        -3.8215
  79   2.0000      -0.135858        -3.6969
  80   2.0000      -0.133023        -3.6197
  81   2.0000      -0.119814        -3.2603
  82   0.0000       0.041158         1.1200
  83   0.0000       0.055072         1.4986
  84   0.0000       0.068287         1.8582
  85   0.0000       0.098397         2.6775
  86   0.0000       0.127454         3.4682

MULLIKEN ATOMIC CHARGES
-----------------------
   0 Pd:    0.130432
   1 Cl:   -0.298235
   2 Cl:   -0.529579
   3 Cl:   -0.379814
   4 N :   -0.548099
   5 C :    0.048892
   6 C :   -0.314982
   7 C :   -0.158733
   8 C :    0.355476
   9 C :    0.021793
  10 H :    0.212395
  11 H :    0.279350
  12 H :    0.222111
  13 C :    0.038801
  14 C :   -0.285161
  15 C :   -0.279529
  16 C :    0.125260
  17 H :    0.200393
  18 H :    0.197092
  19 C :   -0.261862
  20 C :   -0.303849
  21 C :   -0.230175
  22 C :   -0.202801
  23 H :    0.195932
  24 H :    0.200521
  25 H :    0.323737
  26 H :    0.240636
Sum of atomic charges:   -1.0000000

LOEWDIN ATOMIC CHARGES
----------------------
   0 Pd:   -0.865964
   1 Cl:   -0.030670
   2 Cl:   -0.394884
   3 Cl:   -0.109377
   4 N :    0.026839
   5 C :    0.013554
   6 C :   -0.164371
   7 C :   -0.088190
   8 C :    0.086426
   9 C :   -0.047167
  10 H :    0.136399
  11 H :    0.165255
  12 H :    0.141408
  13 C :   -0.015464
  14 C :   -0.140003
  15 C :   -0.118572
  16 C :   -0.025946
  17 H :    0.132780
  18 H :    0.132537
  19 C :   -0.076379
  20 C :   -0.142148
  21 C :   -0.119419
  22 C :   -0.130654
  23 H :    0.129233
  24 H :    0.128942
  25 H :    0.228449
  26 H :    0.147384

  Mayer bond orders larger than 0.100000
B(  0-Pd,  1-Cl) :   0.9720 B(  0-Pd,  2-Cl) :   0.5558 B(  0-Pd,  3-Cl) :   0.8458
B(  0-Pd,  4-N ) :   0.3420 B(  2-Cl, 25-H ) :   0.1509 B(  4-N ,  5-C ) :   1.4645
B(  4-N ,  8-C ) :   1.2219 B(  5-C ,  6-C ) :   1.3293 B(  5-C , 11-H ) :   0.8944
B(  6-C ,  7-C ) :   1.4500 B(  6-C , 12-H ) :   0.9178 B(  7-C ,  9-C ) :   1.2881
B(  7-C , 10-H ) :   0.9279 B(  8-C ,  9-C ) :   1.2089 B(  8-C , 13-C ) :   1.0999
B(  9-C , 14-C ) :   1.1647 B( 13-C , 16-C ) :   1.3069 B( 13-C , 19-C ) :   1.2121
B( 14-C , 15-C ) :   1.6431 B( 14-C , 17-H ) :   0.9279 B( 15-C , 16-C ) :   1.1434
B( 15-C , 18-H ) :   0.9287 B( 16-C , 20-C ) :   1.2715 B( 19-C , 21-C ) :   1.4818
B( 19-C , 25-H ) :   0.7490 B( 20-C , 22-C ) :   1.4867 B( 20-C , 23-H ) :   0.9303
B( 21-C , 22-C ) :   1.3405 B( 21-C , 26-H ) :   0.9105 B( 22-C , 24-H ) :   0.9247

Dispersion correction           -0.024429296
FINAL SINGLE POINT ENERGY     -2061.491203246998
Dispersion correction            ... done

DIPOLE MOMENT
-------------
                                X             Y             Z
Electronic contribution:    -85.27245     -67.01304      33.08310
Nuclear contribution   :     88.54238      71.23691     -33.27707
                        -----------------------------------------
Total Dipole Moment    :      3.26993       4.22387      -0.19397
                        -----------------------------------------
Magnitude (a.u.)       :      5.34520
Magnitude (Debye)      :     13.58642

Rotational constants in cm-1:     0.012077     0.007538     0.005807
Rotational constants in MHz :   362.058700   225.988399   174.082055

                             ****ORCA TERMINATED NORMALLY****
TOTAL RUN TIME: 0 days 0 hours 14 minutes 48 seconds 750 msec
