                         Program Version 5.0.3 -  RELEASE  -
|  1> ! EnGrad PBEh-3c
|  2> %output
|  3> xyzfile=True
|  4> end
|  5> %scf
|  6> maxiter 250
|  7> end
|  8> %output
|  9> Print[P_Hirshfeld] = 1
| 10> end
| 11> % maxcore
| 12> 4000
| 13> *xyz -1 1
| 14> Pd  -2.16415531  -1.80471810   0.74829900
| 15> Cl  -3.58219214  -3.29327357  -0.17869838
| 16> Cl  -0.73329508  -4.10834456   1.21577019
| 17> Cl  -3.87224943  -0.24423079   0.75178213
| 18> N   -0.95801975  -0.17612705   1.46314619
| 19> C   -1.28974518   0.42295764   2.59051862
| 20> C   -0.77307242   1.65120238   3.00172929
| 21> C    0.07731332   2.31467243   2.15670135
| 22> C   -0.05700640   0.40851949   0.64333528
| 23> C    0.43949458   1.71417303   0.94161811
| 24> H    0.48155709   3.29527353   2.42646677
| 25> H   -1.98704312  -0.10915365   3.22218252
| 26> H   -1.06862547   2.07287982   3.95854880
| 27> C    0.39871221  -0.31881976  -0.52737779
| 28> C    1.31408989   2.39448892   0.04710934
| 29> C    1.63294656   1.78981454  -1.10904812
| 30> C    1.18519288   0.46602494  -1.42943783
| 31> H    1.71013822   3.38407594   0.31350431
| 32> H    2.30003552   2.30162907  -1.79731094
| 33> C    0.08956409  -1.69230021  -0.84659462
| 34> C    1.61399746  -0.08410189  -2.64922650
| 35> C    0.41062079  -2.11219680  -2.12070376
| 36> C    1.19241871  -1.33354714  -2.98657096
| 37> H    2.30477905   0.48292383  -3.27665179
| 38> H    1.55418449  -1.78274883  -3.89434553
| 39> H   -0.28737121  -2.56490592  -0.16991923
| 40> H    0.06784981  -3.07490066  -2.47475424
| 41> *
| 42>
| 43>                          ****END OF INPUT****

CARTESIAN COORDINATES (ANGSTROEM)
---------------------------------
  Pd    -2.164155   -1.804718    0.748299
  Cl    -3.582192   -3.293274   -0.178698
  Cl    -0.733295   -4.108345    1.215770
  Cl    -3.872249   -0.244231    0.751782
  N     -0.958020   -0.176127    1.463146
  C     -1.289745    0.422958    2.590519
  C     -0.773072    1.651202    3.001729
  C      0.077313    2.314672    2.156701
  C     -0.057006    0.408519    0.643335
  C      0.439495    1.714173    0.941618
  H      0.481557    3.295274    2.426467
  H     -1.987043   -0.109154    3.222183
  H     -1.068625    2.072880    3.958549
  C      0.398712   -0.318820   -0.527378
  C      1.314090    2.394489    0.047109
  C      1.632947    1.789815   -1.109048
  C      1.185193    0.466025   -1.429438
  H      1.710138    3.384076    0.313504
  H      2.300036    2.301629   -1.797311
  C      0.089564   -1.692300   -0.846595
  C      1.613997   -0.084102   -2.649227
  C      0.410621   -2.112197   -2.120704
  C      1.192419   -1.333547   -2.986571
  H      2.304779    0.482924   -3.276652
  H      1.554184   -1.782749   -3.894346
  H     -0.287371   -2.564906   -0.169919
  H      0.067850   -3.074901   -2.474754

 Total Charge           Charge          ....   -1
 Multiplicity           Mult            ....    1
 Number of Electrons    NEL             ....  164
 Basis Dimension        Dim             ....  313

ORBITAL ENERGIES
----------------

  NO   OCC          E(Eh)            E(eV)
   0   2.0000    -102.095040     -2778.1473
   1   2.0000    -102.082773     -2777.8135
   2   2.0000    -102.052451     -2776.9884
   3   2.0000     -14.596812      -397.1994
   4   2.0000     -10.422746      -283.6173
   5   2.0000     -10.410443      -283.2826
   6   2.0000     -10.397841      -282.9396
   7   2.0000     -10.393361      -282.8177
   8   2.0000     -10.385061      -282.5919
   9   2.0000     -10.382385      -282.5191
  10   2.0000     -10.382167      -282.5131
  11   2.0000     -10.381340      -282.4906
  12   2.0000     -10.379764      -282.4477
  13   2.0000     -10.365121      -282.0493
  14   2.0000     -10.362239      -281.9708
  15   2.0000     -10.356802      -281.8229
  16   2.0000     -10.353174      -281.7242
  17   2.0000      -9.558840      -260.1092
  18   2.0000      -9.547490      -259.8004
  19   2.0000      -9.515250      -258.9231
  20   2.0000      -7.245127      -197.1499
  21   2.0000      -7.239672      -197.0015
  22   2.0000      -7.239368      -196.9932
  23   2.0000      -7.234137      -196.8509
  24   2.0000      -7.228106      -196.6868
  25   2.0000      -7.227540      -196.6714
  26   2.0000      -7.200201      -195.9274
  27   2.0000      -7.197139      -195.8441
  28   2.0000      -7.196560      -195.8284
  29   2.0000      -3.515597       -95.6643
  30   2.0000      -2.165549       -58.9276
  31   2.0000      -2.156476       -58.6807
  32   2.0000      -2.127306       -57.8869
  33   2.0000      -0.991914       -26.9914
  34   2.0000      -0.891927       -24.2706
  35   2.0000      -0.854704       -23.2577
  36   2.0000      -0.821038       -22.3416
  37   2.0000      -0.786354       -21.3978
  38   2.0000      -0.750221       -20.4145
  39   2.0000      -0.735774       -20.0214
  40   2.0000      -0.686339       -18.6762
  41   2.0000      -0.671622       -18.2758
  42   2.0000      -0.652948       -17.7676
  43   2.0000      -0.647373       -17.6159
  44   2.0000      -0.637899       -17.3581
  45   2.0000      -0.615837       -16.7578
  46   2.0000      -0.587921       -15.9982
  47   2.0000      -0.536179       -14.5902
  48   2.0000      -0.524866       -14.2823
  49   2.0000      -0.503435       -13.6992
  50   2.0000      -0.471736       -12.8366
  51   2.0000      -0.468050       -12.7363
  52   2.0000      -0.437066       -11.8932
  53   2.0000      -0.420245       -11.4354
  54   2.0000      -0.412335       -11.2202
  55   2.0000      -0.407523       -11.0893
  56   2.0000      -0.399593       -10.8735
  57   2.0000      -0.394158       -10.7256
  58   2.0000      -0.377548       -10.2736
  59   2.0000      -0.351286        -9.5590
  60   2.0000      -0.347859        -9.4657
  61   2.0000      -0.323533        -8.8038
  62   2.0000      -0.315738        -8.5917
  63   2.0000      -0.307463        -8.3665
  64   2.0000      -0.298451        -8.1213
  65   2.0000      -0.272489        -7.4148
  66   2.0000      -0.258888        -7.0447
  67   2.0000      -0.253686        -6.9032
  68   2.0000      -0.235086        -6.3970
  69   2.0000      -0.230442        -6.2706
  70   2.0000      -0.225311        -6.1310
  71   2.0000      -0.220550        -6.0015
  72   2.0000      -0.192996        -5.2517
  73   2.0000      -0.179925        -4.8960
  74   2.0000      -0.166611        -4.5337
  75   2.0000      -0.165122        -4.4932
  76   2.0000      -0.159944        -4.3523
  77   2.0000      -0.148378        -4.0376
  78   2.0000      -0.141032        -3.8377
  79   2.0000      -0.135056        -3.6751
  80   2.0000      -0.134275        -3.6538
  81   2.0000      -0.121247        -3.2993
  82   0.0000       0.041996         1.1428
  83   0.0000       0.057837         1.5738
  84   0.0000       0.067976         1.8497
  85   0.0000       0.099496         2.7074
  86   0.0000       0.130380         3.5478

MULLIKEN ATOMIC CHARGES
-----------------------
   0 Pd:    0.133036
   1 Cl:   -0.299287
   2 Cl:   -0.519930
   3 Cl:   -0.377110
   4 N :   -0.544998
   5 C :    0.049574
   6 C :   -0.318369
   7 C :   -0.157905
   8 C :    0.335829
   9 C :    0.033997
  10 H :    0.211966
  11 H :    0.278672
  12 H :    0.221298
  13 C :    0.047475
  14 C :   -0.290873
  15 C :   -0.278048
  16 C :    0.127673
  17 H :    0.198654
  18 H :    0.196891
  19 C :   -0.263743
  20 C :   -0.295603
  21 C :   -0.232117
  22 C :   -0.206941
  23 H :    0.193400
  24 H :    0.199343
  25 H :    0.314459
  26 H :    0.242657
Sum of atomic charges:   -1.0000000

LOEWDIN ATOMIC CHARGES
----------------------
   0 Pd:   -0.869249
   1 Cl:   -0.032245
   2 Cl:   -0.382619
   3 Cl:   -0.104300
   4 N :    0.026174
   5 C :    0.011878
   6 C :   -0.165610
   7 C :   -0.086642
   8 C :    0.088078
   9 C :   -0.049796
  10 H :    0.135945
  11 H :    0.164493
  12 H :    0.141347
  13 C :   -0.016026
  14 C :   -0.139185
  15 C :   -0.119289
  16 C :   -0.027895
  17 H :    0.132468
  18 H :    0.131914
  19 C :   -0.080938
  20 C :   -0.143421
  21 C :   -0.117004
  22 C :   -0.130224
  23 H :    0.127700
  24 H :    0.128427
  25 H :    0.226992
  26 H :    0.149027

  Mayer bond orders larger than 0.100000
B(  0-Pd,  1-Cl) :   0.9700 B(  0-Pd,  2-Cl) :   0.5403 B(  0-Pd,  3-Cl) :   0.8452
B(  0-Pd,  4-N ) :   0.3435 B(  2-Cl, 25-H ) :   0.1746 B(  4-N ,  5-C ) :   1.4761
B(  4-N ,  8-C ) :   1.2134 B(  5-C ,  6-C ) :   1.3205 B(  5-C , 11-H ) :   0.8938
B(  6-C ,  7-C ) :   1.4576 B(  6-C , 12-H ) :   0.9184 B(  7-C ,  9-C ) :   1.2811
B(  7-C , 10-H ) :   0.9281 B(  8-C ,  9-C ) :   1.2203 B(  8-C , 13-C ) :   1.1078
B(  9-C , 14-C ) :   1.1649 B( 13-C , 16-C ) :   1.3060 B( 13-C , 19-C ) :   1.1998
B( 14-C , 15-C ) :   1.6377 B( 14-C , 17-H ) :   0.9290 B( 15-C , 16-C ) :   1.1559
B( 15-C , 18-H ) :   0.9282 B( 16-C , 20-C ) :   1.2663 B( 19-C , 21-C ) :   1.4961
B( 19-C , 25-H ) :   0.7231 B( 20-C , 22-C ) :   1.5003 B( 20-C , 23-H ) :   0.9303
B( 21-C , 22-C ) :   1.3293 B( 21-C , 26-H ) :   0.9094 B( 22-C , 24-H ) :   0.9250

Dispersion correction           -0.024529382
FINAL SINGLE POINT ENERGY     -2061.493481535210
Dispersion correction            ... done

DIPOLE MOMENT
-------------
                                X             Y             Z
Electronic contribution:    -84.53792     -67.37910      32.32189
Nuclear contribution   :     87.69426      71.57513     -32.43621
                        -----------------------------------------
Total Dipole Moment    :      3.15634       4.19603      -0.11432
                        -----------------------------------------
Magnitude (a.u.)       :      5.25188
Magnitude (Debye)      :     13.34921

Rotational constants in cm-1:     0.012084     0.007665     0.005797
Rotational constants in MHz :   362.269689   229.790467   173.802680

                             ****ORCA TERMINATED NORMALLY****
TOTAL RUN TIME: 0 days 0 hours 15 minutes 35 seconds 911 msec
