                         Program Version 5.0.3 -  RELEASE  -
|  1> ! EnGrad PBEh-3c
|  2> %output
|  3> xyzfile=True
|  4> end
|  5> %scf
|  6> maxiter 250
|  7> end
|  8> %output
|  9> Print[P_Hirshfeld] = 1
| 10> end
| 11> % maxcore
| 12> 4000
| 13> *xyz 1 1
| 14> Sc   1.48953543  -1.35149902  -1.67954297
| 15> C    0.48090835  -0.71449161   0.24701664
| 16> N   -0.46358583  -1.40454095   0.91161032
| 17> C   -0.85988295  -0.72089993   2.02489308
| 18> C   -0.22446963   0.47146270   2.00159075
| 19> N    0.60405190   0.44855321   0.91722140
| 20> C    1.48656852   1.55139203   0.58458968
| 21> H    1.86435514   2.06602956   1.46571839
| 22> H    0.95969061   2.27147798  -0.03639698
| 23> H    2.37659663   1.17253956   0.08504707
| 24> C   -0.97876465  -2.72052282   0.57542325
| 25> H   -0.43724399  -3.13617876  -0.27030537
| 26> H   -2.03381097  -2.65332395   0.31909153
| 27> H   -0.85405167  -3.39116206   1.42265177
| 28> H   -1.55784622  -1.11809039   2.74167855
| 29> H   -0.26886200   1.28795572   2.70158700
| 30> C   -0.36889657   1.58938971  -2.77254472
| 31> H   -0.85842076   1.07620575  -3.60185984
| 32> H   -0.62453240   2.64540548  -2.86050288
| 33> H   -0.79246975   1.22425871  -1.84165482
| 34> H    1.06115332   1.40605409  -2.93531935
| 35> *
| 36>
| 37>                          ****END OF INPUT****

CARTESIAN COORDINATES (ANGSTROEM)
---------------------------------
  Sc     1.489535   -1.351499   -1.679543
  C      0.480908   -0.714492    0.247017
  N     -0.463586   -1.404541    0.911610
  C     -0.859883   -0.720900    2.024893
  C     -0.224470    0.471463    2.001591
  N      0.604052    0.448553    0.917221
  C      1.486569    1.551392    0.584590
  H      1.864355    2.066030    1.465718
  H      0.959691    2.271478   -0.036397
  H      2.376597    1.172540    0.085047
  C     -0.978765   -2.720523    0.575423
  H     -0.437244   -3.136179   -0.270305
  H     -2.033811   -2.653324    0.319092
  H     -0.854052   -3.391162    1.422652
  H     -1.557846   -1.118090    2.741679
  H     -0.268862    1.287956    2.701587
  C     -0.368897    1.589390   -2.772545
  H     -0.858421    1.076206   -3.601860
  H     -0.624532    2.645405   -2.860503
  H     -0.792470    1.224259   -1.841655
  H      1.061153    1.406054   -2.935319

 Total Charge           Charge          ....    1
 Multiplicity           Mult            ....    1
 Number of Electrons    NEL             ....   82
 Basis Dimension        Dim             ....  175

ORBITAL ENERGIES
----------------

  NO   OCC          E(Eh)            E(eV)
   0   2.0000    -162.904351     -4432.8527
   1   2.0000     -18.214347      -495.6376
   2   2.0000     -15.055725      -409.6871
   3   2.0000     -15.052936      -409.6112
   4   2.0000     -15.038936      -409.2302
   5   2.0000     -14.868656      -404.5967
   6   2.0000     -14.868228      -404.5850
   7   2.0000     -10.650284      -289.8090
   8   2.0000     -10.630598      -289.2733
   9   2.0000     -10.629112      -289.2328
  10   2.0000     -10.621775      -289.0332
  11   2.0000     -10.621317      -289.0207
  12   2.0000     -10.578059      -287.8436
  13   2.0000      -2.423214       -65.9390
  14   2.0000      -1.571888       -42.7732
  15   2.0000      -1.563531       -42.5458
  16   2.0000      -1.553971       -42.2857
  17   2.0000      -1.316962       -35.8364
  18   2.0000      -1.193782       -32.4845
  19   2.0000      -1.027344       -27.9554
  20   2.0000      -0.986112       -26.8335
  21   2.0000      -0.929071       -25.2813
  22   2.0000      -0.888710       -24.1830
  23   2.0000      -0.847799       -23.0698
  24   2.0000      -0.808114       -21.9899
  25   2.0000      -0.754721       -20.5370
  26   2.0000      -0.708039       -19.2667
  27   2.0000      -0.679027       -18.4773
  28   2.0000      -0.662469       -18.0267
  29   2.0000      -0.659971       -17.9587
  30   2.0000      -0.652318       -17.7505
  31   2.0000      -0.604263       -16.4428
  32   2.0000      -0.597621       -16.2621
  33   2.0000      -0.593953       -16.1623
  34   2.0000      -0.580232       -15.7889
  35   2.0000      -0.571287       -15.5455
  36   2.0000      -0.528626       -14.3846
  37   2.0000      -0.520463       -14.1625
  38   2.0000      -0.490522       -13.3478
  39   2.0000      -0.439531       -11.9602
  40   2.0000      -0.325240        -8.8502
  41   0.0000      -0.185153        -5.0383
  42   0.0000      -0.181147        -4.9293
  43   0.0000      -0.180338        -4.9072
  44   0.0000      -0.167357        -4.5540
  45   0.0000      -0.165083        -4.4921

MULLIKEN ATOMIC CHARGES
-----------------------
   0 Sc:    0.506784
   1 C :    0.210839
   2 N :   -0.410829
   3 C :   -0.064293
   4 C :   -0.063800
   5 N :   -0.420358
   6 C :   -0.528382
   7 H :    0.282678
   8 H :    0.279400
   9 H :    0.260567
  10 C :   -0.517705
  11 H :    0.255383
  12 H :    0.279512
  13 H :    0.278683
  14 H :    0.304492
  15 H :    0.305156
  16 C :   -0.848913
  17 H :    0.264999
  18 H :    0.276064
  19 H :    0.225934
  20 H :    0.123790
Sum of atomic charges:    1.0000000

LOEWDIN ATOMIC CHARGES
----------------------
   0 Sc:    0.352178
   1 C :   -0.046277
   2 N :    0.010208
   3 C :   -0.079872
   4 C :   -0.077202
   5 N :    0.007543
   6 C :   -0.240933
   7 H :    0.157857
   8 H :    0.153009
   9 H :    0.153170
  10 C :   -0.237296
  11 H :    0.150561
  12 H :    0.155242
  13 H :    0.156049
  14 H :    0.169183
  15 H :    0.169652
  16 C :   -0.497962
  17 H :    0.146998
  18 H :    0.153568
  19 H :    0.129876
  20 H :    0.114449

  Mayer bond orders larger than 0.100000
B(  0-Sc,  1-C ) :   0.6996 B(  1-C ,  2-N ) :   1.2267 B(  1-C ,  5-N ) :   1.2234
B(  2-N ,  3-C ) :   1.1598 B(  2-N , 10-C ) :   0.9093 B(  3-C ,  4-C ) :   1.6267
B(  3-C , 14-H ) :   0.8780 B(  4-C ,  5-N ) :   1.1566 B(  4-C , 15-H ) :   0.8779
B(  5-N ,  6-C ) :   0.9096 B(  6-C ,  7-H ) :   0.8974 B(  6-C ,  8-H ) :   0.8899
B(  6-C ,  9-H ) :   0.8988 B( 10-C , 11-H ) :   0.8913 B( 10-C , 12-H ) :   0.8933
B( 10-C , 13-H ) :   0.8949 B( 16-C , 17-H ) :   0.9062 B( 16-C , 18-H ) :   0.9030
B( 16-C , 19-H ) :   0.9091 B( 16-C , 20-H ) :   0.9251

Dispersion correction           -0.011236154
FINAL SINGLE POINT ENERGY     -1104.405688227735
Dispersion correction            ... done

DIPOLE MOMENT
-------------
                                X             Y             Z
Electronic contribution:      8.65058     -10.81741      -3.26384
Nuclear contribution   :     -8.56870      10.61148       3.13042
                        -----------------------------------------
Total Dipole Moment    :      0.08187      -0.20593      -0.13342
                        -----------------------------------------
Magnitude (a.u.)       :      0.25867
Magnitude (Debye)      :      0.65749

Rotational constants in cm-1:     0.041993     0.030413     0.022895
Rotational constants in MHz :  1258.904585   911.761185   686.384092

                             ****ORCA TERMINATED NORMALLY****
TOTAL RUN TIME: 0 days 0 hours 4 minutes 41 seconds 938 msec
