                         Program Version 5.0.3 -  RELEASE  -
|  1> ! EnGrad PBEh-3c
|  2> %output
|  3> xyzfile=True
|  4> end
|  5> %scf
|  6> maxiter 250
|  7> end
|  8> %output
|  9> Print[P_Hirshfeld] = 1
| 10> end
| 11> % maxcore
| 12> 4000
| 13> *xyz 1 1
| 14> Sc   1.57989273  -1.36988564  -1.59353633
| 15> C    0.46604514  -0.70928245   0.24215074
| 16> N   -0.45451264  -1.40508527   0.93576677
| 17> C   -0.88010236  -0.70655714   2.02781705
| 18> C   -0.20000671   0.46193990   2.02918833
| 19> N    0.61469710   0.44003680   0.93325590
| 20> C    1.48902061   1.53956215   0.56508231
| 21> H    1.78883665   2.06780168   1.46796282
| 22> H    0.98913902   2.23787832  -0.10431964
| 23> H    2.38708889   1.16594232   0.08425092
| 24> C   -0.98025708  -2.71246451   0.58753575
| 25> H   -0.43821556  -3.11546315  -0.26445501
| 26> H   -2.03760067  -2.64570475   0.32947100
| 27> H   -0.85086671  -3.39057348   1.42733603
| 28> H   -1.61432169  -1.09483127   2.71593263
| 29> H   -0.23513085   1.28983854   2.72110978
| 30> C   -0.31444008   1.57960310  -2.81971283
| 31> H   -0.93431093   1.19052752  -3.63286039
| 32> H   -0.33307805   2.66290749  -2.86029138
| 33> H   -0.72799955   1.24599116  -1.86259021
| 34> H    0.68695813   1.27378013  -2.92933978
| 35> *
| 36>
| 37>                          ****END OF INPUT****

CARTESIAN COORDINATES (ANGSTROEM)
---------------------------------
  Sc     1.579893   -1.369886   -1.593536
  C      0.466045   -0.709282    0.242151
  N     -0.454513   -1.405085    0.935767
  C     -0.880102   -0.706557    2.027817
  C     -0.200007    0.461940    2.029188
  N      0.614697    0.440037    0.933256
  C      1.489021    1.539562    0.565082
  H      1.788837    2.067802    1.467963
  H      0.989139    2.237878   -0.104320
  H      2.387089    1.165942    0.084251
  C     -0.980257   -2.712465    0.587536
  H     -0.438216   -3.115463   -0.264455
  H     -2.037601   -2.645705    0.329471
  H     -0.850867   -3.390573    1.427336
  H     -1.614322   -1.094831    2.715933
  H     -0.235131    1.289839    2.721110
  C     -0.314440    1.579603   -2.819713
  H     -0.934311    1.190528   -3.632860
  H     -0.333078    2.662907   -2.860291
  H     -0.728000    1.245991   -1.862590
  H      0.686958    1.273780   -2.929340

 Total Charge           Charge          ....    1
 Multiplicity           Mult            ....    1
 Number of Electrons    NEL             ....   82
 Basis Dimension        Dim             ....  175

ORBITAL ENERGIES
----------------

  NO   OCC          E(Eh)            E(eV)
   0   2.0000    -162.908552     -4432.9671
   1   2.0000     -18.219076      -495.7663
   2   2.0000     -15.060162      -409.8078
   3   2.0000     -15.058060      -409.7506
   4   2.0000     -15.043421      -409.3523
   5   2.0000     -14.871164      -404.6649
   6   2.0000     -14.870820      -404.6556
   7   2.0000     -10.652162      -289.8601
   8   2.0000     -10.634553      -289.3809
   9   2.0000     -10.632589      -289.3274
  10   2.0000     -10.623795      -289.0881
  11   2.0000     -10.623321      -289.0753
  12   2.0000     -10.533735      -286.6375
  13   2.0000      -2.427772       -66.0630
  14   2.0000      -1.575427       -42.8695
  15   2.0000      -1.569119       -42.6979
  16   2.0000      -1.558236       -42.4018
  17   2.0000      -1.319314       -35.9004
  18   2.0000      -1.195819       -32.5399
  19   2.0000      -1.030405       -28.0388
  20   2.0000      -0.988211       -26.8906
  21   2.0000      -0.931126       -25.3372
  22   2.0000      -0.900966       -24.5165
  23   2.0000      -0.850157       -23.1340
  24   2.0000      -0.810379       -22.0515
  25   2.0000      -0.756105       -20.5747
  26   2.0000      -0.709532       -19.3073
  27   2.0000      -0.680580       -18.5195
  28   2.0000      -0.663316       -18.0498
  29   2.0000      -0.660881       -17.9835
  30   2.0000      -0.655160       -17.8278
  31   2.0000      -0.607355       -16.5270
  32   2.0000      -0.602834       -16.4040
  33   2.0000      -0.595683       -16.2094
  34   2.0000      -0.579929       -15.7807
  35   2.0000      -0.568140       -15.4599
  36   2.0000      -0.561331       -15.2746
  37   2.0000      -0.527561       -14.3557
  38   2.0000      -0.492449       -13.4002
  39   2.0000      -0.442277       -12.0350
  40   2.0000      -0.329909        -8.9773
  41   0.0000      -0.188133        -5.1194
  42   0.0000      -0.184988        -5.0338
  43   0.0000      -0.184279        -5.0145
  44   0.0000      -0.171906        -4.6778
  45   0.0000      -0.168710        -4.5908

MULLIKEN ATOMIC CHARGES
-----------------------
   0 Sc:    0.517368
   1 C :    0.206281
   2 N :   -0.410580
   3 C :   -0.061867
   4 C :   -0.064193
   5 N :   -0.418269
   6 C :   -0.523250
   7 H :    0.278219
   8 H :    0.281656
   9 H :    0.261137
  10 C :   -0.518412
  11 H :    0.253695
  12 H :    0.280484
  13 H :    0.279576
  14 H :    0.306215
  15 H :    0.306561
  16 C :   -0.911491
  17 H :    0.258413
  18 H :    0.262064
  19 H :    0.207890
  20 H :    0.208503
Sum of atomic charges:    1.0000000

LOEWDIN ATOMIC CHARGES
----------------------
   0 Sc:    0.367405
   1 C :   -0.049515
   2 N :    0.012672
   3 C :   -0.077826
   4 C :   -0.074476
   5 N :    0.009065
   6 C :   -0.238575
   7 H :    0.157574
   8 H :    0.153492
   9 H :    0.151934
  10 C :   -0.237034
  11 H :    0.149901
  12 H :    0.156099
  13 H :    0.156329
  14 H :    0.170721
  15 H :    0.170454
  16 C :   -0.524943
  17 H :    0.149986
  18 H :    0.149784
  19 H :    0.125119
  20 H :    0.121834

  Mayer bond orders larger than 0.100000
B(  0-Sc,  1-C ) :   0.6967 B(  1-C ,  2-N ) :   1.2276 B(  1-C ,  5-N ) :   1.2204
B(  2-N ,  3-C ) :   1.1656 B(  2-N , 10-C ) :   0.9106 B(  3-C ,  4-C ) :   1.6196
B(  3-C , 14-H ) :   0.8770 B(  4-C ,  5-N ) :   1.1615 B(  4-C , 15-H ) :   0.8768
B(  5-N ,  6-C ) :   0.9089 B(  6-C ,  7-H ) :   0.9008 B(  6-C ,  8-H ) :   0.8871
B(  6-C ,  9-H ) :   0.8955 B( 10-C , 11-H ) :   0.8926 B( 10-C , 12-H ) :   0.8926
B( 10-C , 13-H ) :   0.8947 B( 16-C , 17-H ) :   0.9219 B( 16-C , 18-H ) :   0.9178
B( 16-C , 19-H ) :   0.9291 B( 16-C , 20-H ) :   0.9143

Dispersion correction           -0.010978041
FINAL SINGLE POINT ENERGY     -1104.452115522657
Dispersion correction            ... done

DIPOLE MOMENT
-------------
                                X             Y             Z
Electronic contribution:      9.44790     -11.06823      -2.59811
Nuclear contribution   :     -9.21806      10.74871       2.58613
                        -----------------------------------------
Total Dipole Moment    :      0.22984      -0.31952      -0.01197
                        -----------------------------------------
Magnitude (a.u.)       :      0.39378
Magnitude (Debye)      :      1.00090

Rotational constants in cm-1:     0.041820     0.030233     0.023001
Rotational constants in MHz :  1253.728285   906.367317   689.561430

                             ****ORCA TERMINATED NORMALLY****
TOTAL RUN TIME: 0 days 0 hours 4 minutes 47 seconds 760 msec
