                         Program Version 5.0.3 -  RELEASE  -
|  1> ! EnGrad PBEh-3c
|  2> %output
|  3> xyzfile=True
|  4> end
|  5> %scf
|  6> maxiter 250
|  7> end
|  8> %output
|  9> Print[P_Hirshfeld] = 1
| 10> end
| 11> % maxcore
| 12> 4000
| 13> *xyz 1 1
| 14> Sc   1.50432410  -1.35232235  -1.65735289
| 15> C    0.46929258  -0.70271279   0.21322343
| 16> N   -0.44297626  -1.40713961   0.93010284
| 17> C   -0.88624194  -0.71032832   2.02421752
| 18> C   -0.21319687   0.45510682   2.02155860
| 19> N    0.61174995   0.44778086   0.93924939
| 20> C    1.50309187   1.55067884   0.57025874
| 21> H    1.83550031   2.06595126   1.47627893
| 22> H    0.97412186   2.26230267  -0.05663544
| 23> H    2.37498932   1.17411699   0.07966258
| 24> C   -0.97868289  -2.72012475   0.58265067
| 25> H   -0.43921821  -3.13088518  -0.27071795
| 26> H   -2.03494089  -2.65272834   0.32195334
| 27> H   -0.85541241  -3.39180303   1.42410613
| 28> H   -1.56998477  -1.11306247   2.73577035
| 29> H   -0.26633523   1.28949284   2.70197760
| 30> C   -0.18451524   1.57975158  -2.83331527
| 31> H   -0.85605159   1.10148918  -3.60206466
| 32> H   -0.55764790   2.65977295  -2.85082603
| 33> H   -0.76898247   1.22518926  -1.83159544
| 34> H    0.78184314   1.37053074  -2.91888149
| 35> *
| 36>
| 37>                          ****END OF INPUT****

CARTESIAN COORDINATES (ANGSTROEM)
---------------------------------
  Sc     1.504324   -1.352322   -1.657353
  C      0.469293   -0.702713    0.213223
  N     -0.442976   -1.407140    0.930103
  C     -0.886242   -0.710328    2.024218
  C     -0.213197    0.455107    2.021559
  N      0.611750    0.447781    0.939249
  C      1.503092    1.550679    0.570259
  H      1.835500    2.065951    1.476279
  H      0.974122    2.262303   -0.056635
  H      2.374989    1.174117    0.079663
  C     -0.978683   -2.720125    0.582651
  H     -0.439218   -3.130885   -0.270718
  H     -2.034941   -2.652728    0.321953
  H     -0.855412   -3.391803    1.424106
  H     -1.569985   -1.113062    2.735770
  H     -0.266335    1.289493    2.701978
  C     -0.184515    1.579752   -2.833315
  H     -0.856052    1.101489   -3.602065
  H     -0.557648    2.659773   -2.850826
  H     -0.768982    1.225189   -1.831595
  H      0.781843    1.370531   -2.918881

 Total Charge           Charge          ....    1
 Multiplicity           Mult            ....    1
 Number of Electrons    NEL             ....   82
 Basis Dimension        Dim             ....  175

ORBITAL ENERGIES
----------------

  NO   OCC          E(Eh)            E(eV)
   0   2.0000    -162.906947     -4432.9234
   1   2.0000     -18.217456      -495.7222
   2   2.0000     -15.058575      -409.7646
   3   2.0000     -15.056356      -409.7043
   4   2.0000     -15.041862      -409.3099
   5   2.0000     -14.870506      -404.6470
   6   2.0000     -14.868970      -404.6052
   7   2.0000     -10.653600      -289.8992
   8   2.0000     -10.632807      -289.3334
   9   2.0000     -10.630000      -289.2570
  10   2.0000     -10.622410      -289.0505
  11   2.0000     -10.621586      -289.0281
  12   2.0000     -10.553494      -287.1752
  13   2.0000      -2.426416       -66.0261
  14   2.0000      -1.574242       -42.8373
  15   2.0000      -1.567561       -42.6555
  16   2.0000      -1.557184       -42.3731
  17   2.0000      -1.312223       -35.7074
  18   2.0000      -1.188818       -32.3494
  19   2.0000      -1.028169       -27.9779
  20   2.0000      -0.983939       -26.7743
  21   2.0000      -0.929393       -25.2901
  22   2.0000      -0.896749       -24.4018
  23   2.0000      -0.844549       -22.9814
  24   2.0000      -0.809876       -22.0378
  25   2.0000      -0.754852       -20.5406
  26   2.0000      -0.705103       -19.1868
  27   2.0000      -0.677531       -18.4366
  28   2.0000      -0.659721       -17.9519
  29   2.0000      -0.658373       -17.9152
  30   2.0000      -0.653209       -17.7747
  31   2.0000      -0.620611       -16.8877
  32   2.0000      -0.606492       -16.5035
  33   2.0000      -0.600694       -16.3457
  34   2.0000      -0.594387       -16.1741
  35   2.0000      -0.544943       -14.8286
  36   2.0000      -0.538751       -14.6601
  37   2.0000      -0.524632       -14.2760
  38   2.0000      -0.490459       -13.3461
  39   2.0000      -0.440878       -11.9969
  40   2.0000      -0.328886        -8.9494
  41   0.0000      -0.188770        -5.1367
  42   0.0000      -0.183948        -5.0055
  43   0.0000      -0.183026        -4.9804
  44   0.0000      -0.171063        -4.6549
  45   0.0000      -0.167158        -4.5486

MULLIKEN ATOMIC CHARGES
-----------------------
   0 Sc:    0.522245
   1 C :    0.202213
   2 N :   -0.419355
   3 C :   -0.057197
   4 C :   -0.056709
   5 N :   -0.428663
   6 C :   -0.520542
   7 H :    0.277479
   8 H :    0.281159
   9 H :    0.263369
  10 C :   -0.517369
  11 H :    0.252972
  12 H :    0.279679
  13 H :    0.279871
  14 H :    0.306373
  15 H :    0.304487
  16 C :   -0.916226
  17 H :    0.255932
  18 H :    0.266834
  19 H :    0.183405
  20 H :    0.240044
Sum of atomic charges:    1.0000000

LOEWDIN ATOMIC CHARGES
----------------------
   0 Sc:    0.367165
   1 C :   -0.043639
   2 N :    0.009505
   3 C :   -0.079577
   4 C :   -0.072159
   5 N :    0.004097
   6 C :   -0.236756
   7 H :    0.157364
   8 H :    0.153776
   9 H :    0.151651
  10 C :   -0.237318
  11 H :    0.149568
  12 H :    0.155331
  13 H :    0.155896
  14 H :    0.169901
  15 H :    0.169219
  16 C :   -0.533946
  17 H :    0.149331
  18 H :    0.157683
  19 H :    0.124218
  20 H :    0.128688

  Mayer bond orders larger than 0.100000
B(  0-Sc,  1-C ) :   0.6961 B(  1-C ,  2-N ) :   1.2269 B(  1-C ,  5-N ) :   1.2097
B(  2-N ,  3-C ) :   1.1566 B(  2-N , 10-C ) :   0.9088 B(  3-C ,  4-C ) :   1.6133
B(  3-C , 14-H ) :   0.8772 B(  4-C ,  5-N ) :   1.1689 B(  4-C , 15-H ) :   0.8783
B(  5-N ,  6-C ) :   0.9048 B(  6-C ,  7-H ) :   0.9017 B(  6-C ,  8-H ) :   0.8884
B(  6-C ,  9-H ) :   0.8967 B( 10-C , 11-H ) :   0.8925 B( 10-C , 12-H ) :   0.8927
B( 10-C , 13-H ) :   0.8947 B( 16-C , 17-H ) :   0.9168 B( 16-C , 18-H ) :   0.9114
B( 16-C , 19-H ) :   0.9334 B( 16-C , 20-H ) :   0.9057

Dispersion correction           -0.011019294
FINAL SINGLE POINT ENERGY     -1104.425747581518
Dispersion correction            ... done

DIPOLE MOMENT
-------------
                                X             Y             Z
Electronic contribution:      9.08827     -10.90731      -3.10989
Nuclear contribution   :     -8.97166      10.62900       3.05530
                        -----------------------------------------
Total Dipole Moment    :      0.11661      -0.27831      -0.05459
                        -----------------------------------------
Magnitude (a.u.)       :      0.30665
Magnitude (Debye)      :      0.77944

Rotational constants in cm-1:     0.042679     0.030349     0.022732
Rotational constants in MHz :  1279.483355   909.829905   681.486399

                             ****ORCA TERMINATED NORMALLY****
TOTAL RUN TIME: 0 days 0 hours 4 minutes 43 seconds 633 msec
