                         Program Version 5.0.3 -  RELEASE  -
|  1> ! EnGrad PBEh-3c
|  2> %output
|  3> xyzfile=True
|  4> end
|  5> %scf
|  6> maxiter 250
|  7> end
|  8> %output
|  9> Print[P_Hirshfeld] = 1
| 10> end
| 11> % maxcore
| 12> 4000
| 13> *xyz 1 1
| 14> Sc   1.51258399  -1.35430947  -1.64858929
| 15> C    0.46078285  -0.69451821   0.21813738
| 16> N   -0.43800115  -1.40899899   0.93125661
| 17> C   -0.88997694  -0.70931162   2.01729401
| 18> C   -0.20723068   0.45607010   2.02948607
| 19> N    0.61895368   0.44276351   0.93561802
| 20> C    1.50034367   1.55187632   0.57446345
| 21> H    1.82541887   2.06278480   1.47780373
| 22> H    0.98073875   2.25921369  -0.06533811
| 23> H    2.37992413   1.17100335   0.07087959
| 24> C   -0.97702765  -2.71811158   0.58440733
| 25> H   -0.43886255  -3.12947952  -0.26816844
| 26> H   -2.03364548  -2.65191756   0.32210021
| 27> H   -0.85716071  -3.39299464   1.42667264
| 28> H   -1.58041407  -1.11158405   2.73452393
| 29> H   -0.26548813   1.29028350   2.70078536
| 30> C   -0.22433405   1.58957571  -2.83075213
| 31> H   -0.83912679   1.11435648  -3.59691999
| 32> H   -0.51731036   2.65068235  -2.84843376
| 33> H   -0.73503412   1.23015645  -1.85181726
| 34> H    0.72583527   1.35405830  -2.91395964
| 35> *
| 36>
| 37>                          ****END OF INPUT****

CARTESIAN COORDINATES (ANGSTROEM)
---------------------------------
  Sc     1.512584   -1.354309   -1.648589
  C      0.460783   -0.694518    0.218137
  N     -0.438001   -1.408999    0.931257
  C     -0.889977   -0.709312    2.017294
  C     -0.207231    0.456070    2.029486
  N      0.618954    0.442764    0.935618
  C      1.500344    1.551876    0.574463
  H      1.825419    2.062785    1.477804
  H      0.980739    2.259214   -0.065338
  H      2.379924    1.171003    0.070880
  C     -0.977028   -2.718112    0.584407
  H     -0.438863   -3.129480   -0.268168
  H     -2.033645   -2.651918    0.322100
  H     -0.857161   -3.392995    1.426673
  H     -1.580414   -1.111584    2.734524
  H     -0.265488    1.290283    2.700785
  C     -0.224334    1.589576   -2.830752
  H     -0.839127    1.114356   -3.596920
  H     -0.517310    2.650682   -2.848434
  H     -0.735034    1.230156   -1.851817
  H      0.725835    1.354058   -2.913960

 Total Charge           Charge          ....    1
 Multiplicity           Mult            ....    1
 Number of Electrons    NEL             ....   82
 Basis Dimension        Dim             ....  175

ORBITAL ENERGIES
----------------

  NO   OCC          E(Eh)            E(eV)
   0   2.0000    -162.908298     -4432.9602
   1   2.0000     -18.218829      -495.7595
   2   2.0000     -15.059909      -409.8010
   3   2.0000     -15.057810      -409.7438
   4   2.0000     -15.043181      -409.3458
   5   2.0000     -14.870732      -404.6532
   6   2.0000     -14.869851      -404.6292
   7   2.0000     -10.653108      -289.8858
   8   2.0000     -10.633445      -289.3508
   9   2.0000     -10.631726      -289.3040
  10   2.0000     -10.623213      -289.0723
  11   2.0000     -10.622890      -289.0635
  12   2.0000     -10.537294      -286.7343
  13   2.0000      -2.427581       -66.0578
  14   2.0000      -1.575241       -42.8645
  15   2.0000      -1.568908       -42.6922
  16   2.0000      -1.558121       -42.3986
  17   2.0000      -1.314902       -35.7803
  18   2.0000      -1.191036       -32.4097
  19   2.0000      -1.028114       -27.9764
  20   2.0000      -0.986481       -26.8435
  21   2.0000      -0.929161       -25.2838
  22   2.0000      -0.905118       -24.6295
  23   2.0000      -0.847747       -23.0684
  24   2.0000      -0.809242       -22.0206
  25   2.0000      -0.755282       -20.5523
  26   2.0000      -0.706607       -19.2277
  27   2.0000      -0.679241       -18.4831
  28   2.0000      -0.661361       -17.9965
  29   2.0000      -0.658238       -17.9116
  30   2.0000      -0.654525       -17.8105
  31   2.0000      -0.613556       -16.6957
  32   2.0000      -0.605998       -16.4900
  33   2.0000      -0.602374       -16.3914
  34   2.0000      -0.594927       -16.1888
  35   2.0000      -0.556381       -15.1399
  36   2.0000      -0.547271       -14.8920
  37   2.0000      -0.526868       -14.3368
  38   2.0000      -0.490965       -13.3598
  39   2.0000      -0.441932       -12.0256
  40   2.0000      -0.329815        -8.9747
  41   0.0000      -0.188438        -5.1276
  42   0.0000      -0.184888        -5.0311
  43   0.0000      -0.184032        -5.0078
  44   0.0000      -0.171754        -4.6737
  45   0.0000      -0.168416        -4.5828

MULLIKEN ATOMIC CHARGES
-----------------------
   0 Sc:    0.520024
   1 C :    0.207568
   2 N :   -0.415810
   3 C :   -0.059450
   4 C :   -0.060619
   5 N :   -0.425986
   6 C :   -0.520301
   7 H :    0.279187
   8 H :    0.281645
   9 H :    0.260586
  10 C :   -0.518432
  11 H :    0.253269
  12 H :    0.280146
  13 H :    0.280114
  14 H :    0.305781
  15 H :    0.305364
  16 C :   -0.923727
  17 H :    0.257664
  18 H :    0.268130
  19 H :    0.189348
  20 H :    0.235502
Sum of atomic charges:    1.0000000

LOEWDIN ATOMIC CHARGES
----------------------
   0 Sc:    0.369770
   1 C :   -0.046417
   2 N :    0.009664
   3 C :   -0.077996
   4 C :   -0.072699
   5 N :    0.005690
   6 C :   -0.236548
   7 H :    0.157637
   8 H :    0.153629
   9 H :    0.151825
  10 C :   -0.237472
  11 H :    0.149444
  12 H :    0.155572
  13 H :    0.156293
  14 H :    0.170715
  15 H :    0.169022
  16 C :   -0.529842
  17 H :    0.148020
  18 H :    0.155293
  19 H :    0.123979
  20 H :    0.124421

  Mayer bond orders larger than 0.100000
B(  0-Sc,  1-C ) :   0.6959 B(  1-C ,  2-N ) :   1.2241 B(  1-C ,  5-N ) :   1.2212
B(  2-N ,  3-C ) :   1.1584 B(  2-N , 10-C ) :   0.9094 B(  3-C ,  4-C ) :   1.6208
B(  3-C , 14-H ) :   0.8774 B(  4-C ,  5-N ) :   1.1594 B(  4-C , 15-H ) :   0.8778
B(  5-N ,  6-C ) :   0.9052 B(  6-C ,  7-H ) :   0.9006 B(  6-C ,  8-H ) :   0.8877
B(  6-C ,  9-H ) :   0.8976 B( 10-C , 11-H ) :   0.8924 B( 10-C , 12-H ) :   0.8923
B( 10-C , 13-H ) :   0.8946 B( 16-C , 17-H ) :   0.9194 B( 16-C , 18-H ) :   0.9148
B( 16-C , 19-H ) :   0.9353 B( 16-C , 20-H ) :   0.9075

Dispersion correction           -0.011010190
FINAL SINGLE POINT ENERGY     -1104.436430461225
Dispersion correction            ... done

DIPOLE MOMENT
-------------
                                X             Y             Z
Electronic contribution:      9.11986     -10.92588      -3.01574
Nuclear contribution   :     -8.96918      10.61720       2.98379
                        -----------------------------------------
Total Dipole Moment    :      0.15068      -0.30868      -0.03195
                        -----------------------------------------
Magnitude (a.u.)       :      0.34497
Magnitude (Debye)      :      0.87685

Rotational constants in cm-1:     0.042468     0.030344     0.022787
Rotational constants in MHz :  1273.171311   909.693135   683.126426

                             ****ORCA TERMINATED NORMALLY****
TOTAL RUN TIME: 0 days 0 hours 4 minutes 42 seconds 799 msec
