                         Program Version 5.0.3 -  RELEASE  -
|  1> ! EnGrad PBEh-3c
|  2> %output
|  3> xyzfile=True
|  4> end
|  5> %scf
|  6> maxiter 250
|  7> end
|  8> %output
|  9> Print[P_Hirshfeld] = 1
| 10> end
| 11> % maxcore
| 12> 4000
| 13> *xyz 1 1
| 14> Sc   1.51945152  -1.35630736  -1.64250861
| 15> C    0.45693476  -0.69130564   0.23018223
| 16> N   -0.44276023  -1.40908284   0.92743017
| 17> C   -0.88495684  -0.71014394   2.01535334
| 18> C   -0.20249551   0.45622644   2.02853875
| 19> N    0.62073506   0.44198747   0.93191652
| 20> C    1.49557838   1.55017481   0.57837029
| 21> H    1.81855275   2.06262882   1.47843280
| 22> H    0.98418816   2.25700153  -0.07205645
| 23> H    2.38413205   1.16958166   0.06721831
| 24> C   -0.97554261  -2.71622999   0.58420972
| 25> H   -0.43960813  -3.12785433  -0.26670948
| 26> H   -2.03217817  -2.65020192   0.32363944
| 27> H   -0.85737914  -3.39435249   1.42782955
| 28> H   -1.58739074  -1.11131149   2.73358036
| 29> H   -0.26373921   1.29164884   2.70336633
| 30> C   -0.33531675   1.60273578  -2.80356684
| 31> H   -0.83038434   1.12406913  -3.59827593
| 32> H   -0.48129862   2.64532058  -2.85000147
| 33> H   -0.70370881   1.23857328  -1.87915731
| 34> H    0.75821172   1.32883320  -2.91842350
| 35> *
| 36>
| 37>                          ****END OF INPUT****

CARTESIAN COORDINATES (ANGSTROEM)
---------------------------------
  Sc     1.519452   -1.356307   -1.642509
  C      0.456935   -0.691306    0.230182
  N     -0.442760   -1.409083    0.927430
  C     -0.884957   -0.710144    2.015353
  C     -0.202496    0.456226    2.028539
  N      0.620735    0.441987    0.931917
  C      1.495578    1.550175    0.578370
  H      1.818553    2.062629    1.478433
  H      0.984188    2.257002   -0.072056
  H      2.384132    1.169582    0.067218
  C     -0.975543   -2.716230    0.584210
  H     -0.439608   -3.127854   -0.266709
  H     -2.032178   -2.650202    0.323639
  H     -0.857379   -3.394352    1.427830
  H     -1.587391   -1.111311    2.733580
  H     -0.263739    1.291649    2.703366
  C     -0.335317    1.602736   -2.803567
  H     -0.830384    1.124069   -3.598276
  H     -0.481299    2.645321   -2.850001
  H     -0.703709    1.238573   -1.879157
  H      0.758212    1.328833   -2.918423

 Total Charge           Charge          ....    1
 Multiplicity           Mult            ....    1
 Number of Electrons    NEL             ....   82
 Basis Dimension        Dim             ....  175

ORBITAL ENERGIES
----------------

  NO   OCC          E(Eh)            E(eV)
   0   2.0000    -162.908529     -4432.9664
   1   2.0000     -18.218977      -495.7636
   2   2.0000     -15.060089      -409.8059
   3   2.0000     -15.057940      -409.7474
   4   2.0000     -15.043332      -409.3499
   5   2.0000     -14.870849      -404.6564
   6   2.0000     -14.870526      -404.6476
   7   2.0000     -10.652163      -289.8601
   8   2.0000     -10.633552      -289.3537
   9   2.0000     -10.632311      -289.3199
  10   2.0000     -10.624344      -289.1031
  11   2.0000     -10.623561      -289.0818
  12   2.0000     -10.532950      -286.6161
  13   2.0000      -2.427586       -66.0580
  14   2.0000      -1.575333       -42.8670
  15   2.0000      -1.568842       -42.6904
  16   2.0000      -1.557984       -42.3949
  17   2.0000      -1.318726       -35.8843
  18   2.0000      -1.194844       -32.5134
  19   2.0000      -1.029097       -28.0032
  20   2.0000      -0.988416       -26.8962
  21   2.0000      -0.930013       -25.3069
  22   2.0000      -0.905490       -24.6396
  23   2.0000      -0.850303       -23.1379
  24   2.0000      -0.809435       -22.0259
  25   2.0000      -0.755723       -20.5643
  26   2.0000      -0.708899       -19.2901
  27   2.0000      -0.680400       -18.5146
  28   2.0000      -0.663088       -18.0435
  29   2.0000      -0.659639       -17.9497
  30   2.0000      -0.655159       -17.8278
  31   2.0000      -0.606309       -16.4985
  32   2.0000      -0.603433       -16.4203
  33   2.0000      -0.595154       -16.1950
  34   2.0000      -0.580491       -15.7960
  35   2.0000      -0.577783       -15.7223
  36   2.0000      -0.562071       -15.2947
  37   2.0000      -0.525661       -14.3040
  38   2.0000      -0.491874       -13.3846
  39   2.0000      -0.442474       -12.0403
  40   2.0000      -0.329534        -8.9671
  41   0.0000      -0.187528        -5.1029
  42   0.0000      -0.184842        -5.0298
  43   0.0000      -0.184065        -5.0086
  44   0.0000      -0.171415        -4.6644
  45   0.0000      -0.168827        -4.5940

MULLIKEN ATOMIC CHARGES
-----------------------
   0 Sc:    0.514164
   1 C :    0.211242
   2 N :   -0.411766
   3 C :   -0.061627
   4 C :   -0.065281
   5 N :   -0.420088
   6 C :   -0.522354
   7 H :    0.280672
   8 H :    0.281319
   9 H :    0.259626
  10 C :   -0.519619
  11 H :    0.254379
  12 H :    0.280549
  13 H :    0.279958
  14 H :    0.305444
  15 H :    0.305731
  16 C :   -0.911342
  17 H :    0.265373
  18 H :    0.272593
  19 H :    0.216969
  20 H :    0.184060
Sum of atomic charges:    1.0000000

LOEWDIN ATOMIC CHARGES
----------------------
   0 Sc:    0.365824
   1 C :   -0.049010
   2 N :    0.010899
   3 C :   -0.077910
   4 C :   -0.074834
   5 N :    0.008278
   6 C :   -0.237216
   7 H :    0.158083
   8 H :    0.153298
   9 H :    0.152462
  10 C :   -0.237811
  11 H :    0.149705
  12 H :    0.155787
  13 H :    0.156684
  14 H :    0.171270
  15 H :    0.169584
  16 C :   -0.519211
  17 H :    0.146149
  18 H :    0.151116
  19 H :    0.124722
  20 H :    0.122131

  Mayer bond orders larger than 0.100000
B(  0-Sc,  1-C ) :   0.6969 B(  1-C ,  2-N ) :   1.2248 B(  1-C ,  5-N ) :   1.2282
B(  2-N ,  3-C ) :   1.1593 B(  2-N , 10-C ) :   0.9103 B(  3-C ,  4-C ) :   1.6268
B(  3-C , 14-H ) :   0.8775 B(  4-C ,  5-N ) :   1.1557 B(  4-C , 15-H ) :   0.8775
B(  5-N ,  6-C ) :   0.9066 B(  6-C ,  7-H ) :   0.8994 B(  6-C ,  8-H ) :   0.8877
B(  6-C ,  9-H ) :   0.8976 B( 10-C , 11-H ) :   0.8920 B( 10-C , 12-H ) :   0.8922
B( 10-C , 13-H ) :   0.8946 B( 16-C , 17-H ) :   0.9152 B( 16-C , 18-H ) :   0.9133
B( 16-C , 19-H ) :   0.9227 B( 16-C , 20-H ) :   0.9270

Dispersion correction           -0.010985522
FINAL SINGLE POINT ENERGY     -1104.449030633980
Dispersion correction            ... done

DIPOLE MOMENT
-------------
                                X             Y             Z
Electronic contribution:      9.03208     -10.92137      -2.93001
Nuclear contribution   :     -8.83975      10.60674       2.89765
                        -----------------------------------------
Total Dipole Moment    :      0.19233      -0.31463      -0.03236
                        -----------------------------------------
Magnitude (a.u.)       :      0.37018
Magnitude (Debye)      :      0.94092

Rotational constants in cm-1:     0.041995     0.030355     0.022919
Rotational constants in MHz :  1258.980714   910.022289   687.097684

                             ****ORCA TERMINATED NORMALLY****
TOTAL RUN TIME: 0 days 0 hours 4 minutes 47 seconds 239 msec
