                         Program Version 5.0.3 -  RELEASE  -
|  1> ! EnGrad PBEh-3c
|  2> %output
|  3> xyzfile=True
|  4> end
|  5> %scf
|  6> maxiter 250
|  7> end
|  8> %output
|  9> Print[P_Hirshfeld] = 1
| 10> end
| 11> % maxcore
| 12> 4000
| 13> *xyz 1 1
| 14> Sc   1.52798608  -1.35780716  -1.63357687
| 15> C    0.45549447  -0.69112853   0.23278136
| 16> N   -0.44695150  -1.40757615   0.92710541
| 17> C   -0.88480295  -0.71077525   2.01749513
| 18> C   -0.19694295   0.45563998   2.03004669
| 19> N    0.62132109   0.44327143   0.93456319
| 20> C    1.49617777   1.54675799   0.57591130
| 21> H    1.80854645   2.06144753   1.48153955
| 22> H    0.98959799   2.25365733  -0.08048884
| 23> H    2.38526040   1.16945155   0.06320383
| 24> C   -0.97451714  -2.71585595   0.58553677
| 25> H   -0.43948246  -3.12615161  -0.26516767
| 26> H   -2.02992306  -2.64801896   0.32511248
| 27> H   -0.85808259  -3.39518769   1.42885864
| 28> H   -1.59504900  -1.10884501   2.72882934
| 29> H   -0.26131872   1.29271547   2.70514611
| 30> C   -0.34074529   1.59724241  -2.79867530
| 31> H   -0.83327794   1.12793566  -3.61262134
| 32> H   -0.44272293   2.66074453  -2.85094694
| 33> H   -0.68108720   1.23781312  -1.88252582
| 34> H    0.70171175   1.31729719  -2.91287379
| 35> *
| 36>
| 37>                          ****END OF INPUT****

CARTESIAN COORDINATES (ANGSTROEM)
---------------------------------
  Sc     1.527986   -1.357807   -1.633577
  C      0.455494   -0.691129    0.232781
  N     -0.446952   -1.407576    0.927105
  C     -0.884803   -0.710775    2.017495
  C     -0.196943    0.455640    2.030047
  N      0.621321    0.443271    0.934563
  C      1.496178    1.546758    0.575911
  H      1.808546    2.061448    1.481540
  H      0.989598    2.253657   -0.080489
  H      2.385260    1.169452    0.063204
  C     -0.974517   -2.715856    0.585537
  H     -0.439482   -3.126152   -0.265168
  H     -2.029923   -2.648019    0.325112
  H     -0.858083   -3.395188    1.428859
  H     -1.595049   -1.108845    2.728829
  H     -0.261319    1.292715    2.705146
  C     -0.340745    1.597242   -2.798675
  H     -0.833278    1.127936   -3.612621
  H     -0.442723    2.660745   -2.850947
  H     -0.681087    1.237813   -1.882526
  H      0.701712    1.317297   -2.912874

 Total Charge           Charge          ....    1
 Multiplicity           Mult            ....    1
 Number of Electrons    NEL             ....   82
 Basis Dimension        Dim             ....  175

ORBITAL ENERGIES
----------------

  NO   OCC          E(Eh)            E(eV)
   0   2.0000    -162.909067     -4432.9811
   1   2.0000     -18.219549      -495.7791
   2   2.0000     -15.060632      -409.8206
   3   2.0000     -15.058555      -409.7641
   4   2.0000     -15.043883      -409.3649
   5   2.0000     -14.871588      -404.6765
   6   2.0000     -14.871183      -404.6655
   7   2.0000     -10.652335      -289.8648
   8   2.0000     -10.634295      -289.3739
   9   2.0000     -10.632915      -289.3363
  10   2.0000     -10.625094      -289.1235
  11   2.0000     -10.623757      -289.0871
  12   2.0000     -10.527519      -286.4683
  13   2.0000      -2.428113       -66.0723
  14   2.0000      -1.575754       -42.8784
  15   2.0000      -1.569485       -42.7079
  16   2.0000      -1.558454       -42.4077
  17   2.0000      -1.319684       -35.9104
  18   2.0000      -1.196440       -32.5568
  19   2.0000      -1.029665       -28.0186
  20   2.0000      -0.988702       -26.9039
  21   2.0000      -0.931038       -25.3348
  22   2.0000      -0.908024       -24.7086
  23   2.0000      -0.851009       -23.1571
  24   2.0000      -0.810002       -22.0413
  25   2.0000      -0.756105       -20.5747
  26   2.0000      -0.709555       -19.3080
  27   2.0000      -0.681331       -18.5400
  28   2.0000      -0.664113       -18.0714
  29   2.0000      -0.660154       -17.9637
  30   2.0000      -0.655253       -17.8303
  31   2.0000      -0.607260       -16.5244
  32   2.0000      -0.604158       -16.4400
  33   2.0000      -0.595106       -16.1936
  34   2.0000      -0.583173       -15.8689
  35   2.0000      -0.576501       -15.6874
  36   2.0000      -0.563002       -15.3201
  37   2.0000      -0.525954       -14.3119
  38   2.0000      -0.492602       -13.4044
  39   2.0000      -0.442197       -12.0328
  40   2.0000      -0.330080        -8.9819
  41   0.0000      -0.187828        -5.1111
  42   0.0000      -0.185312        -5.0426
  43   0.0000      -0.184566        -5.0223
  44   0.0000      -0.171886        -4.6773
  45   0.0000      -0.169297        -4.6068

MULLIKEN ATOMIC CHARGES
-----------------------
   0 Sc:    0.513778
   1 C :    0.210314
   2 N :   -0.410635
   3 C :   -0.062655
   4 C :   -0.065627
   5 N :   -0.417621
   6 C :   -0.522518
   7 H :    0.279649
   8 H :    0.281413
   9 H :    0.260273
  10 C :   -0.520053
  11 H :    0.254634
  12 H :    0.280964
  13 H :    0.280256
  14 H :    0.305987
  15 H :    0.305902
  16 C :   -0.917933
  17 H :    0.261644
  18 H :    0.266720
  19 H :    0.220489
  20 H :    0.195017
Sum of atomic charges:    1.0000000

LOEWDIN ATOMIC CHARGES
----------------------
   0 Sc:    0.366899
   1 C :   -0.050012
   2 N :    0.012160
   3 C :   -0.078057
   4 C :   -0.074867
   5 N :    0.009284
   6 C :   -0.237406
   7 H :    0.158235
   8 H :    0.153273
   9 H :    0.152561
  10 C :   -0.237788
  11 H :    0.149769
  12 H :    0.155941
  13 H :    0.156955
  14 H :    0.171302
  15 H :    0.169773
  16 C :   -0.522717
  17 H :    0.147302
  18 H :    0.151870
  19 H :    0.124277
  20 H :    0.121245

  Mayer bond orders larger than 0.100000
B(  0-Sc,  1-C ) :   0.6976 B(  1-C ,  2-N ) :   1.2260 B(  1-C ,  5-N ) :   1.2252
B(  2-N ,  3-C ) :   1.1619 B(  2-N , 10-C ) :   0.9104 B(  3-C ,  4-C ) :   1.6230
B(  3-C , 14-H ) :   0.8772 B(  4-C ,  5-N ) :   1.1604 B(  4-C , 15-H ) :   0.8773
B(  5-N ,  6-C ) :   0.9070 B(  6-C ,  7-H ) :   0.9000 B(  6-C ,  8-H ) :   0.8872
B(  6-C ,  9-H ) :   0.8968 B( 10-C , 11-H ) :   0.8921 B( 10-C , 12-H ) :   0.8920
B( 10-C , 13-H ) :   0.8945 B( 16-C , 17-H ) :   0.9197 B( 16-C , 18-H ) :   0.9181
B( 16-C , 19-H ) :   0.9225 B( 16-C , 20-H ) :   0.9228

Dispersion correction           -0.010986974
FINAL SINGLE POINT ENERGY     -1104.449763420311
Dispersion correction            ... done

DIPOLE MOMENT
-------------
                                X             Y             Z
Electronic contribution:      9.10681     -10.96022      -2.84321
Nuclear contribution   :     -8.88627      10.62654       2.82411
                        -----------------------------------------
Total Dipole Moment    :      0.22054      -0.33368      -0.01910
                        -----------------------------------------
Magnitude (a.u.)       :      0.40043
Magnitude (Debye)      :      1.01781

Rotational constants in cm-1:     0.041973     0.030372     0.022962
Rotational constants in MHz :  1258.315135   910.525144   688.369121

                             ****ORCA TERMINATED NORMALLY****
TOTAL RUN TIME: 0 days 0 hours 4 minutes 41 seconds 586 msec
