                         Program Version 5.0.3 -  RELEASE  -
|  1> ! EnGrad PBEh-3c
|  2> %output
|  3> xyzfile=True
|  4> end
|  5> %scf
|  6> maxiter 250
|  7> end
|  8> %output
|  9> Print[P_Hirshfeld] = 1
| 10> end
| 11> % maxcore
| 12> 4000
| 13> *xyz 1 1
| 14> Sc   1.54173593  -1.36098819  -1.62167583
| 15> C    0.46373915  -0.70172526   0.24244652
| 16> N   -0.46463987  -1.39886943   0.92233042
| 17> C   -0.87328899  -0.71337642   2.02764469
| 18> C   -0.19786169   0.46115818   2.03082116
| 19> N    0.61593462   0.44395306   0.93133490
| 20> C    1.49562784   1.54387436   0.57263226
| 21> H    1.79969274   2.06012847   1.48037146
| 22> H    0.99402216   2.24832438  -0.08843876
| 23> H    2.38514360   1.16982183   0.06352570
| 24> C   -0.97531783  -2.71718909   0.58656318
| 25> H   -0.43783307  -3.12492432  -0.26414162
| 26> H   -2.02621371  -2.64396431   0.32740521
| 27> H   -0.85773358  -3.39506615   1.42869413
| 28> H   -1.60285195  -1.10425042   2.71951298
| 29> H   -0.25532427   1.29132845   2.70836500
| 30> C   -0.35338370   1.60422514  -2.81809326
| 31> H   -0.86092696   1.12722333  -3.64630080
| 32> H   -0.39431733   2.68696366  -2.85522522
| 33> H   -0.68108435   1.21894228  -1.84012585
| 34> H    0.68609062   1.30792624  -2.90843048
| 35> *
| 36>
| 37>                          ****END OF INPUT****

CARTESIAN COORDINATES (ANGSTROEM)
---------------------------------
  Sc     1.541736   -1.360988   -1.621676
  C      0.463739   -0.701725    0.242447
  N     -0.464640   -1.398869    0.922330
  C     -0.873289   -0.713376    2.027645
  C     -0.197862    0.461158    2.030821
  N      0.615935    0.443953    0.931335
  C      1.495628    1.543874    0.572632
  H      1.799693    2.060128    1.480371
  H      0.994022    2.248324   -0.088439
  H      2.385144    1.169822    0.063526
  C     -0.975318   -2.717189    0.586563
  H     -0.437833   -3.124924   -0.264142
  H     -2.026214   -2.643964    0.327405
  H     -0.857734   -3.395066    1.428694
  H     -1.602852   -1.104250    2.719513
  H     -0.255324    1.291328    2.708365
  C     -0.353384    1.604225   -2.818093
  H     -0.860927    1.127223   -3.646301
  H     -0.394317    2.686964   -2.855225
  H     -0.681084    1.218942   -1.840126
  H      0.686091    1.307926   -2.908430

 Total Charge           Charge          ....    1
 Multiplicity           Mult            ....    1
 Number of Electrons    NEL             ....   82
 Basis Dimension        Dim             ....  175

ORBITAL ENERGIES
----------------

  NO   OCC          E(Eh)            E(eV)
   0   2.0000    -162.909016     -4432.9797
   1   2.0000     -18.219488      -495.7775
   2   2.0000     -15.060565      -409.8188
   3   2.0000     -15.058504      -409.7627
   4   2.0000     -15.043816      -409.3630
   5   2.0000     -14.871457      -404.6729
   6   2.0000     -14.871256      -404.6675
   7   2.0000     -10.652138      -289.8594
   8   2.0000     -10.634229      -289.3721
   9   2.0000     -10.632839      -289.3343
  10   2.0000     -10.624821      -289.1161
  11   2.0000     -10.623531      -289.0810
  12   2.0000     -10.537582      -286.7422
  13   2.0000      -2.428102       -66.0720
  14   2.0000      -1.575716       -42.8774
  15   2.0000      -1.569538       -42.7093
  16   2.0000      -1.558458       -42.4078
  17   2.0000      -1.319656       -35.9097
  18   2.0000      -1.196354       -32.5544
  19   2.0000      -1.029869       -28.0242
  20   2.0000      -0.988720       -26.9044
  21   2.0000      -0.931705       -25.3530
  22   2.0000      -0.899693       -24.4819
  23   2.0000      -0.851285       -23.1646
  24   2.0000      -0.810216       -22.0471
  25   2.0000      -0.756554       -20.5869
  26   2.0000      -0.709697       -19.3118
  27   2.0000      -0.681785       -18.5523
  28   2.0000      -0.663971       -18.0676
  29   2.0000      -0.661090       -17.9892
  30   2.0000      -0.655422       -17.8349
  31   2.0000      -0.608326       -16.5534
  32   2.0000      -0.604455       -16.4481
  33   2.0000      -0.595567       -16.2062
  34   2.0000      -0.573694       -15.6110
  35   2.0000      -0.572943       -15.5906
  36   2.0000      -0.559960       -15.2373
  37   2.0000      -0.526232       -14.3195
  38   2.0000      -0.492832       -13.4106
  39   2.0000      -0.441994       -12.0273
  40   2.0000      -0.330243        -8.9864
  41   0.0000      -0.188030        -5.1166
  42   0.0000      -0.185359        -5.0439
  43   0.0000      -0.184674        -5.0252
  44   0.0000      -0.171933        -4.6785
  45   0.0000      -0.169134        -4.6024

MULLIKEN ATOMIC CHARGES
-----------------------
   0 Sc:    0.513497
   1 C :    0.208562
   2 N :   -0.410693
   3 C :   -0.062650
   4 C :   -0.065367
   5 N :   -0.418872
   6 C :   -0.522150
   7 H :    0.278837
   8 H :    0.281018
   9 H :    0.260719
  10 C :   -0.519144
  11 H :    0.254516
  12 H :    0.281409
  13 H :    0.280589
  14 H :    0.306195
  15 H :    0.306962
  16 C :   -0.900754
  17 H :    0.260116
  18 H :    0.265077
  19 H :    0.204813
  20 H :    0.197321
Sum of atomic charges:    1.0000000

LOEWDIN ATOMIC CHARGES
----------------------
   0 Sc:    0.366042
   1 C :   -0.050874
   2 N :    0.012489
   3 C :   -0.077329
   4 C :   -0.074870
   5 N :    0.009355
   6 C :   -0.237625
   7 H :    0.158043
   8 H :    0.152903
   9 H :    0.152485
  10 C :   -0.236699
  11 H :    0.150117
  12 H :    0.155852
  13 H :    0.157025
  14 H :    0.170560
  15 H :    0.169735
  16 C :   -0.518687
  17 H :    0.148620
  18 H :    0.151621
  19 H :    0.122866
  20 H :    0.118369

  Mayer bond orders larger than 0.100000
B(  0-Sc,  1-C ) :   0.6984 B(  1-C ,  2-N ) :   1.2258 B(  1-C ,  5-N ) :   1.2240
B(  2-N ,  3-C ) :   1.1665 B(  2-N , 10-C ) :   0.9092 B(  3-C ,  4-C ) :   1.6220
B(  3-C , 14-H ) :   0.8770 B(  4-C ,  5-N ) :   1.1599 B(  4-C , 15-H ) :   0.8766
B(  5-N ,  6-C ) :   0.9072 B(  6-C ,  7-H ) :   0.9005 B(  6-C ,  8-H ) :   0.8873
B(  6-C ,  9-H ) :   0.8962 B( 10-C , 11-H ) :   0.8925 B( 10-C , 12-H ) :   0.8923
B( 10-C , 13-H ) :   0.8944 B( 16-C , 17-H ) :   0.9191 B( 16-C , 18-H ) :   0.9163
B( 16-C , 19-H ) :   0.9284 B( 16-C , 20-H ) :   0.9170

Dispersion correction           -0.010988780
FINAL SINGLE POINT ENERGY     -1104.451348274339
Dispersion correction            ... done

DIPOLE MOMENT
-------------
                                X             Y             Z
Electronic contribution:      9.18978     -10.98342      -2.78486
Nuclear contribution   :     -8.93949      10.63883       2.76652
                        -----------------------------------------
Total Dipole Moment    :      0.25030      -0.34459      -0.01834
                        -----------------------------------------
Magnitude (a.u.)       :      0.42630
Magnitude (Debye)      :      1.08356

Rotational constants in cm-1:     0.041782     0.030256     0.022946
Rotational constants in MHz :  1252.599151   907.044729   687.903890

                             ****ORCA TERMINATED NORMALLY****
TOTAL RUN TIME: 0 days 0 hours 4 minutes 42 seconds 550 msec
