                         Program Version 5.0.3 -  RELEASE  -
|  1> ! EnGrad PBEh-3c
|  2> %output
|  3> xyzfile=True
|  4> end
|  5> %scf
|  6> maxiter 250
|  7> end
|  8> %output
|  9> Print[P_Hirshfeld] = 1
| 10> end
| 11> % maxcore
| 12> 4000
| 13> *xyz 1 1
| 14> Sc   1.55856499  -1.36486862  -1.60701372
| 15> C    0.46907418  -0.71005045   0.24934072
| 16> N   -0.47372773  -1.39430535   0.92010614
| 17> C   -0.86650703  -0.71071393   2.03727720
| 18> C   -0.19962257   0.45968003   2.02968132
| 19> N    0.61212651   0.44241865   0.92864652
| 20> C    1.49367742   1.54270822   0.57003069
| 21> H    1.78984259   2.06004264   1.47668916
| 22> H    0.99745063   2.24200525  -0.09774586
| 23> H    2.38600305   1.16929170   0.06707961
| 24> C   -0.97644442  -2.71501057   0.58788112
| 25> H   -0.43641737  -3.12250220  -0.26422600
| 26> H   -2.02676158  -2.64144567   0.32941109
| 27> H   -0.85593859  -3.39485103   1.42907683
| 28> H   -1.61060504  -1.09934062   2.71154724
| 29> H   -0.24750370   1.29239193   2.71527772
| 30> C   -0.38466400   1.60347080  -2.81349606
| 31> H   -0.89194013   1.13998953  -3.66913634
| 32> H   -0.34157565   2.70048500  -2.86019439
| 33> H   -0.67984602   1.21611862  -1.82993811
| 34> H    0.68597824   1.28903410  -2.91111345
| 35> *
| 36>
| 37>                          ****END OF INPUT****

CARTESIAN COORDINATES (ANGSTROEM)
---------------------------------
  Sc     1.558565   -1.364869   -1.607014
  C      0.469074   -0.710050    0.249341
  N     -0.473728   -1.394305    0.920106
  C     -0.866507   -0.710714    2.037277
  C     -0.199623    0.459680    2.029681
  N      0.612127    0.442419    0.928647
  C      1.493677    1.542708    0.570031
  H      1.789843    2.060043    1.476689
  H      0.997451    2.242005   -0.097746
  H      2.386003    1.169292    0.067080
  C     -0.976444   -2.715011    0.587881
  H     -0.436417   -3.122502   -0.264226
  H     -2.026762   -2.641446    0.329411
  H     -0.855939   -3.394851    1.429077
  H     -1.610605   -1.099341    2.711547
  H     -0.247504    1.292392    2.715278
  C     -0.384664    1.603471   -2.813496
  H     -0.891940    1.139990   -3.669136
  H     -0.341576    2.700485   -2.860194
  H     -0.679846    1.216119   -1.829938
  H      0.685978    1.289034   -2.911113

 Total Charge           Charge          ....    1
 Multiplicity           Mult            ....    1
 Number of Electrons    NEL             ....   82
 Basis Dimension        Dim             ....  175

ORBITAL ENERGIES
----------------

  NO   OCC          E(Eh)            E(eV)
   0   2.0000    -162.908605     -4432.9685
   1   2.0000     -18.219070      -495.7661
   2   2.0000     -15.060162      -409.8078
   3   2.0000     -15.058064      -409.7508
   4   2.0000     -15.043404      -409.3518
   5   2.0000     -14.870928      -404.6585
   6   2.0000     -14.870820      -404.6556
   7   2.0000     -10.652184      -289.8607
   8   2.0000     -10.634222      -289.3719
   9   2.0000     -10.632181      -289.3164
  10   2.0000     -10.624648      -289.1114
  11   2.0000     -10.623313      -289.0750
  12   2.0000     -10.544553      -286.9319
  13   2.0000      -2.427811       -66.0641
  14   2.0000      -1.575478       -42.8709
  15   2.0000      -1.569215       -42.7005
  16   2.0000      -1.558248       -42.4021
  17   2.0000      -1.319827       -35.9143
  18   2.0000      -1.195659       -32.5355
  19   2.0000      -1.030962       -28.0539
  20   2.0000      -0.988886       -26.9090
  21   2.0000      -0.931323       -25.3426
  22   2.0000      -0.894998       -24.3541
  23   2.0000      -0.850877       -23.1535
  24   2.0000      -0.810526       -22.0555
  25   2.0000      -0.756442       -20.5838
  26   2.0000      -0.709849       -19.3160
  27   2.0000      -0.681236       -18.5374
  28   2.0000      -0.662705       -18.0331
  29   2.0000      -0.661113       -17.9898
  30   2.0000      -0.656374       -17.8608
  31   2.0000      -0.608937       -16.5700
  32   2.0000      -0.604064       -16.4374
  33   2.0000      -0.595885       -16.2149
  34   2.0000      -0.577005       -15.7011
  35   2.0000      -0.570444       -15.5226
  36   2.0000      -0.549604       -14.9555
  37   2.0000      -0.526662       -14.3312
  38   2.0000      -0.492253       -13.3949
  39   2.0000      -0.443380       -12.0650
  40   2.0000      -0.330039        -8.9808
  41   0.0000      -0.188255        -5.1227
  42   0.0000      -0.185134        -5.0378
  43   0.0000      -0.184535        -5.0215
  44   0.0000      -0.171773        -4.6742
  45   0.0000      -0.168850        -4.5946

MULLIKEN ATOMIC CHARGES
-----------------------
   0 Sc:    0.513413
   1 C :    0.208421
   2 N :   -0.410719
   3 C :   -0.062360
   4 C :   -0.063589
   5 N :   -0.420097
   6 C :   -0.521556
   7 H :    0.278787
   8 H :    0.280823
   9 H :    0.260797
  10 C :   -0.519032
  11 H :    0.253923
  12 H :    0.281180
  13 H :    0.280164
  14 H :    0.305524
  15 H :    0.306318
  16 C :   -0.890711
  17 H :    0.260366
  18 H :    0.262699
  19 H :    0.209498
  20 H :    0.186152
Sum of atomic charges:    1.0000000

LOEWDIN ATOMIC CHARGES
----------------------
   0 Sc:    0.364467
   1 C :   -0.049841
   2 N :    0.011540
   3 C :   -0.076775
   4 C :   -0.074643
   5 N :    0.008239
   6 C :   -0.237354
   7 H :    0.157845
   8 H :    0.152565
   9 H :    0.152493
  10 C :   -0.237060
  11 H :    0.150260
  12 H :    0.155627
  13 H :    0.156796
  14 H :    0.170270
  15 H :    0.170532
  16 C :   -0.516830
  17 H :    0.150670
  18 H :    0.151911
  19 H :    0.123715
  20 H :    0.115572

  Mayer bond orders larger than 0.100000
B(  0-Sc,  1-C ) :   0.6975 B(  1-C ,  2-N ) :   1.2294 B(  1-C ,  5-N ) :   1.2234
B(  2-N ,  3-C ) :   1.1613 B(  2-N , 10-C ) :   0.9100 B(  3-C ,  4-C ) :   1.6277
B(  3-C , 14-H ) :   0.8774 B(  4-C ,  5-N ) :   1.1559 B(  4-C , 15-H ) :   0.8770
B(  5-N ,  6-C ) :   0.9070 B(  6-C ,  7-H ) :   0.9007 B(  6-C ,  8-H ) :   0.8876
B(  6-C ,  9-H ) :   0.8957 B( 10-C , 11-H ) :   0.8927 B( 10-C , 12-H ) :   0.8925
B( 10-C , 13-H ) :   0.8944 B( 16-C , 17-H ) :   0.9182 B( 16-C , 18-H ) :   0.9154
B( 16-C , 19-H ) :   0.9249 B( 16-C , 20-H ) :   0.9187

Dispersion correction           -0.010985105
FINAL SINGLE POINT ENERGY     -1104.448808486174
Dispersion correction            ... done

DIPOLE MOMENT
-------------
                                X             Y             Z
Electronic contribution:      9.26039     -11.00714      -2.68405
Nuclear contribution   :     -8.98386      10.66892       2.65674
                        -----------------------------------------
Total Dipole Moment    :      0.27653      -0.33822      -0.02730
                        -----------------------------------------
Magnitude (a.u.)       :      0.43773
Magnitude (Debye)      :      1.11262

Rotational constants in cm-1:     0.041583     0.030212     0.023004
Rotational constants in MHz :  1246.632481   905.746172   689.638589

                             ****ORCA TERMINATED NORMALLY****
TOTAL RUN TIME: 0 days 0 hours 4 minutes 42 seconds 245 msec
