                         Program Version 5.0.3 -  RELEASE  -
|  1> ! EnGrad PBEh-3c
|  2> %output
|  3> xyzfile=True
|  4> end
|  5> %scf
|  6> maxiter 250
|  7> end
|  8> %output
|  9> Print[P_Hirshfeld] = 1
| 10> end
| 11> % maxcore
| 12> 4000
| 13> *xyz 1 1
| 14> Sc   1.56664202  -1.36677652  -1.60177800
| 15> C    0.46885594  -0.71224859   0.24704389
| 16> N   -0.46760838  -1.39662963   0.92572537
| 17> C   -0.87412358  -0.71594822   2.03516263
| 18> C   -0.19753788   0.46857001   2.03105193
| 19> N    0.61294127   0.44202496   0.92909027
| 20> C    1.49138600   1.53966903   0.56729494
| 21> H    1.78985878   2.06269408   1.47392384
| 22> H    0.99464919   2.24078045  -0.10021636
| 23> H    2.38576618   1.16846914   0.07361877
| 24> C   -0.97737851  -2.71345705   0.58737538
| 25> H   -0.43658968  -3.12024269  -0.26404022
| 26> H   -2.03128857  -2.64285680   0.32912836
| 27> H   -0.85395232  -3.39328238   1.42887564
| 28> H   -1.61136205  -1.09660321   2.71139716
| 29> H   -0.24279196   1.28988246   2.71661225
| 30> C   -0.35872376   1.59180975  -2.80985541
| 31> H   -0.91169328   1.15635959  -3.66164011
| 32> H   -0.33627722   2.68957452  -2.86136705
| 33> H   -0.69676931   1.22608822  -1.84124131
| 34> H    0.68704432   1.28717610  -2.91683423
| 35> *
| 36>
| 37>                          ****END OF INPUT****

CARTESIAN COORDINATES (ANGSTROEM)
---------------------------------
  Sc     1.566642   -1.366777   -1.601778
  C      0.468856   -0.712249    0.247044
  N     -0.467608   -1.396630    0.925725
  C     -0.874124   -0.715948    2.035163
  C     -0.197538    0.468570    2.031052
  N      0.612941    0.442025    0.929090
  C      1.491386    1.539669    0.567295
  H      1.789859    2.062694    1.473924
  H      0.994649    2.240780   -0.100216
  H      2.385766    1.168469    0.073619
  C     -0.977379   -2.713457    0.587375
  H     -0.436590   -3.120243   -0.264040
  H     -2.031289   -2.642857    0.329128
  H     -0.853952   -3.393282    1.428876
  H     -1.611362   -1.096603    2.711397
  H     -0.242792    1.289882    2.716612
  C     -0.358724    1.591810   -2.809855
  H     -0.911693    1.156360   -3.661640
  H     -0.336277    2.689575   -2.861367
  H     -0.696769    1.226088   -1.841241
  H      0.687044    1.287176   -2.916834

 Total Charge           Charge          ....    1
 Multiplicity           Mult            ....    1
 Number of Electrons    NEL             ....   82
 Basis Dimension        Dim             ....  175

ORBITAL ENERGIES
----------------

  NO   OCC          E(Eh)            E(eV)
   0   2.0000    -162.908414     -4432.9633
   1   2.0000     -18.218905      -495.7616
   2   2.0000     -15.059998      -409.8034
   3   2.0000     -15.057883      -409.7458
   4   2.0000     -15.043253      -409.3477
   5   2.0000     -14.871831      -404.6831
   6   2.0000     -14.871605      -404.6769
   7   2.0000     -10.652028      -289.8564
   8   2.0000     -10.635572      -289.4086
   9   2.0000     -10.633511      -289.3525
  10   2.0000     -10.624157      -289.0980
  11   2.0000     -10.623600      -289.0828
  12   2.0000     -10.541050      -286.8366
  13   2.0000      -2.427639       -66.0594
  14   2.0000      -1.575320       -42.8666
  15   2.0000      -1.568988       -42.6943
  16   2.0000      -1.558117       -42.3985
  17   2.0000      -1.319285       -35.8996
  18   2.0000      -1.196613       -32.5615
  19   2.0000      -1.029124       -28.0039
  20   2.0000      -0.989034       -26.9130
  21   2.0000      -0.931485       -25.3470
  22   2.0000      -0.896385       -24.3919
  23   2.0000      -0.851990       -23.1838
  24   2.0000      -0.809722       -22.0337
  25   2.0000      -0.757020       -20.5996
  26   2.0000      -0.709661       -19.3108
  27   2.0000      -0.683220       -18.5914
  28   2.0000      -0.664655       -18.0862
  29   2.0000      -0.661269       -17.9941
  30   2.0000      -0.655009       -17.8237
  31   2.0000      -0.607394       -16.5280
  32   2.0000      -0.603920       -16.4335
  33   2.0000      -0.595205       -16.1963
  34   2.0000      -0.575445       -15.6587
  35   2.0000      -0.565062       -15.3761
  36   2.0000      -0.559835       -15.2339
  37   2.0000      -0.527512       -14.3543
  38   2.0000      -0.492922       -13.4131
  39   2.0000      -0.441215       -12.0061
  40   2.0000      -0.329839        -8.9754
  41   0.0000      -0.188113        -5.1188
  42   0.0000      -0.184932        -5.0323
  43   0.0000      -0.184274        -5.0144
  44   0.0000      -0.171735        -4.6732
  45   0.0000      -0.168656        -4.5894

MULLIKEN ATOMIC CHARGES
-----------------------
   0 Sc:    0.514808
   1 C :    0.206357
   2 N :   -0.408425
   3 C :   -0.064265
   4 C :   -0.064907
   5 N :   -0.418959
   6 C :   -0.523227
   7 H :    0.278232
   8 H :    0.281158
   9 H :    0.261337
  10 C :   -0.519414
  11 H :    0.254316
  12 H :    0.281013
  13 H :    0.280017
  14 H :    0.307050
  15 H :    0.307971
  16 C :   -0.898312
  17 H :    0.257364
  18 H :    0.260845
  19 H :    0.211395
  20 H :    0.195647
Sum of atomic charges:    1.0000000

LOEWDIN ATOMIC CHARGES
----------------------
   0 Sc:    0.364979
   1 C :   -0.051575
   2 N :    0.013872
   3 C :   -0.076812
   4 C :   -0.073423
   5 N :    0.009378
   6 C :   -0.238621
   7 H :    0.157815
   8 H :    0.152929
   9 H :    0.152210
  10 C :   -0.237053
  11 H :    0.150234
  12 H :    0.155981
  13 H :    0.156782
  14 H :    0.169772
  15 H :    0.169804
  16 C :   -0.520374
  17 H :    0.150418
  18 H :    0.150982
  19 H :    0.124306
  20 H :    0.118397

  Mayer bond orders larger than 0.100000
B(  0-Sc,  1-C ) :   0.6974 B(  1-C ,  2-N ) :   1.2270 B(  1-C ,  5-N ) :   1.2182
B(  2-N ,  3-C ) :   1.1707 B(  2-N , 10-C ) :   0.9097 B(  3-C ,  4-C ) :   1.6162
B(  3-C , 14-H ) :   0.8765 B(  4-C ,  5-N ) :   1.1635 B(  4-C , 15-H ) :   0.8760
B(  5-N ,  6-C ) :   0.9085 B(  6-C ,  7-H ) :   0.9008 B(  6-C ,  8-H ) :   0.8873
B(  6-C ,  9-H ) :   0.8954 B( 10-C , 11-H ) :   0.8925 B( 10-C , 12-H ) :   0.8925
B( 10-C , 13-H ) :   0.8945 B( 16-C , 17-H ) :   0.9210 B( 16-C , 18-H ) :   0.9171
B( 16-C , 19-H ) :   0.9251 B( 16-C , 20-H ) :   0.9162

Dispersion correction           -0.010993063
FINAL SINGLE POINT ENERGY     -1104.451203104740
Dispersion correction            ... done

DIPOLE MOMENT
-------------
                                X             Y             Z
Electronic contribution:      9.32569     -11.03447      -2.63711
Nuclear contribution   :     -9.07042      10.70334       2.61919
                        -----------------------------------------
Total Dipole Moment    :      0.25526      -0.33113      -0.01792
                        -----------------------------------------
Magnitude (a.u.)       :      0.41848
Magnitude (Debye)      :      1.06369

Rotational constants in cm-1:     0.041676     0.030238     0.023010
Rotational constants in MHz :  1249.421979   906.506208   689.813240

                             ****ORCA TERMINATED NORMALLY****
TOTAL RUN TIME: 0 days 0 hours 4 minutes 46 seconds 467 msec
