                         Program Version 5.0.3 -  RELEASE  -
|  1> ! EnGrad PBEh-3c
|  2> %output
|  3> xyzfile=True
|  4> end
|  5> %scf
|  6> maxiter 250
|  7> end
|  8> %output
|  9> Print[P_Hirshfeld] = 1
| 10> end
| 11> % maxcore
| 12> 4000
| 13> *xyz 1 1
| 14> Sc   1.57337162  -1.36834675  -1.59768198
| 15> C    0.46737788  -0.71061247   0.24370466
| 16> N   -0.46031333  -1.40168180   0.93210944
| 17> C   -0.87582485  -0.70879525   2.02992304
| 18> C   -0.19969216   0.46249103   2.02900962
| 19> N    0.61372048   0.44127541   0.93196193
| 20> C    1.49019793   1.53939142   0.56580514
| 21> H    1.78978248   2.06536943   1.47072157
| 22> H    0.99153931   2.23951927  -0.10208239
| 23> H    2.38625520   1.16722110   0.07951383
| 24> C   -0.97883827  -2.71277874   0.58724715
| 25> H   -0.43739450  -3.11778402  -0.26424087
| 26> H   -2.03505648  -2.64457494   0.32909929
| 27> H   -0.85221054  -3.39164354   1.42808463
| 28> H   -1.61341443  -1.09619106   2.71457067
| 29> H   -0.23876421   1.29071716   2.71957613
| 30> C   -0.32932450   1.58436481  -2.81599637
| 31> H   -0.92421468   1.17464686  -3.64560566
| 32> H   -0.33629719   2.67388914  -2.86075913
| 33> H   -0.71477057   1.23673777  -1.85237502
| 34> H    0.68480423   1.28228814  -2.92304286
| 35> *
| 36>
| 37>                          ****END OF INPUT****

CARTESIAN COORDINATES (ANGSTROEM)
---------------------------------
  Sc     1.573372   -1.368347   -1.597682
  C      0.467378   -0.710612    0.243705
  N     -0.460313   -1.401682    0.932109
  C     -0.875825   -0.708795    2.029923
  C     -0.199692    0.462491    2.029010
  N      0.613720    0.441275    0.931962
  C      1.490198    1.539391    0.565805
  H      1.789782    2.065369    1.470722
  H      0.991539    2.239519   -0.102082
  H      2.386255    1.167221    0.079514
  C     -0.978838   -2.712779    0.587247
  H     -0.437395   -3.117784   -0.264241
  H     -2.035056   -2.644575    0.329099
  H     -0.852211   -3.391644    1.428085
  H     -1.613414   -1.096191    2.714571
  H     -0.238764    1.290717    2.719576
  C     -0.329325    1.584365   -2.815996
  H     -0.924215    1.174647   -3.645606
  H     -0.336297    2.673889   -2.860759
  H     -0.714771    1.236738   -1.852375
  H      0.684804    1.282288   -2.923043

 Total Charge           Charge          ....    1
 Multiplicity           Mult            ....    1
 Number of Electrons    NEL             ....   82
 Basis Dimension        Dim             ....  175

ORBITAL ENERGIES
----------------

  NO   OCC          E(Eh)            E(eV)
   0   2.0000    -162.908502     -4432.9657
   1   2.0000     -18.219017      -495.7647
   2   2.0000     -15.060103      -409.8062
   3   2.0000     -15.058002      -409.7491
   4   2.0000     -15.043362      -409.3507
   5   2.0000     -14.871328      -404.6694
   6   2.0000     -14.871016      -404.6609
   7   2.0000     -10.652202      -289.8612
   8   2.0000     -10.634655      -289.3837
   9   2.0000     -10.632648      -289.3291
  10   2.0000     -10.623930      -289.0918
  11   2.0000     -10.623493      -289.0799
  12   2.0000     -10.536362      -286.7090
  13   2.0000      -2.427736       -66.0621
  14   2.0000      -1.575394       -42.8686
  15   2.0000      -1.569093       -42.6972
  16   2.0000      -1.558208       -42.4010
  17   2.0000      -1.319557       -35.9070
  18   2.0000      -1.196148       -32.5488
  19   2.0000      -1.030526       -28.0420
  20   2.0000      -0.988291       -26.8928
  21   2.0000      -0.931400       -25.3447
  22   2.0000      -0.899216       -24.4689
  23   2.0000      -0.850345       -23.1391
  24   2.0000      -0.810572       -22.0568
  25   2.0000      -0.756306       -20.5801
  26   2.0000      -0.709674       -19.3112
  27   2.0000      -0.680899       -18.5282
  28   2.0000      -0.663451       -18.0534
  29   2.0000      -0.661069       -17.9886
  30   2.0000      -0.655203       -17.8290
  31   2.0000      -0.607763       -16.5381
  32   2.0000      -0.603047       -16.4098
  33   2.0000      -0.595585       -16.2067
  34   2.0000      -0.573614       -15.6088
  35   2.0000      -0.569903       -15.5078
  36   2.0000      -0.562464       -15.3054
  37   2.0000      -0.527639       -14.3578
  38   2.0000      -0.492589       -13.4040
  39   2.0000      -0.442230       -12.0337
  40   2.0000      -0.329918        -8.9775
  41   0.0000      -0.188217        -5.1216
  42   0.0000      -0.184988        -5.0338
  43   0.0000      -0.184292        -5.0149
  44   0.0000      -0.171862        -4.6766
  45   0.0000      -0.168690        -4.5903

MULLIKEN ATOMIC CHARGES
-----------------------
   0 Sc:    0.516653
   1 C :    0.205849
   2 N :   -0.409621
   3 C :   -0.062082
   4 C :   -0.064081
   5 N :   -0.418593
   6 C :   -0.523270
   7 H :    0.278090
   8 H :    0.281441
   9 H :    0.261356
  10 C :   -0.518896
  11 H :    0.254055
  12 H :    0.280626
  13 H :    0.279678
  14 H :    0.306227
  15 H :    0.306754
  16 C :   -0.906538
  17 H :    0.257228
  18 H :    0.261354
  19 H :    0.208335
  20 H :    0.205434
Sum of atomic charges:    1.0000000

LOEWDIN ATOMIC CHARGES
----------------------
   0 Sc:    0.366646
   1 C :   -0.049836
   2 N :    0.013117
   3 C :   -0.077823
   4 C :   -0.074469
   5 N :    0.009093
   6 C :   -0.238635
   7 H :    0.157662
   8 H :    0.153246
   9 H :    0.152063
  10 C :   -0.237089
  11 H :    0.150100
  12 H :    0.156032
  13 H :    0.156497
  14 H :    0.170630
  15 H :    0.170500
  16 C :   -0.523194
  17 H :    0.150028
  18 H :    0.150186
  19 H :    0.124604
  20 H :    0.120644

  Mayer bond orders larger than 0.100000
B(  0-Sc,  1-C ) :   0.6971 B(  1-C ,  2-N ) :   1.2275 B(  1-C ,  5-N ) :   1.2197
B(  2-N ,  3-C ) :   1.1671 B(  2-N , 10-C ) :   0.9103 B(  3-C ,  4-C ) :   1.6188
B(  3-C , 14-H ) :   0.8770 B(  4-C ,  5-N ) :   1.1617 B(  4-C , 15-H ) :   0.8768
B(  5-N ,  6-C ) :   0.9088 B(  6-C ,  7-H ) :   0.9009 B(  6-C ,  8-H ) :   0.8872
B(  6-C ,  9-H ) :   0.8954 B( 10-C , 11-H ) :   0.8924 B( 10-C , 12-H ) :   0.8926
B( 10-C , 13-H ) :   0.8947 B( 16-C , 17-H ) :   0.9221 B( 16-C , 18-H ) :   0.9178
B( 16-C , 19-H ) :   0.9281 B( 16-C , 20-H ) :   0.9142

Dispersion correction           -0.010982300
FINAL SINGLE POINT ENERGY     -1104.452370871326
Dispersion correction            ... done

DIPOLE MOMENT
-------------
                                X             Y             Z
Electronic contribution:      9.39775     -11.05474      -2.62195
Nuclear contribution   :     -9.15749      10.72943       2.60753
                        -----------------------------------------
Total Dipole Moment    :      0.24026      -0.32532      -0.01442
                        -----------------------------------------
Magnitude (a.u.)       :      0.40468
Magnitude (Debye)      :      1.02861

Rotational constants in cm-1:     0.041791     0.030245     0.023006
Rotational constants in MHz :  1252.859191   906.726663   689.709180

                             ****ORCA TERMINATED NORMALLY****
TOTAL RUN TIME: 0 days 0 hours 4 minutes 45 seconds 251 msec
