                         Program Version 5.0.3 -  RELEASE  -
|  1> ! EnGrad PBEh-3c
|  2> %output
|  3> xyzfile=True
|  4> end
|  5> %scf
|  6> maxiter 250
|  7> end
|  8> %output
|  9> Print[P_Hirshfeld] = 1
| 10> end
| 11> % maxcore
| 12> 4000
| 13> *xyz 1 1
| 14> Sc   1.59555791  -1.37358241  -1.58357752
| 15> C    0.46284358  -0.70608745   0.23841787
| 16> N   -0.44057809  -1.41326116   0.94455249
| 17> C   -0.89037788  -0.70118069   2.02275798
| 18> C   -0.20076233   0.46061595   2.02961762
| 19> N    0.61704315   0.43706137   0.93636433
| 20> C    1.48619243   1.53997230   0.56334589
| 21> H    1.78656456   2.07364449   1.46133569
| 22> H    0.98337300   2.23393638  -0.10969401
| 23> H    2.38909161   1.16287041   0.09563051
| 24> C   -0.98366538  -2.71170967   0.58822905
| 25> H   -0.44018794  -3.10988788  -0.26496943
| 26> H   -2.04371241  -2.64841882   0.33036390
| 27> H   -0.84763853  -3.38800296   1.42553771
| 28> H   -1.61650115  -1.09156476   2.71920436
| 29> H   -0.22640270   1.28772788   2.72479393
| 30> C   -0.27868435   1.56816441  -2.82864060
| 31> H   -0.95856440   1.22867647  -3.60224336
| 32> H   -0.32534495   2.63652708  -2.85916775
| 33> H   -0.75977855   1.26821987  -1.88712939
| 34> H    0.69213230   1.25334196  -2.94446641
| 35> *
| 36>
| 37>                          ****END OF INPUT****

CARTESIAN COORDINATES (ANGSTROEM)
---------------------------------
  Sc     1.595558   -1.373582   -1.583578
  C      0.462844   -0.706087    0.238418
  N     -0.440578   -1.413261    0.944552
  C     -0.890378   -0.701181    2.022758
  C     -0.200762    0.460616    2.029618
  N      0.617043    0.437061    0.936364
  C      1.486192    1.539972    0.563346
  H      1.786565    2.073644    1.461336
  H      0.983373    2.233936   -0.109694
  H      2.389092    1.162870    0.095631
  C     -0.983665   -2.711710    0.588229
  H     -0.440188   -3.109888   -0.264969
  H     -2.043712   -2.648419    0.330364
  H     -0.847639   -3.388003    1.425538
  H     -1.616501   -1.091565    2.719204
  H     -0.226403    1.287728    2.724794
  C     -0.278684    1.568164   -2.828641
  H     -0.958564    1.228676   -3.602243
  H     -0.325345    2.636527   -2.859168
  H     -0.759779    1.268220   -1.887129
  H      0.692132    1.253342   -2.944466

 Total Charge           Charge          ....    1
 Multiplicity           Mult            ....    1
 Number of Electrons    NEL             ....   82
 Basis Dimension        Dim             ....  175

ORBITAL ENERGIES
----------------

  NO   OCC          E(Eh)            E(eV)
   0   2.0000    -162.908701     -4432.9711
   1   2.0000     -18.219245      -495.7709
   2   2.0000     -15.060327      -409.8123
   3   2.0000     -15.058232      -409.7553
   4   2.0000     -15.043587      -409.3568
   5   2.0000     -14.870732      -404.6532
   6   2.0000     -14.870362      -404.6431
   7   2.0000     -10.652146      -289.8596
   8   2.0000     -10.634348      -289.3753
   9   2.0000     -10.632473      -289.3243
  10   2.0000     -10.623479      -289.0796
  11   2.0000     -10.622867      -289.0629
  12   2.0000     -10.528647      -286.4990
  13   2.0000      -2.427887       -66.0662
  14   2.0000      -1.575523       -42.8722
  15   2.0000      -1.569226       -42.7008
  16   2.0000      -1.558326       -42.4042
  17   2.0000      -1.318643       -35.8821
  18   2.0000      -1.194942       -32.5160
  19   2.0000      -1.030055       -28.0292
  20   2.0000      -0.987945       -26.8833
  21   2.0000      -0.930397       -25.3174
  22   2.0000      -0.905125       -24.6297
  23   2.0000      -0.849605       -23.1189
  24   2.0000      -0.809828       -22.0365
  25   2.0000      -0.755545       -20.5594
  26   2.0000      -0.709144       -19.2968
  27   2.0000      -0.679777       -18.4977
  28   2.0000      -0.663324       -18.0500
  29   2.0000      -0.659987       -17.9592
  30   2.0000      -0.654963       -17.8224
  31   2.0000      -0.606439       -16.5020
  32   2.0000      -0.602357       -16.3910
  33   2.0000      -0.596848       -16.2411
  34   2.0000      -0.595314       -16.1993
  35   2.0000      -0.563008       -15.3202
  36   2.0000      -0.556274       -15.1370
  37   2.0000      -0.527284       -14.3481
  38   2.0000      -0.492101       -13.3908
  39   2.0000      -0.442350       -12.0370
  40   2.0000      -0.329920        -8.9776
  41   0.0000      -0.188009        -5.1160
  42   0.0000      -0.185019        -5.0346
  43   0.0000      -0.184281        -5.0145
  44   0.0000      -0.172064        -4.6821
  45   0.0000      -0.168764        -4.5923

MULLIKEN ATOMIC CHARGES
-----------------------
   0 Sc:    0.518790
   1 C :    0.207415
   2 N :   -0.412411
   3 C :   -0.062370
   4 C :   -0.063636
   5 N :   -0.417387
   6 C :   -0.523253
   7 H :    0.278530
   8 H :    0.282162
   9 H :    0.260616
  10 C :   -0.517202
  11 H :    0.252768
  12 H :    0.280133
  13 H :    0.279336
  14 H :    0.305897
  15 H :    0.306068
  16 C :   -0.924560
  17 H :    0.261324
  18 H :    0.264911
  19 H :    0.206938
  20 H :    0.215933
Sum of atomic charges:    1.0000000

LOEWDIN ATOMIC CHARGES
----------------------
   0 Sc:    0.369135
   1 C :   -0.048466
   2 N :    0.011301
   3 C :   -0.077793
   4 C :   -0.074403
   5 N :    0.008959
   6 C :   -0.238487
   7 H :    0.157364
   8 H :    0.154115
   9 H :    0.151636
  10 C :   -0.236972
  11 H :    0.149383
  12 H :    0.156269
  13 H :    0.155928
  14 H :    0.170919
  15 H :    0.170353
  16 C :   -0.530751
  17 H :    0.150694
  18 H :    0.149373
  19 H :    0.126973
  20 H :    0.124469

  Mayer bond orders larger than 0.100000
B(  0-Sc,  1-C ) :   0.6958 B(  1-C ,  2-N ) :   1.2273 B(  1-C ,  5-N ) :   1.2221
B(  2-N ,  3-C ) :   1.1616 B(  2-N , 10-C ) :   0.9111 B(  3-C ,  4-C ) :   1.6214
B(  3-C , 14-H ) :   0.8773 B(  4-C ,  5-N ) :   1.1608 B(  4-C , 15-H ) :   0.8771
B(  5-N ,  6-C ) :   0.9091 B(  6-C ,  7-H ) :   0.9005 B(  6-C ,  8-H ) :   0.8870
B(  6-C ,  9-H ) :   0.8958 B( 10-C , 11-H ) :   0.8929 B( 10-C , 12-H ) :   0.8926
B( 10-C , 13-H ) :   0.8949 B( 16-C , 17-H ) :   0.9211 B( 16-C , 18-H ) :   0.9167
B( 16-C , 19-H ) :   0.9313 B( 16-C , 20-H ) :   0.9150

Dispersion correction           -0.010967707
FINAL SINGLE POINT ENERGY     -1104.447948477778
Dispersion correction            ... done

DIPOLE MOMENT
-------------
                                X             Y             Z
Electronic contribution:      9.56993     -11.09930      -2.54170
Nuclear contribution   :     -9.36356      10.79504       2.53472
                        -----------------------------------------
Total Dipole Moment    :      0.20637      -0.30426      -0.00697
                        -----------------------------------------
Magnitude (a.u.)       :      0.36771
Magnitude (Debye)      :      0.93464

Rotational constants in cm-1:     0.041886     0.030202     0.022988
Rotational constants in MHz :  1255.723251   905.427525   689.175142

                             ****ORCA TERMINATED NORMALLY****
TOTAL RUN TIME: 0 days 0 hours 4 minutes 46 seconds 957 msec
