                         Program Version 5.0.3 -  RELEASE  -
|  1> ! EnGrad PBEh-3c
|  2> %output
|  3> xyzfile=True
|  4> end
|  5> %scf
|  6> maxiter 250
|  7> end
|  8> %output
|  9> Print[P_Hirshfeld] = 1
| 10> end
| 11> % maxcore
| 12> 4000
| 13> *xyz -1 1
| 14> C   -1.96341470   0.01999506   0.59610276
| 15> C   -1.68160694   1.07140475   1.46882010
| 16> C   -3.26831465  -0.09721885   0.11861224
| 17> C   -4.29060064   0.76971593   0.47156762
| 18> C   -3.99134872   1.85077577   1.27468902
| 19> C   -2.69591846   2.00544842   1.72545112
| 20> H   -2.25507318  -2.60065716  -2.21000467
| 21> H   -3.62723183  -1.01479901  -0.32605925
| 22> H   -2.53977825   2.82064333   2.42817700
| 23> H   -5.30754498   0.60011475   0.13619488
| 24> H   -4.77859627   2.53778014   1.56041520
| 25> C   -0.43071374   1.24293344   2.28989124
| 26> C    0.79714082   0.35615064   2.16748484
| 27> H   -0.73026285   1.21109983   3.34698915
| 28> H   -0.09692708   2.27414182   2.13193560
| 29> C    1.65390869   0.69843349   0.98133207
| 30> H    0.49709864  -0.69313199   2.14674998
| 31> H    1.40824481   0.44203143   3.07678950
| 32> C    1.38230935   0.14479592  -0.27545815
| 33> C    2.30574596   0.42347093  -1.28472785
| 34> C    3.35683904   1.32241071  -1.12852624
| 35> C    2.82106843   1.44152023   1.18152736
| 36> C    3.53860294   1.93548414   0.09984325
| 37> H    2.31150365  -0.14558682  -2.20695408
| 38> H    4.04591895   1.52461803  -1.94090238
| 39> H    3.09845802   1.76828521   2.17984235
| 40> H    4.28327583   2.71218948   0.22413742
| 41> Pd   0.05532267  -1.30657594  -0.48228634
| 42> Br  -1.56582987  -3.67358363  -0.00765612
| 43> P    1.49127705  -2.99464360  -0.18061432
| 44> H    1.52285765  -3.68742189   1.04714669
| 45> C    0.12825936  -1.59175397  -3.76901937
| 46> O    1.24850038  -1.73087183  -4.19512943
| 47> O   -0.55665952  -2.57718187  -3.28192366
| 48> O   -0.57137501  -0.45757877  -3.92803317
| 49> H    2.87833079  -2.74399045  -0.20503282
| 50> H    1.50223999  -4.10854184  -1.03498722
| 51> H    0.02427338   0.25009159  -4.19637319
| 52> *
| 53>
| 54>                          ****END OF INPUT****

CARTESIAN COORDINATES (ANGSTROEM)
---------------------------------
  C     -1.963415    0.019995    0.596103
  C     -1.681607    1.071405    1.468820
  C     -3.268315   -0.097219    0.118612
  C     -4.290601    0.769716    0.471568
  C     -3.991349    1.850776    1.274689
  C     -2.695918    2.005448    1.725451
  H     -2.255073   -2.600657   -2.210005
  H     -3.627232   -1.014799   -0.326059
  H     -2.539778    2.820643    2.428177
  H     -5.307545    0.600115    0.136195
  H     -4.778596    2.537780    1.560415
  C     -0.430714    1.242933    2.289891
  C      0.797141    0.356151    2.167485
  H     -0.730263    1.211100    3.346989
  H     -0.096927    2.274142    2.131936
  C      1.653909    0.698433    0.981332
  H      0.497099   -0.693132    2.146750
  H      1.408245    0.442031    3.076789
  C      1.382309    0.144796   -0.275458
  C      2.305746    0.423471   -1.284728
  C      3.356839    1.322411   -1.128526
  C      2.821068    1.441520    1.181527
  C      3.538603    1.935484    0.099843
  H      2.311504   -0.145587   -2.206954
  H      4.045919    1.524618   -1.940902
  H      3.098458    1.768285    2.179842
  H      4.283276    2.712189    0.224137
  Pd     0.055323   -1.306576   -0.482286
  Br    -1.565830   -3.673584   -0.007656
  P      1.491277   -2.994644   -0.180614
  H      1.522858   -3.687422    1.047147
  C      0.128259   -1.591754   -3.769019
  O      1.248500   -1.730872   -4.195129
  O     -0.556660   -2.577182   -3.281924
  O     -0.571375   -0.457579   -3.928033
  H      2.878331   -2.743990   -0.205033
  H      1.502240   -4.108542   -1.034987
  H      0.024273    0.250092   -4.196373

 Total Charge           Charge          ....   -1
 Multiplicity           Mult            ....    1
 Number of Electrons    NEL             ....  200
 Basis Dimension        Dim             ....  385

ORBITAL ENERGIES
----------------

  NO   OCC          E(Eh)            E(eV)
   0   2.0000    -484.374067    -13180.4884
   1   2.0000     -77.664341     -2113.3541
   2   2.0000     -63.034946     -1715.2681
   3   2.0000     -56.738281     -1543.9271
   4   2.0000     -56.737957     -1543.9183
   5   2.0000     -56.737451     -1543.9045
   6   2.0000     -19.407487      -528.1046
   7   2.0000     -19.367416      -527.0142
   8   2.0000     -19.334248      -526.1116
   9   2.0000     -10.469665      -284.8941
  10   2.0000     -10.345082      -281.5040
  11   2.0000     -10.341464      -281.4055
  12   2.0000     -10.340229      -281.3719
  13   2.0000     -10.339608      -281.3550
  14   2.0000     -10.338154      -281.3155
  15   2.0000     -10.329423      -281.0779
  16   2.0000     -10.327889      -281.0361
  17   2.0000     -10.325585      -280.9735
  18   2.0000     -10.322858      -280.8992
  19   2.0000     -10.318138      -280.7708
  20   2.0000     -10.316739      -280.7327
  21   2.0000     -10.314391      -280.6688
  22   2.0000     -10.306382      -280.4509
  23   2.0000     -10.302921      -280.3567
  24   2.0000      -8.861663      -241.1381
  25   2.0000      -6.739665      -183.3956
  26   2.0000      -6.631121      -180.4420
  27   2.0000      -6.627621      -180.3467
  28   2.0000      -6.624416      -180.2595
  29   2.0000      -4.830674      -131.4493
  30   2.0000      -4.830207      -131.4366
  31   2.0000      -4.828951      -131.4024
  32   2.0000      -3.520519       -95.7982
  33   2.0000      -2.645454       -71.9865
  34   2.0000      -2.645022       -71.9747
  35   2.0000      -2.642346       -71.9019
  36   2.0000      -2.639291       -71.8188
  37   2.0000      -2.638935       -71.8091
  38   2.0000      -2.168921       -59.0193
  39   2.0000      -2.160310       -58.7850
  40   2.0000      -2.137088       -58.1531
  41   2.0000      -1.104373       -30.0515
  42   2.0000      -0.995515       -27.0893
  43   2.0000      -0.945565       -25.7301
  44   2.0000      -0.848341       -23.0845
  45   2.0000      -0.824440       -22.4342
  46   2.0000      -0.776059       -21.1176
  47   2.0000      -0.728705       -19.8291
  48   2.0000      -0.720476       -19.6051
  49   2.0000      -0.693109       -18.8605
  50   2.0000      -0.677408       -18.4332
  51   2.0000      -0.675322       -18.3765
  52   2.0000      -0.637054       -17.3351
  53   2.0000      -0.603676       -16.4269
  54   2.0000      -0.566382       -15.4120
  55   2.0000      -0.563429       -15.3317
  56   2.0000      -0.542827       -14.7711
  57   2.0000      -0.539647       -14.6846
  58   2.0000      -0.508028       -13.8241
  59   2.0000      -0.462897       -12.5961
  60   2.0000      -0.442753       -12.0479
  61   2.0000      -0.425107       -11.5678
  62   2.0000      -0.418252       -11.3812
  63   2.0000      -0.412431       -11.2228
  64   2.0000      -0.410065       -11.1584
  65   2.0000      -0.399413       -10.8686
  66   2.0000      -0.386682       -10.5222
  67   2.0000      -0.381298       -10.3756
  68   2.0000      -0.374788       -10.1985
  69   2.0000      -0.361712        -9.8427
  70   2.0000      -0.359689        -9.7876
  71   2.0000      -0.353608        -9.6222
  72   2.0000      -0.347698        -9.4614
  73   2.0000      -0.333154        -9.0656
  74   2.0000      -0.332255        -9.0411
  75   2.0000      -0.328708        -8.9446
  76   2.0000      -0.323055        -8.7908
  77   2.0000      -0.311311        -8.4712
  78   2.0000      -0.296571        -8.0701
  79   2.0000      -0.291747        -7.9388
  80   2.0000      -0.282542        -7.6884
  81   2.0000      -0.271116        -7.3775
  82   2.0000      -0.263163        -7.1610
  83   2.0000      -0.258536        -7.0351
  84   2.0000      -0.253992        -6.9115
  85   2.0000      -0.249325        -6.7845
  86   2.0000      -0.242848        -6.6082
  87   2.0000      -0.226920        -6.1748
  88   2.0000      -0.218240        -5.9386
  89   2.0000      -0.213502        -5.8097
  90   2.0000      -0.208632        -5.6772
  91   2.0000      -0.192983        -5.2513
  92   2.0000      -0.185990        -5.0610
  93   2.0000      -0.175113        -4.7651
  94   2.0000      -0.174199        -4.7402
  95   2.0000      -0.166413        -4.5283
  96   2.0000      -0.158682        -4.3180
  97   2.0000      -0.153496        -4.1769
  98   2.0000      -0.147561        -4.0153
  99   2.0000      -0.104446        -2.8421
 100   0.0000      -0.011317        -0.3079
 101   0.0000       0.065579         1.7845
 102   0.0000       0.123258         3.3540
 103   0.0000       0.131333         3.5738
 104   0.0000       0.144525         3.9327

MULLIKEN ATOMIC CHARGES
-----------------------
   0 C :   -0.096947
   1 C :    0.049093
   2 C :   -0.293796
   3 C :   -0.230414
   4 C :   -0.225044
   5 C :   -0.248652
   6 H :    0.287757
   7 H :    0.182833
   8 H :    0.160980
   9 H :    0.174248
  10 H :    0.171391
  11 C :   -0.455131
  12 C :   -0.520159
  13 H :    0.206586
  14 H :    0.217153
  15 C :    0.117385
  16 H :    0.273415
  17 H :    0.197205
  18 C :   -0.097338
  19 C :   -0.292073
  20 C :   -0.226430
  21 C :   -0.285622
  22 C :   -0.231901
  23 H :    0.244195
  24 H :    0.192713
  25 H :    0.181738
  26 H :    0.184411
  27 Pd:    0.116206
  28 Br:   -0.415948
  29 P :   -0.180702
  30 H :    0.108969
  31 C :    0.665155
  32 O :   -0.486192
  33 O :   -0.497243
  34 O :   -0.596150
  35 H :    0.082749
  36 H :    0.136319
  37 H :    0.429237
Sum of atomic charges:   -1.0000000

LOEWDIN ATOMIC CHARGES
----------------------
   0 C :   -0.109844
   1 C :   -0.060027
   2 C :   -0.149252
   3 C :   -0.167465
   4 C :   -0.170553
   5 C :   -0.151706
   6 H :    0.312957
   7 H :    0.122814
   8 H :    0.112044
   9 H :    0.113997
  10 H :    0.113535
  11 C :   -0.216165
  12 C :   -0.210341
  13 H :    0.125188
  14 H :    0.130561
  15 C :   -0.030859
  16 H :    0.159367
  17 H :    0.117515
  18 C :    0.006758
  19 C :   -0.132746
  20 C :   -0.154810
  21 C :   -0.145892
  22 C :   -0.159979
  23 H :    0.153359
  24 H :    0.124136
  25 H :    0.121087
  26 H :    0.119408
  27 Pd:   -0.773041
  28 Br:   -0.242864
  29 P :    0.374278
  30 H :    0.046969
  31 C :    0.086159
  32 O :   -0.295338
  33 O :   -0.281406
  34 O :   -0.304573
  35 H :    0.027447
  36 H :    0.062091
  37 H :    0.327193

  Mayer bond orders larger than 0.100000
B(  0-C ,  1-C ) :   1.4383 B(  0-C ,  2-C ) :   1.4110 B(  0-C , 27-Pd) :   0.5645
B(  1-C ,  5-C ) :   1.3545 B(  1-C , 11-C ) :   0.9575 B(  2-C ,  3-C ) :   1.4349
B(  2-C ,  7-H ) :   0.9189 B(  3-C ,  4-C ) :   1.4231 B(  3-C ,  9-H ) :   0.9268
B(  4-C ,  5-C ) :   1.4609 B(  4-C , 10-H ) :   0.9291 B(  5-C ,  8-H ) :   0.9300
B(  6-H , 28-Br) :   0.3788 B(  6-H , 33-O ) :   0.4177 B( 11-C , 12-C ) :   0.9761
B( 11-C , 13-H ) :   0.9189 B( 11-C , 14-H ) :   0.9156 B( 12-C , 15-C ) :   0.9633
B( 12-C , 16-H ) :   0.8775 B( 12-C , 17-H ) :   0.9266 B( 15-C , 18-C ) :   1.3351
B( 15-C , 21-C ) :   1.4075 B( 18-C , 19-C ) :   1.3823 B( 18-C , 27-Pd) :   0.8525
B( 19-C , 20-C ) :   1.4146 B( 19-C , 23-H ) :   0.8889 B( 20-C , 22-C ) :   1.4351
B( 20-C , 24-H ) :   0.9251 B( 21-C , 22-C ) :   1.4216 B( 21-C , 25-H ) :   0.9269
B( 22-C , 26-H ) :   0.9278 B( 27-Pd, 28-Br) :   0.2676 B( 27-Pd, 29-P ) :   0.6055
B( 27-Pd, 33-O ) :   0.1007 B( 28-Br, 33-O ) :   0.1071 B( 29-P , 30-H ) :   0.9307
B( 29-P , 35-H ) :   0.9195 B( 29-P , 36-H ) :   0.9282 B( 31-C , 32-O ) :   1.8518
B( 31-C , 33-O ) :   1.3821 B( 31-C , 34-O ) :   1.0692 B( 34-O , 37-H ) :   0.7669

Dispersion correction           -0.031656040
FINAL SINGLE POINT ENERGY     -3847.498826456239
Dispersion correction            ... done

DIPOLE MOMENT
-------------
                                X             Y             Z
Electronic contribution:      2.16815     -63.92238     -15.22562
Nuclear contribution   :     -1.06955      64.15840      16.55781
                        -----------------------------------------
Total Dipole Moment    :      1.09860       0.23602       1.33219
                        -----------------------------------------
Magnitude (a.u.)       :      1.74280
Magnitude (Debye)      :      4.42984

Rotational constants in cm-1:     0.006644     0.006403     0.004625
Rotational constants in MHz :   199.189251   191.949632   138.639315

                             ****ORCA TERMINATED NORMALLY****
TOTAL RUN TIME: 0 days 0 hours 17 minutes 59 seconds 926 msec
