                         Program Version 5.0.3 -  RELEASE  -
|  1> ! EnGrad PBEh-3c
|  2> %output
|  3> xyzfile=True
|  4> end
|  5> %scf
|  6> maxiter 250
|  7> end
|  8> %output
|  9> Print[P_Hirshfeld] = 1
| 10> end
| 11> % maxcore
| 12> 4000
| 13> *xyz -1 1
| 14> C   -1.89878006   0.00331281   0.55744469
| 15> C   -1.71184972   1.06024064   1.45768758
| 16> C   -3.30224321  -0.13693827   0.16001330
| 17> C   -4.29951736   0.76156074   0.49099252
| 18> C   -4.00651238   1.84758713   1.28147354
| 19> C   -2.71169073   2.00430492   1.76214138
| 20> H   -2.17745827  -2.56517635  -2.20083620
| 21> H   -3.62375237  -1.04110324  -0.30974696
| 22> H   -2.52946962   2.82860331   2.41419269
| 23> H   -5.32228666   0.58325993   0.16483105
| 24> H   -4.78364105   2.53484871   1.58230210
| 25> C   -0.41945999   1.28495276   2.29025363
| 26> C    0.79566736   0.34405742   2.15417777
| 27> H   -0.72246218   1.24325039   3.32352100
| 28> H   -0.09657165   2.27951262   2.09209118
| 29> C    1.67227463   0.65929440   0.99417616
| 30> H    0.48732003  -0.68820312   2.13593853
| 31> H    1.39505048   0.45607879   3.06633961
| 32> C    1.41775621   0.13384554  -0.28569680
| 33> C    2.32844030   0.39834678  -1.30807114
| 34> C    3.35183113   1.33015250  -1.12272161
| 35> C    2.79341058   1.48301496   1.16992016
| 36> C    3.56773765   1.90496617   0.10153623
| 37> H    2.31345468  -0.15333885  -2.21357584
| 38> H    4.05295656   1.51838867  -1.94354037
| 39> H    3.08834996   1.77028364   2.17835130
| 40> H    4.30001306   2.69840939   0.23017932
| 41> Pd  -0.04880055  -1.27787007  -0.42743499
| 42> Br  -1.57990829  -3.64305430  -0.09124656
| 43> P    1.53499496  -3.00270508  -0.18789330
| 44> H    1.49519459  -3.67752358   1.05466986
| 45> C    0.06861603  -1.64192458  -3.78155133
| 46> O    1.30069526  -1.72018083  -4.19167841
| 47> O   -0.60078278  -2.54195025  -3.24284817
| 48> O   -0.56242025  -0.42645829  -3.92955638
| 49> H    2.88070868  -2.74644978  -0.18519957
| 50> H    1.50702864  -4.11055263  -1.02354045
| 51> H    0.04948926   0.24662482  -4.21902589
| 52> *
| 53>
| 54>                          ****END OF INPUT****

CARTESIAN COORDINATES (ANGSTROEM)
---------------------------------
  C     -1.898780    0.003313    0.557445
  C     -1.711850    1.060241    1.457688
  C     -3.302243   -0.136938    0.160013
  C     -4.299517    0.761561    0.490993
  C     -4.006512    1.847587    1.281474
  C     -2.711691    2.004305    1.762141
  H     -2.177458   -2.565176   -2.200836
  H     -3.623752   -1.041103   -0.309747
  H     -2.529470    2.828603    2.414193
  H     -5.322287    0.583260    0.164831
  H     -4.783641    2.534849    1.582302
  C     -0.419460    1.284953    2.290254
  C      0.795667    0.344057    2.154178
  H     -0.722462    1.243250    3.323521
  H     -0.096572    2.279513    2.092091
  C      1.672275    0.659294    0.994176
  H      0.487320   -0.688203    2.135939
  H      1.395050    0.456079    3.066340
  C      1.417756    0.133846   -0.285697
  C      2.328440    0.398347   -1.308071
  C      3.351831    1.330153   -1.122722
  C      2.793411    1.483015    1.169920
  C      3.567738    1.904966    0.101536
  H      2.313455   -0.153339   -2.213576
  H      4.052957    1.518389   -1.943540
  H      3.088350    1.770284    2.178351
  H      4.300013    2.698409    0.230179
  Pd    -0.048801   -1.277870   -0.427435
  Br    -1.579908   -3.643054   -0.091247
  P      1.534995   -3.002705   -0.187893
  H      1.495195   -3.677524    1.054670
  C      0.068616   -1.641925   -3.781551
  O      1.300695   -1.720181   -4.191678
  O     -0.600783   -2.541950   -3.242848
  O     -0.562420   -0.426458   -3.929556
  H      2.880709   -2.746450   -0.185200
  H      1.507029   -4.110553   -1.023540
  H      0.049489    0.246625   -4.219026

 Total Charge           Charge          ....   -1
 Multiplicity           Mult            ....    1
 Number of Electrons    NEL             ....  200
 Basis Dimension        Dim             ....  385

ORBITAL ENERGIES
----------------

  NO   OCC          E(Eh)            E(eV)
   0   2.0000    -484.385245    -13180.7926
   1   2.0000     -77.664176     -2113.3497
   2   2.0000     -63.046085     -1715.5712
   3   2.0000     -56.749513     -1544.2328
   4   2.0000     -56.749060     -1544.2204
   5   2.0000     -56.748529     -1544.2060
   6   2.0000     -19.393638      -527.7277
   7   2.0000     -19.377342      -527.2843
   8   2.0000     -19.316986      -525.6419
   9   2.0000     -10.472105      -284.9605
  10   2.0000     -10.345458      -281.5142
  11   2.0000     -10.340386      -281.3762
  12   2.0000     -10.338706      -281.3305
  13   2.0000     -10.337713      -281.3035
  14   2.0000     -10.336983      -281.2836
  15   2.0000     -10.326893      -281.0091
  16   2.0000     -10.326410      -280.9959
  17   2.0000     -10.324269      -280.9376
  18   2.0000     -10.321841      -280.8716
  19   2.0000     -10.318924      -280.7922
  20   2.0000     -10.316686      -280.7313
  21   2.0000     -10.315323      -280.6942
  22   2.0000     -10.313263      -280.6382
  23   2.0000     -10.312844      -280.6268
  24   2.0000      -8.872815      -241.4416
  25   2.0000      -6.740821      -183.4271
  26   2.0000      -6.642724      -180.7577
  27   2.0000      -6.638432      -180.6409
  28   2.0000      -6.635438      -180.5594
  29   2.0000      -4.831846      -131.4812
  30   2.0000      -4.831410      -131.4694
  31   2.0000      -4.829801      -131.4256
  32   2.0000      -3.514617       -95.6376
  33   2.0000      -2.656926       -72.2986
  34   2.0000      -2.656266       -72.2807
  35   2.0000      -2.653779       -72.2130
  36   2.0000      -2.650031       -72.1110
  37   2.0000      -2.649786       -72.1043
  38   2.0000      -2.162095       -58.8336
  39   2.0000      -2.153509       -58.6000
  40   2.0000      -2.131249       -57.9942
  41   2.0000      -1.082276       -29.4502
  42   2.0000      -0.987954       -26.8836
  43   2.0000      -0.917648       -24.9705
  44   2.0000      -0.846712       -23.0402
  45   2.0000      -0.818945       -22.2846
  46   2.0000      -0.773868       -21.0580
  47   2.0000      -0.725626       -19.7453
  48   2.0000      -0.719419       -19.5764
  49   2.0000      -0.690115       -18.7790
  50   2.0000      -0.686147       -18.6710
  51   2.0000      -0.673591       -18.3294
  52   2.0000      -0.643991       -17.5239
  53   2.0000      -0.603082       -16.4107
  54   2.0000      -0.564748       -15.3676
  55   2.0000      -0.552078       -15.0228
  56   2.0000      -0.545615       -14.8469
  57   2.0000      -0.538372       -14.6498
  58   2.0000      -0.506350       -13.7785
  59   2.0000      -0.460769       -12.5382
  60   2.0000      -0.443239       -12.0612
  61   2.0000      -0.431355       -11.7378
  62   2.0000      -0.417263       -11.3543
  63   2.0000      -0.407812       -11.0971
  64   2.0000      -0.395116       -10.7517
  65   2.0000      -0.386331       -10.5126
  66   2.0000      -0.383126       -10.4254
  67   2.0000      -0.377376       -10.2689
  68   2.0000      -0.375870       -10.2279
  69   2.0000      -0.372189       -10.1278
  70   2.0000      -0.363748        -9.8981
  71   2.0000      -0.354203        -9.6384
  72   2.0000      -0.345999        -9.4151
  73   2.0000      -0.332366        -9.0441
  74   2.0000      -0.328147        -8.9293
  75   2.0000      -0.321349        -8.7443
  76   2.0000      -0.317030        -8.6268
  77   2.0000      -0.305250        -8.3063
  78   2.0000      -0.295477        -8.0403
  79   2.0000      -0.289716        -7.8836
  80   2.0000      -0.283963        -7.7270
  81   2.0000      -0.271413        -7.3855
  82   2.0000      -0.262743        -7.1496
  83   2.0000      -0.253707        -6.9037
  84   2.0000      -0.251168        -6.8346
  85   2.0000      -0.246523        -6.7082
  86   2.0000      -0.241103        -6.5607
  87   2.0000      -0.221134        -6.0174
  88   2.0000      -0.215112        -5.8535
  89   2.0000      -0.208579        -5.6757
  90   2.0000      -0.200478        -5.4553
  91   2.0000      -0.192612        -5.2412
  92   2.0000      -0.187454        -5.1009
  93   2.0000      -0.173177        -4.7124
  94   2.0000      -0.170764        -4.6467
  95   2.0000      -0.167845        -4.5673
  96   2.0000      -0.161805        -4.4029
  97   2.0000      -0.150963        -4.1079
  98   2.0000      -0.148876        -4.0511
  99   2.0000      -0.118512        -3.2249
 100   0.0000      -0.005833        -0.1587
 101   0.0000       0.071795         1.9537
 102   0.0000       0.123773         3.3680
 103   0.0000       0.132277         3.5995
 104   0.0000       0.146088         3.9753

MULLIKEN ATOMIC CHARGES
-----------------------
   0 C :   -0.102464
   1 C :    0.013415
   2 C :   -0.310567
   3 C :   -0.205357
   4 C :   -0.238883
   5 C :   -0.228066
   6 H :    0.320098
   7 H :    0.184374
   8 H :    0.171068
   9 H :    0.171740
  10 H :    0.170341
  11 C :   -0.454588
  12 C :   -0.521849
  13 H :    0.207323
  14 H :    0.225670
  15 C :    0.140604
  16 H :    0.273918
  17 H :    0.194544
  18 C :   -0.107913
  19 C :   -0.293763
  20 C :   -0.237237
  21 C :   -0.294044
  22 C :   -0.217996
  23 H :    0.262445
  24 H :    0.187491
  25 H :    0.177717
  26 H :    0.184054
  27 Pd:    0.110181
  28 Br:   -0.397398
  29 P :   -0.171144
  30 H :    0.107295
  31 C :    0.690286
  32 O :   -0.579576
  33 O :   -0.476044
  34 O :   -0.621924
  35 H :    0.097870
  36 H :    0.137580
  37 H :    0.430800
Sum of atomic charges:   -1.0000000

LOEWDIN ATOMIC CHARGES
----------------------
   0 C :   -0.099566
   1 C :   -0.053589
   2 C :   -0.138324
   3 C :   -0.173033
   4 C :   -0.167084
   5 C :   -0.159534
   6 H :    0.343798
   7 H :    0.122283
   8 H :    0.116773
   9 H :    0.115017
  10 H :    0.112957
  11 C :   -0.221546
  12 C :   -0.210586
  13 H :    0.124769
  14 H :    0.132302
  15 C :   -0.035351
  16 H :    0.160282
  17 H :    0.117211
  18 C :    0.012211
  19 C :   -0.136920
  20 C :   -0.149796
  21 C :   -0.145671
  22 C :   -0.165015
  23 H :    0.158002
  24 H :    0.122894
  25 H :    0.119929
  26 H :    0.121219
  27 Pd:   -0.781309
  28 Br:   -0.203875
  29 P :    0.356293
  30 H :    0.047362
  31 C :    0.136273
  32 O :   -0.412080
  33 O :   -0.251645
  34 O :   -0.338315
  35 H :    0.036815
  36 H :    0.063062
  37 H :    0.323784

  Mayer bond orders larger than 0.100000
B(  0-C ,  1-C ) :   1.4438 B(  0-C ,  2-C ) :   1.3547 B(  0-C , 27-Pd) :   0.6038
B(  1-C ,  5-C ) :   1.3355 B(  1-C , 11-C ) :   0.9597 B(  2-C ,  3-C ) :   1.4593
B(  2-C ,  7-H ) :   0.9213 B(  3-C ,  4-C ) :   1.4014 B(  3-C ,  9-H ) :   0.9289
B(  4-C ,  5-C ) :   1.4755 B(  4-C , 10-H ) :   0.9287 B(  5-C ,  8-H ) :   0.9289
B(  6-H , 28-Br) :   0.4324 B(  6-H , 33-O ) :   0.3485 B( 11-C , 12-C ) :   0.9773
B( 11-C , 13-H ) :   0.9211 B( 11-C , 14-H ) :   0.9137 B( 12-C , 15-C ) :   0.9684
B( 12-C , 16-H ) :   0.8768 B( 12-C , 17-H ) :   0.9255 B( 15-C , 18-C ) :   1.3385
B( 15-C , 21-C ) :   1.4137 B( 18-C , 19-C ) :   1.4092 B( 18-C , 27-Pd) :   0.8370
B( 19-C , 20-C ) :   1.4056 B( 19-C , 23-H ) :   0.8765 B( 20-C , 22-C ) :   1.4393
B( 20-C , 24-H ) :   0.9270 B( 21-C , 22-C ) :   1.4126 B( 21-C , 25-H ) :   0.9271
B( 22-C , 26-H ) :   0.9284 B( 27-Pd, 28-Br) :   0.2816 B( 27-Pd, 29-P ) :   0.5193
B( 29-P , 30-H ) :   0.9377 B( 29-P , 35-H ) :   0.9250 B( 29-P , 36-H ) :   0.9337
B( 31-C , 32-O ) :   1.7179 B( 31-C , 33-O ) :   1.5094 B( 31-C , 34-O ) :   1.0326
B( 34-O , 37-H ) :   0.7668

Dispersion correction           -0.031655412
FINAL SINGLE POINT ENERGY     -3847.525298790200
Dispersion correction            ... done

DIPOLE MOMENT
-------------
                                X             Y             Z
Electronic contribution:     -3.72009     -62.71732     -11.96451
Nuclear contribution   :      4.60989      62.61047      13.63818
                        -----------------------------------------
Total Dipole Moment    :      0.88980      -0.10685       1.67367
                        -----------------------------------------
Magnitude (a.u.)       :      1.89851
Magnitude (Debye)      :      4.82562

Rotational constants in cm-1:     0.006675     0.006443     0.004618
Rotational constants in MHz :   200.111389   193.169106   138.434823

                             ****ORCA TERMINATED NORMALLY****
TOTAL RUN TIME: 0 days 0 hours 14 minutes 17 seconds 586 msec
