                         Program Version 5.0.3 -  RELEASE  -
|  1> ! EnGrad PBEh-3c
|  2> %output
|  3> xyzfile=True
|  4> end
|  5> %scf
|  6> maxiter 250
|  7> end
|  8> %output
|  9> Print[P_Hirshfeld] = 1
| 10> end
| 11> % maxcore
| 12> 4000
| 13> *xyz -1 1
| 14> C   -1.89059184  -0.00154033   0.54340905
| 15> C   -1.71356498   1.05817838   1.45677453
| 16> C   -3.30079414  -0.14961956   0.17833179
| 17> C   -4.30528855   0.75317895   0.49997418
| 18> C   -4.00869809   1.84890448   1.28902432
| 19> C   -2.72307431   1.99610861   1.76864574
| 20> H   -2.14523345  -2.54961720  -2.19547964
| 21> H   -3.62536949  -1.05483261  -0.30187805
| 22> H   -2.52482015   2.83463739   2.41144255
| 23> H   -5.32831909   0.57582749   0.17841736
| 24> H   -4.78728282   2.53354719   1.59155273
| 25> C   -0.41958092   1.29057027   2.28059915
| 26> C    0.79382774   0.34526503   2.15154729
| 27> H   -0.71933110   1.25883541   3.31693400
| 28> H   -0.09412529   2.28777626   2.07255976
| 29> C    1.68125598   0.64919390   0.99204039
| 30> H    0.48154737  -0.68835401   2.13167704
| 31> H    1.38984457   0.46092590   3.06209153
| 32> C    1.42591437   0.12576831  -0.28679863
| 33> C    2.33686583   0.39266616  -1.30946125
| 34> C    3.35450055   1.32810219  -1.12785140
| 35> C    2.78428341   1.49315438   1.16852990
| 36> C    3.57725845   1.89773310   0.10483888
| 37> H    2.31510709  -0.15921836  -2.22139978
| 38> H    4.05524913   1.51568068  -1.94265117
| 39> H    3.08370427   1.77223432   2.17690542
| 40> H    4.30704864   2.69141119   0.23231934
| 41> Pd  -0.08094329  -1.26788322  -0.40562470
| 42> Br  -1.58701353  -3.62959285  -0.12802674
| 43> P    1.54030940  -3.00102999  -0.18907301
| 44> H    1.48374587  -3.67318629   1.05728073
| 45> C    0.08227447  -1.64042188  -3.79647932
| 46> O    1.28839463  -1.71855477  -4.18065646
| 47> O   -0.62316416  -2.53568214  -3.22590143
| 48> O   -0.56051457  -0.42353876  -3.93049994
| 49> H    2.88716041  -2.74681045  -0.17604835
| 50> H    1.51002155  -4.11328370  -1.01964814
| 51> H    0.06388550   0.24544805  -4.23009943
| 52> *
| 53>
| 54>                          ****END OF INPUT****

CARTESIAN COORDINATES (ANGSTROEM)
---------------------------------
  C     -1.890592   -0.001540    0.543409
  C     -1.713565    1.058178    1.456775
  C     -3.300794   -0.149620    0.178332
  C     -4.305289    0.753179    0.499974
  C     -4.008698    1.848904    1.289024
  C     -2.723074    1.996109    1.768646
  H     -2.145233   -2.549617   -2.195480
  H     -3.625369   -1.054833   -0.301878
  H     -2.524820    2.834637    2.411443
  H     -5.328319    0.575827    0.178417
  H     -4.787283    2.533547    1.591553
  C     -0.419581    1.290570    2.280599
  C      0.793828    0.345265    2.151547
  H     -0.719331    1.258835    3.316934
  H     -0.094125    2.287776    2.072560
  C      1.681256    0.649194    0.992040
  H      0.481547   -0.688354    2.131677
  H      1.389845    0.460926    3.062092
  C      1.425914    0.125768   -0.286799
  C      2.336866    0.392666   -1.309461
  C      3.354501    1.328102   -1.127851
  C      2.784283    1.493154    1.168530
  C      3.577258    1.897733    0.104839
  H      2.315107   -0.159218   -2.221400
  H      4.055249    1.515681   -1.942651
  H      3.083704    1.772234    2.176905
  H      4.307049    2.691411    0.232319
  Pd    -0.080943   -1.267883   -0.405625
  Br    -1.587014   -3.629593   -0.128027
  P      1.540309   -3.001030   -0.189073
  H      1.483746   -3.673186    1.057281
  C      0.082274   -1.640422   -3.796479
  O      1.288395   -1.718555   -4.180656
  O     -0.623164   -2.535682   -3.225901
  O     -0.560515   -0.423539   -3.930500
  H      2.887160   -2.746810   -0.176048
  H      1.510022   -4.113284   -1.019648
  H      0.063885    0.245448   -4.230099

 Total Charge           Charge          ....   -1
 Multiplicity           Mult            ....    1
 Number of Electrons    NEL             ....  200
 Basis Dimension        Dim             ....  385

ORBITAL ENERGIES
----------------

  NO   OCC          E(Eh)            E(eV)
   0   2.0000    -484.383158    -13180.7358
   1   2.0000     -77.663885     -2113.3418
   2   2.0000     -63.044012     -1715.5148
   3   2.0000     -56.747450     -1544.1766
   4   2.0000     -56.746996     -1544.1643
   5   2.0000     -56.746448     -1544.1494
   6   2.0000     -19.393120      -527.7136
   7   2.0000     -19.373271      -527.1735
   8   2.0000     -19.325782      -525.8813
   9   2.0000     -10.473746      -285.0051
  10   2.0000     -10.344212      -281.4803
  11   2.0000     -10.339146      -281.3425
  12   2.0000     -10.338088      -281.3137
  13   2.0000     -10.337548      -281.2990
  14   2.0000     -10.336910      -281.2816
  15   2.0000     -10.327560      -281.0272
  16   2.0000     -10.326043      -280.9859
  17   2.0000     -10.325316      -280.9661
  18   2.0000     -10.322269      -280.8832
  19   2.0000     -10.318695      -280.7860
  20   2.0000     -10.316663      -280.7307
  21   2.0000     -10.316138      -280.7164
  22   2.0000     -10.314705      -280.6774
  23   2.0000     -10.314268      -280.6655
  24   2.0000      -8.870763      -241.3857
  25   2.0000      -6.740411      -183.4159
  26   2.0000      -6.640510      -180.6975
  27   2.0000      -6.636499      -180.5883
  28   2.0000      -6.633464      -180.5057
  29   2.0000      -4.831424      -131.4697
  30   2.0000      -4.831020      -131.4587
  31   2.0000      -4.829355      -131.4134
  32   2.0000      -3.512608       -95.5829
  33   2.0000      -2.654777       -72.2401
  34   2.0000      -2.654172       -72.2237
  35   2.0000      -2.651642       -72.1548
  36   2.0000      -2.648145       -72.0597
  37   2.0000      -2.647865       -72.0521
  38   2.0000      -2.159676       -58.7678
  39   2.0000      -2.151603       -58.5481
  40   2.0000      -2.129054       -57.9345
  41   2.0000      -1.078497       -29.3474
  42   2.0000      -0.975912       -26.5559
  43   2.0000      -0.935553       -25.4577
  44   2.0000      -0.845635       -23.0109
  45   2.0000      -0.817854       -22.2549
  46   2.0000      -0.772685       -21.0258
  47   2.0000      -0.724381       -19.7114
  48   2.0000      -0.718403       -19.5487
  49   2.0000      -0.690336       -18.7850
  50   2.0000      -0.684978       -18.6392
  51   2.0000      -0.672412       -18.2973
  52   2.0000      -0.643050       -17.4983
  53   2.0000      -0.602339       -16.3905
  54   2.0000      -0.564066       -15.3490
  55   2.0000      -0.546449       -14.8696
  56   2.0000      -0.543509       -14.7896
  57   2.0000      -0.537723       -14.6322
  58   2.0000      -0.506553       -13.7840
  59   2.0000      -0.459915       -12.5149
  60   2.0000      -0.442439       -12.0394
  61   2.0000      -0.429085       -11.6760
  62   2.0000      -0.416672       -11.3382
  63   2.0000      -0.406756       -11.0684
  64   2.0000      -0.398012       -10.8305
  65   2.0000      -0.385298       -10.4845
  66   2.0000      -0.381680       -10.3860
  67   2.0000      -0.377256       -10.2657
  68   2.0000      -0.374404       -10.1880
  69   2.0000      -0.372027       -10.1234
  70   2.0000      -0.362673        -9.8688
  71   2.0000      -0.352975        -9.6049
  72   2.0000      -0.344896        -9.3851
  73   2.0000      -0.331582        -9.0228
  74   2.0000      -0.327798        -8.9198
  75   2.0000      -0.325579        -8.8595
  76   2.0000      -0.316661        -8.6168
  77   2.0000      -0.302519        -8.2320
  78   2.0000      -0.293664        -7.9910
  79   2.0000      -0.289076        -7.8662
  80   2.0000      -0.282891        -7.6978
  81   2.0000      -0.269906        -7.3445
  82   2.0000      -0.260683        -7.0936
  83   2.0000      -0.251496        -6.8436
  84   2.0000      -0.248681        -6.7670
  85   2.0000      -0.245725        -6.6865
  86   2.0000      -0.239698        -6.5225
  87   2.0000      -0.221208        -6.0194
  88   2.0000      -0.214784        -5.8446
  89   2.0000      -0.207249        -5.6395
  90   2.0000      -0.202853        -5.5199
  91   2.0000      -0.193571        -5.2673
  92   2.0000      -0.188872        -5.1395
  93   2.0000      -0.178357        -4.8533
  94   2.0000      -0.173114        -4.7107
  95   2.0000      -0.168300        -4.5797
  96   2.0000      -0.161617        -4.3978
  97   2.0000      -0.150208        -4.0874
  98   2.0000      -0.147718        -4.0196
  99   2.0000      -0.119890        -3.2624
 100   0.0000       0.006226         0.1694
 101   0.0000       0.073988         2.0133
 102   0.0000       0.124110         3.3772
 103   0.0000       0.132155         3.5961
 104   0.0000       0.147461         4.0126

MULLIKEN ATOMIC CHARGES
-----------------------
   0 C :   -0.098808
   1 C :    0.012584
   2 C :   -0.310054
   3 C :   -0.207619
   4 C :   -0.237364
   5 C :   -0.226351
   6 H :    0.327913
   7 H :    0.183922
   8 H :    0.170306
   9 H :    0.172885
  10 H :    0.170530
  11 C :   -0.454489
  12 C :   -0.520317
  13 H :    0.206867
  14 H :    0.224948
  15 C :    0.136449
  16 H :    0.273254
  17 H :    0.194601
  18 C :   -0.104007
  19 C :   -0.300231
  20 C :   -0.234114
  21 C :   -0.288020
  22 C :   -0.224403
  23 H :    0.259507
  24 H :    0.187093
  25 H :    0.176665
  26 H :    0.183820
  27 Pd:    0.112573
  28 Br:   -0.403668
  29 P :   -0.169136
  30 H :    0.107098
  31 C :    0.696973
  32 O :   -0.550256
  33 O :   -0.508039
  34 O :   -0.621843
  35 H :    0.097784
  36 H :    0.136574
  37 H :    0.426376
Sum of atomic charges:   -1.0000000

LOEWDIN ATOMIC CHARGES
----------------------
   0 C :   -0.094112
   1 C :   -0.050691
   2 C :   -0.135465
   3 C :   -0.174120
   4 C :   -0.167352
   5 C :   -0.160296
   6 H :    0.350316
   7 H :    0.122510
   8 H :    0.116549
   9 H :    0.115564
  10 H :    0.113216
  11 C :   -0.221010
  12 C :   -0.210665
  13 H :    0.124774
  14 H :    0.132405
  15 C :   -0.036890
  16 H :    0.160771
  17 H :    0.117273
  18 C :    0.008891
  19 C :   -0.137751
  20 C :   -0.150695
  21 C :   -0.146177
  22 C :   -0.165625
  23 H :    0.156330
  24 H :    0.122673
  25 H :    0.119897
  26 H :    0.121068
  27 Pd:   -0.783480
  28 Br:   -0.203453
  29 P :    0.350606
  30 H :    0.047580
  31 C :    0.140024
  32 O :   -0.374675
  33 O :   -0.287115
  34 O :   -0.342407
  35 H :    0.036867
  36 H :    0.062454
  37 H :    0.322214

  Mayer bond orders larger than 0.100000
B(  0-C ,  1-C ) :   1.4375 B(  0-C ,  2-C ) :   1.3497 B(  0-C , 27-Pd) :   0.6197
B(  1-C ,  5-C ) :   1.3301 B(  1-C , 11-C ) :   0.9605 B(  2-C ,  3-C ) :   1.4604
B(  2-C ,  7-H ) :   0.9210 B(  3-C ,  4-C ) :   1.3949 B(  3-C ,  9-H ) :   0.9290
B(  4-C ,  5-C ) :   1.4798 B(  4-C , 10-H ) :   0.9286 B(  5-C ,  8-H ) :   0.9295
B(  6-H , 28-Br) :   0.4229 B(  6-H , 33-O ) :   0.3684 B( 11-C , 12-C ) :   0.9766
B( 11-C , 13-H ) :   0.9211 B( 11-C , 14-H ) :   0.9133 B( 12-C , 15-C ) :   0.9700
B( 12-C , 16-H ) :   0.8767 B( 12-C , 17-H ) :   0.9248 B( 15-C , 18-C ) :   1.3401
B( 15-C , 21-C ) :   1.4104 B( 18-C , 19-C ) :   1.4080 B( 18-C , 27-Pd) :   0.8294
B( 19-C , 20-C ) :   1.4100 B( 19-C , 23-H ) :   0.8794 B( 20-C , 22-C ) :   1.4355
B( 20-C , 24-H ) :   0.9271 B( 21-C , 22-C ) :   1.4158 B( 21-C , 25-H ) :   0.9273
B( 22-C , 26-H ) :   0.9282 B( 27-Pd, 28-Br) :   0.2919 B( 27-Pd, 29-P ) :   0.4964
B( 29-P , 30-H ) :   0.9390 B( 29-P , 35-H ) :   0.9253 B( 29-P , 36-H ) :   0.9342
B( 31-C , 32-O ) :   1.7771 B( 31-C , 33-O ) :   1.4494 B( 31-C , 34-O ) :   1.0290
B( 34-O , 37-H ) :   0.7704

Dispersion correction           -0.031669726
FINAL SINGLE POINT ENERGY     -3847.541176026279
Dispersion correction            ... done

DIPOLE MOMENT
-------------
                                X             Y             Z
Electronic contribution:     -5.34231     -62.17845     -10.90776
Nuclear contribution   :      6.32324      62.06754      12.48644
                        -----------------------------------------
Total Dipole Moment    :      0.98093      -0.11091       1.57868
                        -----------------------------------------
Magnitude (a.u.)       :      1.86192
Magnitude (Debye)      :      4.73263

Rotational constants in cm-1:     0.006696     0.006465     0.004618
Rotational constants in MHz :   200.744363   193.830041   138.446598

                             ****ORCA TERMINATED NORMALLY****
TOTAL RUN TIME: 0 days 0 hours 14 minutes 17 seconds 289 msec
