                         Program Version 5.0.3 -  RELEASE  -
|  1> ! EnGrad PBEh-3c
|  2> %output
|  3> xyzfile=True
|  4> end
|  5> %scf
|  6> maxiter 250
|  7> end
|  8> %output
|  9> Print[P_Hirshfeld] = 1
| 10> end
| 11> % maxcore
| 12> 4000
| 13> *xyz -1 1
| 14> C   -1.88883067  -0.00452577   0.53035059
| 15> C   -1.71184802   1.05547691   1.45510178
| 16> C   -3.29506633  -0.16485423   0.19999703
| 17> C   -4.31107966   0.74062134   0.51437342
| 18> C   -4.01346751   1.84853481   1.29861832
| 19> C   -2.73482585   1.98428798   1.77529735
| 20> H   -2.10232248  -2.52855285  -2.18888420
| 21> H   -3.62853533  -1.07257790  -0.28973229
| 22> H   -2.51939764   2.84152375   2.40787755
| 23> H   -5.33644734   0.56541231   0.19710208
| 24> H   -4.79275806   2.53186360   1.60377709
| 25> C   -0.42134568   1.29415860   2.26371780
| 26> C    0.79091913   0.34895691   2.14791736
| 27> H   -0.71499653   1.28075163   3.30896571
| 28> H   -0.09042995   2.29955119   2.04534956
| 29> C    1.69138984   0.64003834   0.98649995
| 30> H    0.47342907  -0.68877551   2.12645688
| 31> H    1.38339880   0.46676059   3.05721417
| 32> C    1.43221497   0.11371003  -0.28622932
| 33> C    2.34642142   0.38596923  -1.30943962
| 34> C    3.36091110   1.32331174  -1.13416127
| 35> C    2.77639776   1.50185130   1.16740253
| 36> C    3.58632017   1.89033305   0.10840187
| 37> H    2.31795714  -0.16703617  -2.23222471
| 38> H    4.05897306   1.51217896  -1.94163266
| 39> H    3.07725189   1.77567993   2.17491206
| 40> H    4.31666690   2.68197565   0.23503507
| 41> Pd  -0.11461595  -1.25718647  -0.37939873
| 42> Br  -1.59700853  -3.61157135  -0.17652218
| 43> P    1.53981676  -2.99624358  -0.18916328
| 44> H    1.46890301  -3.66725771   1.06007887
| 45> C    0.09876509  -1.63367652  -3.80856001
| 46> O    1.26647381  -1.71940393  -4.16633425
| 47> O   -0.64723333  -2.52467312  -3.20860537
| 48> O   -0.55427323  -0.42190491  -3.93459357
| 49> H    2.89762953  -2.74706058  -0.16336111
| 50> H    1.51452862  -4.11756230  -1.01478547
| 51> H    0.08168711   0.24242062  -4.24444190
| 52> *
| 53>
| 54>                          ****END OF INPUT****

CARTESIAN COORDINATES (ANGSTROEM)
---------------------------------
  C     -1.888831   -0.004526    0.530351
  C     -1.711848    1.055477    1.455102
  C     -3.295066   -0.164854    0.199997
  C     -4.311080    0.740621    0.514373
  C     -4.013468    1.848535    1.298618
  C     -2.734826    1.984288    1.775297
  H     -2.102322   -2.528553   -2.188884
  H     -3.628535   -1.072578   -0.289732
  H     -2.519398    2.841524    2.407878
  H     -5.336447    0.565412    0.197102
  H     -4.792758    2.531864    1.603777
  C     -0.421346    1.294159    2.263718
  C      0.790919    0.348957    2.147917
  H     -0.714997    1.280752    3.308966
  H     -0.090430    2.299551    2.045350
  C      1.691390    0.640038    0.986500
  H      0.473429   -0.688776    2.126457
  H      1.383399    0.466761    3.057214
  C      1.432215    0.113710   -0.286229
  C      2.346421    0.385969   -1.309440
  C      3.360911    1.323312   -1.134161
  C      2.776398    1.501851    1.167403
  C      3.586320    1.890333    0.108402
  H      2.317957   -0.167036   -2.232225
  H      4.058973    1.512179   -1.941633
  H      3.077252    1.775680    2.174912
  H      4.316667    2.681976    0.235035
  Pd    -0.114616   -1.257186   -0.379399
  Br    -1.597009   -3.611571   -0.176522
  P      1.539817   -2.996244   -0.189163
  H      1.468903   -3.667258    1.060079
  C      0.098765   -1.633677   -3.808560
  O      1.266474   -1.719404   -4.166334
  O     -0.647233   -2.524673   -3.208605
  O     -0.554273   -0.421905   -3.934594
  H      2.897630   -2.747061   -0.163361
  H      1.514529   -4.117562   -1.014785
  H      0.081687    0.242421   -4.244442

 Total Charge           Charge          ....   -1
 Multiplicity           Mult            ....    1
 Number of Electrons    NEL             ....  200
 Basis Dimension        Dim             ....  385

ORBITAL ENERGIES
----------------

  NO   OCC          E(Eh)            E(eV)
   0   2.0000    -484.380274    -13180.6573
   1   2.0000     -77.664130     -2113.3484
   2   2.0000     -63.041155     -1715.4370
   3   2.0000     -56.744600     -1544.0991
   4   2.0000     -56.744148     -1544.0868
   5   2.0000     -56.743582     -1544.0714
   6   2.0000     -19.392772      -527.7042
   7   2.0000     -19.367186      -527.0079
   8   2.0000     -19.335699      -526.1511
   9   2.0000     -10.473939      -285.0104
  10   2.0000     -10.342584      -281.4360
  11   2.0000     -10.338107      -281.3142
  12   2.0000     -10.337564      -281.2994
  13   2.0000     -10.336877      -281.2807
  14   2.0000     -10.336690      -281.2756
  15   2.0000     -10.328949      -281.0650
  16   2.0000     -10.326411      -280.9959
  17   2.0000     -10.325877      -280.9814
  18   2.0000     -10.323529      -280.9175
  19   2.0000     -10.318772      -280.7881
  20   2.0000     -10.317409      -280.7510
  21   2.0000     -10.317116      -280.7430
  22   2.0000     -10.315654      -280.7032
  23   2.0000     -10.315265      -280.6926
  24   2.0000      -8.867939      -241.3089
  25   2.0000      -6.740183      -183.4097
  26   2.0000      -6.637458      -180.6144
  27   2.0000      -6.633849      -180.5162
  28   2.0000      -6.630741      -180.4316
  29   2.0000      -4.831169      -131.4628
  30   2.0000      -4.830829      -131.4535
  31   2.0000      -4.829122      -131.4071
  32   2.0000      -3.511041       -95.5403
  33   2.0000      -2.651817       -72.1596
  34   2.0000      -2.651299       -72.1455
  35   2.0000      -2.648691       -72.0745
  36   2.0000      -2.645556       -71.9892
  37   2.0000      -2.645218       -71.9800
  38   2.0000      -2.157639       -58.7123
  39   2.0000      -2.150299       -58.5126
  40   2.0000      -2.127247       -57.8853
  41   2.0000      -1.081890       -29.4397
  42   2.0000      -0.973501       -26.4903
  43   2.0000      -0.946192       -25.7472
  44   2.0000      -0.844347       -22.9759
  45   2.0000      -0.817369       -22.2417
  46   2.0000      -0.771464       -20.9926
  47   2.0000      -0.723523       -19.6881
  48   2.0000      -0.717009       -19.5108
  49   2.0000      -0.691094       -18.8056
  50   2.0000      -0.683367       -18.5954
  51   2.0000      -0.671494       -18.2723
  52   2.0000      -0.640826       -17.4378
  53   2.0000      -0.601330       -16.3630
  54   2.0000      -0.563462       -15.3326
  55   2.0000      -0.542580       -14.7644
  56   2.0000      -0.541573       -14.7370
  57   2.0000      -0.536585       -14.6012
  58   2.0000      -0.506694       -13.7878
  59   2.0000      -0.458984       -12.4896
  60   2.0000      -0.441460       -12.0127
  61   2.0000      -0.428299       -11.6546
  62   2.0000      -0.415934       -11.3181
  63   2.0000      -0.405617       -11.0374
  64   2.0000      -0.403805       -10.9881
  65   2.0000      -0.385934       -10.5018
  66   2.0000      -0.382117       -10.3979
  67   2.0000      -0.378041       -10.2870
  68   2.0000      -0.372720       -10.1422
  69   2.0000      -0.369876       -10.0649
  70   2.0000      -0.360843        -9.8190
  71   2.0000      -0.351463        -9.5638
  72   2.0000      -0.343293        -9.3415
  73   2.0000      -0.332872        -9.0579
  74   2.0000      -0.330889        -9.0039
  75   2.0000      -0.327019        -8.8986
  76   2.0000      -0.316021        -8.5994
  77   2.0000      -0.300501        -8.1770
  78   2.0000      -0.291649        -7.9362
  79   2.0000      -0.288834        -7.8596
  80   2.0000      -0.281601        -7.6627
  81   2.0000      -0.267766        -7.2863
  82   2.0000      -0.258680        -7.0390
  83   2.0000      -0.249415        -6.7869
  84   2.0000      -0.247294        -6.7292
  85   2.0000      -0.245682        -6.6853
  86   2.0000      -0.239110        -6.5065
  87   2.0000      -0.223550        -6.0831
  88   2.0000      -0.214395        -5.8340
  89   2.0000      -0.208662        -5.6780
  90   2.0000      -0.205789        -5.5998
  91   2.0000      -0.192550        -5.2395
  92   2.0000      -0.188858        -5.1391
  93   2.0000      -0.182773        -4.9735
  94   2.0000      -0.173259        -4.7146
  95   2.0000      -0.169272        -4.6061
  96   2.0000      -0.161109        -4.3840
  97   2.0000      -0.150404        -4.0927
  98   2.0000      -0.145200        -3.9511
  99   2.0000      -0.120594        -3.2815
 100   0.0000       0.022929         0.6239
 101   0.0000       0.076025         2.0687
 102   0.0000       0.124243         3.3808
 103   0.0000       0.132122         3.5952
 104   0.0000       0.147220         4.0061

MULLIKEN ATOMIC CHARGES
-----------------------
   0 C :   -0.093910
   1 C :    0.018644
   2 C :   -0.307287
   3 C :   -0.213210
   4 C :   -0.233723
   5 C :   -0.228349
   6 H :    0.334644
   7 H :    0.184285
   8 H :    0.168589
   9 H :    0.173988
  10 H :    0.171238
  11 C :   -0.454272
  12 C :   -0.518514
  13 H :    0.205715
  14 H :    0.223152
  15 C :    0.129837
  16 H :    0.271940
  17 H :    0.194828
  18 C :   -0.098941
  19 C :   -0.309073
  20 C :   -0.228942
  21 C :   -0.279956
  22 C :   -0.232633
  23 H :    0.253971
  24 H :    0.187311
  25 H :    0.176094
  26 H :    0.183254
  27 Pd:    0.113395
  28 Br:   -0.411121
  29 P :   -0.166203
  30 H :    0.106908
  31 C :    0.695539
  32 O :   -0.507665
  33 O :   -0.542161
  34 O :   -0.619020
  35 H :    0.095949
  36 H :    0.134715
  37 H :    0.420983
Sum of atomic charges:   -1.0000000

LOEWDIN ATOMIC CHARGES
----------------------
   0 C :   -0.088207
   1 C :   -0.047895
   2 C :   -0.132890
   3 C :   -0.174304
   4 C :   -0.168300
   5 C :   -0.160036
   6 H :    0.354740
   7 H :    0.123324
   8 H :    0.115769
   9 H :    0.115904
  10 H :    0.113805
  11 C :   -0.219255
  12 C :   -0.210678
  13 H :    0.124703
  14 H :    0.132365
  15 C :   -0.038502
  16 H :    0.161309
  17 H :    0.117229
  18 C :    0.003263
  19 C :   -0.137739
  20 C :   -0.152639
  21 C :   -0.147117
  22 C :   -0.165519
  23 H :    0.153747
  24 H :    0.122631
  25 H :    0.120118
  26 H :    0.120548
  27 Pd:   -0.786913
  28 Br:   -0.203406
  29 P :    0.345749
  30 H :    0.047694
  31 C :    0.132555
  32 O :   -0.321658
  33 O :   -0.325480
  34 O :   -0.342469
  35 H :    0.036109
  36 H :    0.061317
  37 H :    0.320129

  Mayer bond orders larger than 0.100000
B(  0-C ,  1-C ) :   1.4283 B(  0-C ,  2-C ) :   1.3508 B(  0-C , 27-Pd) :   0.6380
B(  1-C ,  5-C ) :   1.3276 B(  1-C , 11-C ) :   0.9607 B(  2-C ,  3-C ) :   1.4565
B(  2-C ,  7-H ) :   0.9203 B(  3-C ,  4-C ) :   1.3920 B(  3-C ,  9-H ) :   0.9290
B(  4-C ,  5-C ) :   1.4806 B(  4-C , 10-H ) :   0.9285 B(  5-C ,  8-H ) :   0.9303
B(  6-H , 28-Br) :   0.4078 B(  6-H , 33-O ) :   0.3914 B( 11-C , 12-C ) :   0.9750
B( 11-C , 13-H ) :   0.9212 B( 11-C , 14-H ) :   0.9129 B( 12-C , 15-C ) :   0.9706
B( 12-C , 16-H ) :   0.8769 B( 12-C , 17-H ) :   0.9242 B( 15-C , 18-C ) :   1.3431
B( 15-C , 21-C ) :   1.4047 B( 18-C , 19-C ) :   1.4031 B( 18-C , 27-Pd) :   0.8197
B( 19-C , 20-C ) :   1.4166 B( 19-C , 23-H ) :   0.8837 B( 20-C , 22-C ) :   1.4301
B( 20-C , 24-H ) :   0.9270 B( 21-C , 22-C ) :   1.4216 B( 21-C , 25-H ) :   0.9274
B( 22-C , 26-H ) :   0.9281 B( 27-Pd, 28-Br) :   0.3048 B( 27-Pd, 29-P ) :   0.4754
B( 29-P , 30-H ) :   0.9396 B( 29-P , 35-H ) :   0.9255 B( 29-P , 36-H ) :   0.9343
B( 31-C , 32-O ) :   1.8511 B( 31-C , 33-O ) :   1.3831 B( 31-C , 34-O ) :   1.0290
B( 34-O , 37-H ) :   0.7745

Dispersion correction           -0.031708781
FINAL SINGLE POINT ENERGY     -3847.555739133700
Dispersion correction            ... done

DIPOLE MOMENT
-------------
                                X             Y             Z
Electronic contribution:     -7.01010     -61.57679      -9.64437
Nuclear contribution   :      8.10044      61.48785      11.10190
                        -----------------------------------------
Total Dipole Moment    :      1.09034      -0.08894       1.45753
                        -----------------------------------------
Magnitude (a.u.)       :      1.82240
Magnitude (Debye)      :      4.63217

Rotational constants in cm-1:     0.006727     0.006497     0.004620
Rotational constants in MHz :   201.659762   194.761743   138.498773

                             ****ORCA TERMINATED NORMALLY****
TOTAL RUN TIME: 0 days 0 hours 17 minutes 6 seconds 189 msec
