                         Program Version 5.0.3 -  RELEASE  -
|  1> ! EnGrad PBEh-3c
|  2> %output
|  3> xyzfile=True
|  4> end
|  5> %scf
|  6> maxiter 250
|  7> end
|  8> %output
|  9> Print[P_Hirshfeld] = 1
| 10> end
| 11> % maxcore
| 12> 4000
| 13> *xyz -1 1
| 14> C   -1.89147394  -0.00631497   0.51108606
| 15> C   -1.70906203   1.04872844   1.44703127
| 16> C   -3.28717403  -0.20193510   0.24598513
| 17> C   -4.32052267   0.70799382   0.55605635
| 18> C   -4.03211943   1.83940154   1.31921645
| 19> C   -2.75053820   1.95965352   1.79346288
| 20> H   -1.99281631  -2.47475226  -2.17576871
| 21> H   -3.63625674  -1.11315659  -0.25445681
| 22> H   -2.50853972   2.85233076   2.39630159
| 23> H   -5.35609676   0.53741371   0.24553177
| 24> H   -4.80708360   2.52735753   1.63430985
| 25> C   -0.42425399   1.30629487   2.22085415
| 26> C    0.78364130   0.35713016   2.13480724
| 27> H   -0.70291640   1.33810461   3.28558271
| 28> H   -0.08268815   2.32372004   1.97519066
| 29> C    1.70946361   0.62329205   0.97384620
| 30> H    0.45359396  -0.68729706   2.11432747
| 31> H    1.36789647   0.48090361   3.04688325
| 32> C    1.44275757   0.08381691  -0.28400451
| 33> C    2.36624080   0.36609012  -1.31209385
| 34> C    3.37926734   1.30884812  -1.14106062
| 35> C    2.76646764   1.51620748   1.16268924
| 36> C    3.60244931   1.87391890   0.11273586
| 37> H    2.32656574  -0.18378988  -2.25490105
| 38> H    4.07170082   1.50362378  -1.94182956
| 39> H    3.06054004   1.78599076   2.17061694
| 40> H    4.34141305   2.65841512   0.24184262
| 41> Pd  -0.18332484  -1.23671791  -0.32127739
| 42> Br  -1.62324796  -3.56582172  -0.29653430
| 43> P    1.53208110  -2.98192996  -0.18724797
| 44> H    1.43200422  -3.65190662   1.06578074
| 45> C    0.09239584  -1.61543963  -3.80876717
| 46> O    1.24180686  -1.72930683  -4.14328986
| 47> O   -0.69360371  -2.48942449  -3.17584092
| 48> O   -0.52986364  -0.41434021  -3.95224258
| 49> H    2.92107431  -2.74806005  -0.13022234
| 50> H    1.52642361  -4.12751360  -1.00175463
| 51> H    0.12132578   0.23198638  -4.27900134
| 52> *
| 53>
| 54>                          ****END OF INPUT****

CARTESIAN COORDINATES (ANGSTROEM)
---------------------------------
  C     -1.891474   -0.006315    0.511086
  C     -1.709062    1.048728    1.447031
  C     -3.287174   -0.201935    0.245985
  C     -4.320523    0.707994    0.556056
  C     -4.032119    1.839402    1.319216
  C     -2.750538    1.959654    1.793463
  H     -1.992816   -2.474752   -2.175769
  H     -3.636257   -1.113157   -0.254457
  H     -2.508540    2.852331    2.396302
  H     -5.356097    0.537414    0.245532
  H     -4.807084    2.527358    1.634310
  C     -0.424254    1.306295    2.220854
  C      0.783641    0.357130    2.134807
  H     -0.702916    1.338105    3.285583
  H     -0.082688    2.323720    1.975191
  C      1.709464    0.623292    0.973846
  H      0.453594   -0.687297    2.114327
  H      1.367896    0.480904    3.046883
  C      1.442758    0.083817   -0.284005
  C      2.366241    0.366090   -1.312094
  C      3.379267    1.308848   -1.141061
  C      2.766468    1.516207    1.162689
  C      3.602449    1.873919    0.112736
  H      2.326566   -0.183790   -2.254901
  H      4.071701    1.503624   -1.941830
  H      3.060540    1.785991    2.170617
  H      4.341413    2.658415    0.241843
  Pd    -0.183325   -1.236718   -0.321277
  Br    -1.623248   -3.565822   -0.296534
  P      1.532081   -2.981930   -0.187248
  H      1.432004   -3.651907    1.065781
  C      0.092396   -1.615440   -3.808767
  O      1.241807   -1.729307   -4.143290
  O     -0.693604   -2.489424   -3.175841
  O     -0.529864   -0.414340   -3.952243
  H      2.921074   -2.748060   -0.130222
  H      1.526424   -4.127514   -1.001755
  H      0.121326    0.231986   -4.279001

 Total Charge           Charge          ....   -1
 Multiplicity           Mult            ....    1
 Number of Electrons    NEL             ....  200
 Basis Dimension        Dim             ....  385

ORBITAL ENERGIES
----------------

  NO   OCC          E(Eh)            E(eV)
   0   2.0000    -484.377977    -13180.5949
   1   2.0000     -77.665652     -2113.3898
   2   2.0000     -63.038945     -1715.3769
   3   2.0000     -56.742421     -1544.0398
   4   2.0000     -56.741940     -1544.0267
   5   2.0000     -56.741342     -1544.0104
   6   2.0000     -19.396187      -527.7971
   7   2.0000     -19.362061      -526.8685
   8   2.0000     -19.339310      -526.2494
   9   2.0000     -10.474636      -285.0293
  10   2.0000     -10.340206      -281.3713
  11   2.0000     -10.338285      -281.3190
  12   2.0000     -10.336819      -281.2791
  13   2.0000     -10.335498      -281.2432
  14   2.0000     -10.334729      -281.2223
  15   2.0000     -10.331752      -281.1413
  16   2.0000     -10.328681      -281.0577
  17   2.0000     -10.326584      -281.0006
  18   2.0000     -10.326125      -280.9881
  19   2.0000     -10.321414      -280.8599
  20   2.0000     -10.320846      -280.8445
  21   2.0000     -10.319876      -280.8181
  22   2.0000     -10.318568      -280.7825
  23   2.0000     -10.317651      -280.7576
  24   2.0000      -8.865855      -241.2522
  25   2.0000      -6.740532      -183.4192
  26   2.0000      -6.635044      -180.5487
  27   2.0000      -6.632036      -180.4669
  28   2.0000      -6.628800      -180.3788
  29   2.0000      -4.831453      -131.4705
  30   2.0000      -4.831258      -131.4652
  31   2.0000      -4.829471      -131.4166
  32   2.0000      -3.510053       -95.5134
  33   2.0000      -2.649561       -72.0982
  34   2.0000      -2.649170       -72.0876
  35   2.0000      -2.646410       -72.0125
  36   2.0000      -2.643828       -71.9422
  37   2.0000      -2.643383       -71.9301
  38   2.0000      -2.155592       -58.6566
  39   2.0000      -2.150121       -58.5078
  40   2.0000      -2.125947       -57.8500
  41   2.0000      -1.092060       -29.7165
  42   2.0000      -0.982552       -26.7366
  43   2.0000      -0.939630       -25.5686
  44   2.0000      -0.841836       -22.9075
  45   2.0000      -0.818031       -22.2598
  46   2.0000      -0.769848       -20.9486
  47   2.0000      -0.723070       -19.6757
  48   2.0000      -0.714502       -19.4426
  49   2.0000      -0.693622       -18.8744
  50   2.0000      -0.683885       -18.6095
  51   2.0000      -0.670370       -18.2417
  52   2.0000      -0.636052       -17.3078
  53   2.0000      -0.599797       -16.3213
  54   2.0000      -0.562383       -15.3032
  55   2.0000      -0.549176       -14.9438
  56   2.0000      -0.540145       -14.6981
  57   2.0000      -0.535324       -14.5669
  58   2.0000      -0.506801       -13.7908
  59   2.0000      -0.457255       -12.4425
  60   2.0000      -0.440541       -11.9877
  61   2.0000      -0.433446       -11.7947
  62   2.0000      -0.414483       -11.2787
  63   2.0000      -0.411459       -11.1964
  64   2.0000      -0.403687       -10.9849
  65   2.0000      -0.390004       -10.6125
  66   2.0000      -0.382565       -10.4101
  67   2.0000      -0.379784       -10.3344
  68   2.0000      -0.369931       -10.0663
  69   2.0000      -0.364164        -9.9094
  70   2.0000      -0.357033        -9.7154
  71   2.0000      -0.349282        -9.5044
  72   2.0000      -0.340761        -9.2726
  73   2.0000      -0.338203        -9.2030
  74   2.0000      -0.332036        -9.0352
  75   2.0000      -0.324695        -8.8354
  76   2.0000      -0.315757        -8.5922
  77   2.0000      -0.299133        -8.1398
  78   2.0000      -0.289668        -7.8823
  79   2.0000      -0.287916        -7.8346
  80   2.0000      -0.280352        -7.6288
  81   2.0000      -0.264524        -7.1981
  82   2.0000      -0.259529        -7.0621
  83   2.0000      -0.250435        -6.8147
  84   2.0000      -0.248777        -6.7696
  85   2.0000      -0.247640        -6.7386
  86   2.0000      -0.240231        -6.5370
  87   2.0000      -0.226312        -6.1582
  88   2.0000      -0.215071        -5.8524
  89   2.0000      -0.209530        -5.7016
  90   2.0000      -0.203407        -5.5350
  91   2.0000      -0.191331        -5.2064
  92   2.0000      -0.190925        -5.1953
  93   2.0000      -0.182198        -4.9579
  94   2.0000      -0.172747        -4.7007
  95   2.0000      -0.172474        -4.6933
  96   2.0000      -0.160922        -4.3789
  97   2.0000      -0.151002        -4.1090
  98   2.0000      -0.142480        -3.8771
  99   2.0000      -0.122099        -3.3225
 100   0.0000       0.059928         1.6307
 101   0.0000       0.077765         2.1161
 102   0.0000       0.123531         3.3614
 103   0.0000       0.132218         3.5978
 104   0.0000       0.144249         3.9252

MULLIKEN ATOMIC CHARGES
-----------------------
   0 C :   -0.086281
   1 C :    0.039409
   2 C :   -0.300487
   3 C :   -0.222876
   4 C :   -0.227471
   5 C :   -0.237525
   6 H :    0.351305
   7 H :    0.188375
   8 H :    0.167218
   9 H :    0.174874
  10 H :    0.173662
  11 C :   -0.454490
  12 C :   -0.517037
  13 H :    0.202923
  14 H :    0.221242
  15 C :    0.119621
  16 H :    0.269069
  17 H :    0.194730
  18 C :   -0.096148
  19 C :   -0.325937
  20 C :   -0.220691
  21 C :   -0.266670
  22 C :   -0.242381
  23 H :    0.248367
  24 H :    0.187961
  25 H :    0.175583
  26 H :    0.181650
  27 Pd:    0.106636
  28 Br:   -0.418533
  29 P :   -0.157911
  30 H :    0.105576
  31 C :    0.695312
  32 O :   -0.487487
  33 O :   -0.580909
  34 O :   -0.603981
  35 H :    0.092869
  36 H :    0.130413
  37 H :    0.420021
Sum of atomic charges:   -1.0000000

LOEWDIN ATOMIC CHARGES
----------------------
   0 C :   -0.076182
   1 C :   -0.043480
   2 C :   -0.129056
   3 C :   -0.172563
   4 C :   -0.170224
   5 C :   -0.158882
   6 H :    0.362490
   7 H :    0.126388
   8 H :    0.114807
   9 H :    0.116075
  10 H :    0.115380
  11 C :   -0.215279
  12 C :   -0.210598
  13 H :    0.124376
  14 H :    0.132604
  15 C :   -0.041536
  16 H :    0.162406
  17 H :    0.116792
  18 C :   -0.009497
  19 C :   -0.136625
  20 C :   -0.156024
  21 C :   -0.149370
  22 C :   -0.164485
  23 H :    0.150693
  24 H :    0.122686
  25 H :    0.120592
  26 H :    0.119442
  27 Pd:   -0.796022
  28 Br:   -0.193819
  29 P :    0.337814
  30 H :    0.047278
  31 C :    0.124918
  32 O :   -0.296463
  33 O :   -0.364734
  34 O :   -0.324850
  35 H :    0.035174
  36 H :    0.058778
  37 H :    0.320996

  Mayer bond orders larger than 0.100000
B(  0-C ,  1-C ) :   1.4077 B(  0-C ,  2-C ) :   1.3554 B(  0-C , 27-Pd) :   0.6781
B(  1-C ,  5-C ) :   1.3305 B(  1-C , 11-C ) :   0.9601 B(  2-C ,  3-C ) :   1.4422
B(  2-C ,  7-H ) :   0.9181 B(  3-C ,  4-C ) :   1.3958 B(  3-C ,  9-H ) :   0.9293
B(  4-C ,  5-C ) :   1.4713 B(  4-C , 10-H ) :   0.9281 B(  5-C ,  8-H ) :   0.9310
B(  6-H , 28-Br) :   0.3920 B(  6-H , 33-O ) :   0.4084 B( 11-C , 12-C ) :   0.9702
B( 11-C , 13-H ) :   0.9223 B( 11-C , 14-H ) :   0.9111 B( 12-C , 15-C ) :   0.9705
B( 12-C , 16-H ) :   0.8772 B( 12-C , 17-H ) :   0.9241 B( 15-C , 18-C ) :   1.3482
B( 15-C , 21-C ) :   1.3927 B( 18-C , 19-C ) :   1.3935 B( 18-C , 27-Pd) :   0.7959
B( 19-C , 20-C ) :   1.4264 B( 19-C , 23-H ) :   0.8869 B( 20-C , 22-C ) :   1.4208
B( 20-C , 24-H ) :   0.9267 B( 21-C , 22-C ) :   1.4316 B( 21-C , 25-H ) :   0.9270
B( 22-C , 26-H ) :   0.9281 B( 27-Pd, 28-Br) :   0.3292 B( 27-Pd, 29-P ) :   0.4369
B( 29-P , 30-H ) :   0.9402 B( 29-P , 35-H ) :   0.9265 B( 29-P , 36-H ) :   0.9338
B( 31-C , 32-O ) :   1.8914 B( 31-C , 33-O ) :   1.3251 B( 31-C , 34-O ) :   1.0528
B( 34-O , 37-H ) :   0.7743

Dispersion correction           -0.031811514
FINAL SINGLE POINT ENERGY     -3847.577646513867
Dispersion correction            ... done

DIPOLE MOMENT
-------------
                                X             Y             Z
Electronic contribution:    -10.62192     -60.40055      -6.64949
Nuclear contribution   :     11.72489      60.38339       8.02790
                        -----------------------------------------
Total Dipole Moment    :      1.10298      -0.01715       1.37841
                        -----------------------------------------
Magnitude (a.u.)       :      1.76547
Magnitude (Debye)      :      4.48746

Rotational constants in cm-1:     0.006796     0.006571     0.004620
Rotational constants in MHz :   203.753078   197.006339   138.515824

                             ****ORCA TERMINATED NORMALLY****
TOTAL RUN TIME: 0 days 0 hours 15 minutes 0 seconds 692 msec
