                         Program Version 5.0.3 -  RELEASE  -
|  1> ! EnGrad PBEh-3c
|  2> %output
|  3> xyzfile=True
|  4> end
|  5> %scf
|  6> maxiter 250
|  7> end
|  8> %output
|  9> Print[P_Hirshfeld] = 1
| 10> end
| 11> % maxcore
| 12> 4000
| 13> *xyz -1 1
| 14> C   -1.91724768  -0.00340080   0.50824260
| 15> C   -1.70508279   1.04661668   1.43515285
| 16> C   -3.28120596  -0.24717303   0.29770137
| 17> C   -4.33457339   0.65547278   0.62131907
| 18> C   -4.05371572   1.81726600   1.35327045
| 19> C   -2.76247725   1.92955710   1.80805328
| 20> H   -1.83839439  -2.39912027  -2.16332951
| 21> H   -3.64874632  -1.16548220  -0.19647466
| 22> H   -2.49800725   2.85787298   2.37945704
| 23> H   -5.37893708   0.49376796   0.31901962
| 24> H   -4.82875861   2.51849876   1.67612739
| 25> C   -0.42548030   1.32337281   2.15830257
| 26> C    0.77351023   0.37049791   2.11321368
| 27> H   -0.68341746   1.42428024   3.24431095
| 28> H   -0.07349831   2.34998715   1.87046101
| 29> C    1.72330597   0.61510007   0.95549193
| 30> H    0.42640577  -0.68113353   2.09905132
| 31> H    1.34628456   0.49913292   3.03426989
| 32> C    1.44889123   0.04421349  -0.28126226
| 33> C    2.38622904   0.33733721  -1.31211710
| 34> C    3.40849321   1.27726476  -1.14475362
| 35> C    2.76795427   1.51662790   1.15547201
| 36> C    3.61574074   1.86114811   0.11464602
| 37> H    2.34222604  -0.20437377  -2.28164148
| 38> H    4.09461808   1.49117474  -1.94401631
| 39> H    3.03635396   1.80402131   2.16482305
| 40> H    4.37579076   2.62379639   0.25064227
| 41> Pd  -0.24255789  -1.22264698  -0.25904501
| 42> Br  -1.66409675  -3.50021566  -0.46088121
| 43> P    1.50938620  -2.95820615  -0.17972632
| 44> H    1.38054858  -3.62949581   1.07131242
| 45> C    0.08894710  -1.57277598  -3.78904086
| 46> O    1.19970844  -1.75567761  -4.11295985
| 47> O   -0.74892906  -2.43963869  -3.13935359
| 48> O   -0.49768445  -0.40015380  -3.98569983
| 49> H    2.94566287  -2.75004929  -0.08048384
| 50> H    1.54401548  -4.13864025  -0.98079089
| 51> H    0.17714236   0.21534874  -4.32843939
| 52> *
| 53>
| 54>                          ****END OF INPUT****

CARTESIAN COORDINATES (ANGSTROEM)
---------------------------------
  C     -1.917248   -0.003401    0.508243
  C     -1.705083    1.046617    1.435153
  C     -3.281206   -0.247173    0.297701
  C     -4.334573    0.655473    0.621319
  C     -4.053716    1.817266    1.353270
  C     -2.762477    1.929557    1.808053
  H     -1.838394   -2.399120   -2.163330
  H     -3.648746   -1.165482   -0.196475
  H     -2.498007    2.857873    2.379457
  H     -5.378937    0.493768    0.319020
  H     -4.828759    2.518499    1.676127
  C     -0.425480    1.323373    2.158303
  C      0.773510    0.370498    2.113214
  H     -0.683417    1.424280    3.244311
  H     -0.073498    2.349987    1.870461
  C      1.723306    0.615100    0.955492
  H      0.426406   -0.681134    2.099051
  H      1.346285    0.499133    3.034270
  C      1.448891    0.044213   -0.281262
  C      2.386229    0.337337   -1.312117
  C      3.408493    1.277265   -1.144754
  C      2.767954    1.516628    1.155472
  C      3.615741    1.861148    0.114646
  H      2.342226   -0.204374   -2.281641
  H      4.094618    1.491175   -1.944016
  H      3.036354    1.804021    2.164823
  H      4.375791    2.623796    0.250642
  Pd    -0.242558   -1.222647   -0.259045
  Br    -1.664097   -3.500216   -0.460881
  P      1.509386   -2.958206   -0.179726
  H      1.380549   -3.629496    1.071312
  C      0.088947   -1.572776   -3.789041
  O      1.199708   -1.755678   -4.112960
  O     -0.748929   -2.439639   -3.139354
  O     -0.497684   -0.400154   -3.985700
  H      2.945663   -2.750049   -0.080484
  H      1.544015   -4.138640   -0.980791
  H      0.177142    0.215349   -4.328439

 Total Charge           Charge          ....   -1
 Multiplicity           Mult            ....    1
 Number of Electrons    NEL             ....  200
 Basis Dimension        Dim             ....  385

ORBITAL ENERGIES
----------------

  NO   OCC          E(Eh)            E(eV)
   0   2.0000    -484.371279    -13180.4126
   1   2.0000     -77.668352     -2113.4633
   2   2.0000     -63.032506     -1715.2017
   3   2.0000     -56.735997     -1543.8650
   4   2.0000     -56.735484     -1543.8510
   5   2.0000     -56.734891     -1543.8349
   6   2.0000     -19.404999      -528.0369
   7   2.0000     -19.354497      -526.6626
   8   2.0000     -19.344072      -526.3790
   9   2.0000     -10.475550      -285.0542
  10   2.0000     -10.338801      -281.3331
  11   2.0000     -10.338244      -281.3179
  12   2.0000     -10.337994      -281.3111
  13   2.0000     -10.335576      -281.2453
  14   2.0000     -10.334310      -281.2109
  15   2.0000     -10.332546      -281.1629
  16   2.0000     -10.329873      -281.0901
  17   2.0000     -10.329169      -281.0710
  18   2.0000     -10.326859      -281.0081
  19   2.0000     -10.324759      -280.9510
  20   2.0000     -10.324149      -280.9344
  21   2.0000     -10.322193      -280.8811
  22   2.0000     -10.319409      -280.8054
  23   2.0000     -10.316765      -280.7335
  24   2.0000      -8.859717      -241.0851
  25   2.0000      -6.741614      -183.4487
  26   2.0000      -6.628428      -180.3687
  27   2.0000      -6.626313      -180.3111
  28   2.0000      -6.622868      -180.2174
  29   2.0000      -4.832521      -131.4996
  30   2.0000      -4.832398      -131.4962
  31   2.0000      -4.830568      -131.4465
  32   2.0000      -3.510152       -95.5161
  33   2.0000      -2.643192       -71.9249
  34   2.0000      -2.642970       -71.9189
  35   2.0000      -2.639993       -71.8379
  36   2.0000      -2.638187       -71.7887
  37   2.0000      -2.637622       -71.7733
  38   2.0000      -2.154705       -58.6325
  39   2.0000      -2.151130       -58.5352
  40   2.0000      -2.125905       -57.8488
  41   2.0000      -1.112579       -30.2748
  42   2.0000      -1.002365       -27.2757
  43   2.0000      -0.930072       -25.3085
  44   2.0000      -0.839906       -22.8550
  45   2.0000      -0.820881       -22.3373
  46   2.0000      -0.769204       -20.9311
  47   2.0000      -0.723454       -19.6862
  48   2.0000      -0.712787       -19.3959
  49   2.0000      -0.697730       -18.9862
  50   2.0000      -0.682991       -18.5851
  51   2.0000      -0.669358       -18.2142
  52   2.0000      -0.629900       -17.1404
  53   2.0000      -0.598744       -16.2927
  54   2.0000      -0.563034       -15.3209
  55   2.0000      -0.561480       -15.2787
  56   2.0000      -0.538954       -14.6657
  57   2.0000      -0.535074       -14.5601
  58   2.0000      -0.506961       -13.7951
  59   2.0000      -0.456235       -12.4148
  60   2.0000      -0.445367       -12.1190
  61   2.0000      -0.439795       -11.9674
  62   2.0000      -0.424121       -11.5409
  63   2.0000      -0.413660       -11.2563
  64   2.0000      -0.404397       -11.0042
  65   2.0000      -0.399816       -10.8795
  66   2.0000      -0.385593       -10.4925
  67   2.0000      -0.379876       -10.3370
  68   2.0000      -0.367132        -9.9902
  69   2.0000      -0.355944        -9.6857
  70   2.0000      -0.352642        -9.5959
  71   2.0000      -0.348140        -9.4734
  72   2.0000      -0.347216        -9.4482
  73   2.0000      -0.339504        -9.2384
  74   2.0000      -0.332812        -9.0563
  75   2.0000      -0.322922        -8.7872
  76   2.0000      -0.316525        -8.6131
  77   2.0000      -0.299109        -8.1392
  78   2.0000      -0.289582        -7.8799
  79   2.0000      -0.286089        -7.7849
  80   2.0000      -0.279577        -7.6077
  81   2.0000      -0.263434        -7.1684
  82   2.0000      -0.261471        -7.1150
  83   2.0000      -0.254771        -6.9327
  84   2.0000      -0.252560        -6.8725
  85   2.0000      -0.248151        -6.7525
  86   2.0000      -0.243428        -6.6240
  87   2.0000      -0.231205        -6.2914
  88   2.0000      -0.214201        -5.8287
  89   2.0000      -0.209383        -5.6976
  90   2.0000      -0.203002        -5.5240
  91   2.0000      -0.191071        -5.1993
  92   2.0000      -0.189922        -5.1680
  93   2.0000      -0.181516        -4.9393
  94   2.0000      -0.172258        -4.6874
  95   2.0000      -0.170456        -4.6384
  96   2.0000      -0.160444        -4.3659
  97   2.0000      -0.152867        -4.1597
  98   2.0000      -0.140546        -3.8245
  99   2.0000      -0.121732        -3.3125
 100   0.0000       0.077509         2.1091
 101   0.0000       0.116603         3.1729
 102   0.0000       0.124173         3.3789
 103   0.0000       0.132278         3.5995
 104   0.0000       0.141726         3.8566

MULLIKEN ATOMIC CHARGES
-----------------------
   0 C :   -0.081071
   1 C :    0.072297
   2 C :   -0.292183
   3 C :   -0.235687
   4 C :   -0.222924
   5 C :   -0.248286
   6 H :    0.374690
   7 H :    0.198255
   8 H :    0.163663
   9 H :    0.176217
  10 H :    0.175354
  11 C :   -0.455960
  12 C :   -0.518899
  13 H :    0.199481
  14 H :    0.220078
  15 C :    0.119708
  16 H :    0.266434
  17 H :    0.195077
  18 C :   -0.101070
  19 C :   -0.341385
  20 C :   -0.214898
  21 C :   -0.260342
  22 C :   -0.246319
  23 H :    0.236856
  24 H :    0.188035
  25 H :    0.175948
  26 H :    0.180857
  27 Pd:    0.093266
  28 Br:   -0.432847
  29 P :   -0.144954
  30 H :    0.104822
  31 C :    0.686883
  32 O :   -0.455200
  33 O :   -0.630017
  34 O :   -0.578288
  35 H :    0.087135
  36 H :    0.124451
  37 H :    0.420826
Sum of atomic charges:   -1.0000000

LOEWDIN ATOMIC CHARGES
----------------------
   0 C :   -0.068482
   1 C :   -0.041699
   2 C :   -0.127017
   3 C :   -0.169150
   4 C :   -0.171836
   5 C :   -0.155699
   6 H :    0.364130
   7 H :    0.131995
   8 H :    0.112682
   9 H :    0.116104
  10 H :    0.116827
  11 C :   -0.209935
  12 C :   -0.209701
  13 H :    0.123879
  14 H :    0.133093
  15 C :   -0.043575
  16 H :    0.164188
  17 H :    0.116076
  18 C :   -0.024739
  19 C :   -0.135782
  20 C :   -0.159635
  21 C :   -0.151332
  22 C :   -0.163163
  23 H :    0.145743
  24 H :    0.122503
  25 H :    0.121029
  26 H :    0.118439
  27 Pd:   -0.806616
  28 Br:   -0.189292
  29 P :    0.338193
  30 H :    0.047121
  31 C :    0.107220
  32 O :   -0.257658
  33 O :   -0.411444
  34 O :   -0.293812
  35 H :    0.032463
  36 H :    0.055143
  37 H :    0.323739

  Mayer bond orders larger than 0.100000
B(  0-C ,  1-C ) :   1.3911 B(  0-C ,  2-C ) :   1.3702 B(  0-C , 27-Pd) :   0.7086
B(  1-C ,  5-C ) :   1.3386 B(  1-C , 11-C ) :   0.9578 B(  2-C ,  3-C ) :   1.4236
B(  2-C ,  7-H ) :   0.9137 B(  3-C ,  4-C ) :   1.4032 B(  3-C ,  9-H ) :   0.9294
B(  4-C ,  5-C ) :   1.4579 B(  4-C , 10-H ) :   0.9282 B(  5-C ,  8-H ) :   0.9315
B(  6-H , 28-Br) :   0.3614 B(  6-H , 33-O ) :   0.4342 B( 11-C , 12-C ) :   0.9629
B( 11-C , 13-H ) :   0.9247 B( 11-C , 14-H ) :   0.9083 B( 12-C , 15-C ) :   0.9646
B( 12-C , 16-H ) :   0.8776 B( 12-C , 17-H ) :   0.9253 B( 15-C , 18-C ) :   1.3529
B( 15-C , 21-C ) :   1.3825 B( 18-C , 19-C ) :   1.3801 B( 18-C , 27-Pd) :   0.7690
B( 19-C , 20-C ) :   1.4346 B( 19-C , 23-H ) :   0.8929 B( 20-C , 22-C ) :   1.4122
B( 20-C , 24-H ) :   0.9266 B( 21-C , 22-C ) :   1.4430 B( 21-C , 25-H ) :   0.9270
B( 22-C , 26-H ) :   0.9281 B( 27-Pd, 28-Br) :   0.3602 B( 27-Pd, 29-P ) :   0.4165
B( 29-P , 30-H ) :   0.9389 B( 29-P , 35-H ) :   0.9266 B( 29-P , 36-H ) :   0.9316
B( 31-C , 32-O ) :   1.9459 B( 31-C , 33-O ) :   1.2460 B( 31-C , 34-O ) :   1.0939
B( 34-O , 37-H ) :   0.7723

Dispersion correction           -0.031744550
FINAL SINGLE POINT ENERGY     -3847.596685426848
Dispersion correction            ... done

DIPOLE MOMENT
-------------
                                X             Y             Z
Electronic contribution:    -13.60744     -59.47098      -3.49718
Nuclear contribution   :     14.78083      59.62787       4.75416
                        -----------------------------------------
Total Dipole Moment    :      1.17338       0.15689       1.25697
                        -----------------------------------------
Magnitude (a.u.)       :      1.72668
Magnitude (Debye)      :      4.38888

Rotational constants in cm-1:     0.006888     0.006667     0.004618
Rotational constants in MHz :   206.509524   199.857922   138.430379

                             ****ORCA TERMINATED NORMALLY****
TOTAL RUN TIME: 0 days 0 hours 14 minutes 0 seconds 427 msec
