                         Program Version 5.0.3 -  RELEASE  -
|  1> ! EnGrad PBEh-3c
|  2> %output
|  3> xyzfile=True
|  4> end
|  5> %scf
|  6> maxiter 250
|  7> end
|  8> %output
|  9> Print[P_Hirshfeld] = 1
| 10> end
| 11> % maxcore
| 12> 4000
| 13> *xyz 1 1
| 14> Sc   1.57262211  -1.40057304  -1.57719750
| 15> C    0.43505236  -0.68790429   0.22755311
| 16> N   -0.46618432  -1.40077663   0.92437011
| 17> C   -0.87235589  -0.71134272   2.02942214
| 18> C   -0.19862536   0.45954959   2.02723773
| 19> N    0.61923886   0.44313545   0.93506730
| 20> C    1.49495195   1.54360645   0.58644943
| 21> H    1.79755929   2.12446373   1.45456166
| 22> H    0.99746636   2.21079334  -0.11253037
| 23> H    2.41826513   1.17555200   0.14485441
| 24> C   -0.98699042  -2.71391038   0.58851854
| 25> H   -0.45389978  -3.11843713  -0.26751659
| 26> H   -2.04505514  -2.64632239   0.34461500
| 27> H   -0.85552093  -3.39035550   1.42980941
| 28> H   -1.60106908  -1.09006151   2.72545902
| 29> H   -0.26487618   1.28080310   2.71988929
| 30> C   -0.39400673   1.64782890  -2.78583845
| 31> H   -0.97493953   1.26076411  -3.62156545
| 32> H   -0.40829062   2.73487237  -2.80120670
| 33> H   -0.84740754   1.31106703  -1.85492179
| 34> H    1.03408751   0.96726343  -3.11703824
| 35> *
| 36>
| 37>                          ****END OF INPUT****

CARTESIAN COORDINATES (ANGSTROEM)
---------------------------------
  Sc     1.572622   -1.400573   -1.577198
  C      0.435052   -0.687904    0.227553
  N     -0.466184   -1.400777    0.924370
  C     -0.872356   -0.711343    2.029422
  C     -0.198625    0.459550    2.027238
  N      0.619239    0.443135    0.935067
  C      1.494952    1.543606    0.586449
  H      1.797559    2.124464    1.454562
  H      0.997466    2.210793   -0.112530
  H      2.418265    1.175552    0.144854
  C     -0.986990   -2.713910    0.588519
  H     -0.453900   -3.118437   -0.267517
  H     -2.045055   -2.646322    0.344615
  H     -0.855521   -3.390355    1.429809
  H     -1.601069   -1.090062    2.725459
  H     -0.264876    1.280803    2.719889
  C     -0.394007    1.647829   -2.785838
  H     -0.974940    1.260764   -3.621565
  H     -0.408291    2.734872   -2.801207
  H     -0.847408    1.311067   -1.854922
  H      1.034088    0.967263   -3.117038

 Total Charge           Charge          ....    1
 Multiplicity           Mult            ....    1
 Number of Electrons    NEL             ....   82
 Basis Dimension        Dim             ....  175

ORBITAL ENERGIES
----------------

  NO   OCC          E(Eh)            E(eV)
   0   2.0000    -162.905094     -4432.8730
   1   2.0000     -18.215282      -495.6630
   2   2.0000     -15.056498      -409.7081
   3   2.0000     -15.053879      -409.6369
   4   2.0000     -15.039998      -409.2592
   5   2.0000     -14.869092      -404.6086
   6   2.0000     -14.868977      -404.6054
   7   2.0000     -10.649647      -289.7916
   8   2.0000     -10.631054      -289.2857
   9   2.0000     -10.629068      -289.2316
  10   2.0000     -10.621988      -289.0390
  11   2.0000     -10.621155      -289.0163
  12   2.0000     -10.587820      -288.1092
  13   2.0000      -2.423746       -65.9535
  14   2.0000      -1.571814       -42.7712
  15   2.0000      -1.564381       -42.5690
  16   2.0000      -1.554750       -42.3069
  17   2.0000      -1.318009       -35.8649
  18   2.0000      -1.194917       -32.5154
  19   2.0000      -1.028185       -27.9783
  20   2.0000      -0.986558       -26.8456
  21   2.0000      -0.929787       -25.3008
  22   2.0000      -0.884832       -24.0775
  23   2.0000      -0.848633       -23.0925
  24   2.0000      -0.809006       -22.0142
  25   2.0000      -0.755680       -20.5631
  26   2.0000      -0.708383       -19.2761
  27   2.0000      -0.679161       -18.4809
  28   2.0000      -0.663409       -18.0523
  29   2.0000      -0.660173       -17.9642
  30   2.0000      -0.653097       -17.7717
  31   2.0000      -0.604844       -16.4586
  32   2.0000      -0.598620       -16.2893
  33   2.0000      -0.594278       -16.1711
  34   2.0000      -0.579759       -15.7760
  35   2.0000      -0.578944       -15.7539
  36   2.0000      -0.523637       -14.2489
  37   2.0000      -0.499956       -13.6045
  38   2.0000      -0.490936       -13.3591
  39   2.0000      -0.440067       -11.9748
  40   2.0000      -0.324115        -8.8196
  41   0.0000      -0.186033        -5.0622
  42   0.0000      -0.182579        -4.9682
  43   0.0000      -0.180859        -4.9214
  44   0.0000      -0.168408        -4.5826
  45   0.0000      -0.164710        -4.4820

MULLIKEN ATOMIC CHARGES
-----------------------
   0 Sc:    0.505791
   1 C :    0.207855
   2 N :   -0.410210
   3 C :   -0.064707
   4 C :   -0.065630
   5 N :   -0.420318
   6 C :   -0.529939
   7 H :    0.282234
   8 H :    0.279682
   9 H :    0.263250
  10 C :   -0.517852
  11 H :    0.253773
  12 H :    0.279700
  13 H :    0.279313
  14 H :    0.305289
  15 H :    0.305949
  16 C :   -0.793914
  17 H :    0.272517
  18 H :    0.268446
  19 H :    0.224987
  20 H :    0.073783
Sum of atomic charges:    1.0000000

LOEWDIN ATOMIC CHARGES
----------------------
   0 Sc:    0.340380
   1 C :   -0.047557
   2 N :    0.011958
   3 C :   -0.081190
   4 C :   -0.076561
   5 N :    0.009288
   6 C :   -0.240836
   7 H :    0.158663
   8 H :    0.152511
   9 H :    0.152977
  10 C :   -0.237246
  11 H :    0.149931
  12 H :    0.155217
  13 H :    0.156476
  14 H :    0.169520
  15 H :    0.169502
  16 C :   -0.465458
  17 H :    0.149665
  18 H :    0.152404
  19 H :    0.130345
  20 H :    0.090011

  Mayer bond orders larger than 0.100000
B(  0-Sc,  1-C ) :   0.7013 B(  1-C ,  2-N ) :   1.2268 B(  1-C ,  5-N ) :   1.2220
B(  2-N ,  3-C ) :   1.1607 B(  2-N , 10-C ) :   0.9104 B(  3-C ,  4-C ) :   1.6260
B(  3-C , 14-H ) :   0.8775 B(  4-C ,  5-N ) :   1.1573 B(  4-C , 15-H ) :   0.8774
B(  5-N ,  6-C ) :   0.9111 B(  6-C ,  7-H ) :   0.8992 B(  6-C ,  8-H ) :   0.8885
B(  6-C ,  9-H ) :   0.8961 B( 10-C , 11-H ) :   0.8901 B( 10-C , 12-H ) :   0.8929
B( 10-C , 13-H ) :   0.8948 B( 16-C , 17-H ) :   0.9027 B( 16-C , 18-H ) :   0.9059
B( 16-C , 19-H ) :   0.9108 B( 16-C , 20-H ) :   0.8844

Dispersion correction           -0.011324718
FINAL SINGLE POINT ENERGY     -1104.376489190797
Dispersion correction            ... done

DIPOLE MOMENT
-------------
                                X             Y             Z
Electronic contribution:      9.05224     -11.01922      -2.48433
Nuclear contribution   :     -9.00609      10.78737       2.43941
                        -----------------------------------------
Total Dipole Moment    :      0.04615      -0.23185      -0.04492
                        -----------------------------------------
Magnitude (a.u.)       :      0.24062
Magnitude (Debye)      :      0.61162

Rotational constants in cm-1:     0.040784     0.030312     0.022988
Rotational constants in MHz :  1222.661192   908.738514   689.153506

                             ****ORCA TERMINATED NORMALLY****
TOTAL RUN TIME: 0 days 0 hours 4 minutes 42 seconds 240 msec
