                         Program Version 5.0.3 -  RELEASE  -
|  1> ! EnGrad PBEh-3c
|  2> %output
|  3> xyzfile=True
|  4> end
|  5> %scf
|  6> maxiter 250
|  7> end
|  8> %output
|  9> Print[P_Hirshfeld] = 1
| 10> end
| 11> % maxcore
| 12> 4000
| 13> *xyz 1 1
| 14> Sc   1.68819028  -1.37171820  -1.49451931
| 15> C    0.44985964  -0.68240112   0.24916402
| 16> N   -0.46640412  -1.38850511   0.93809822
| 17> C   -0.85372009  -0.72361354   2.06332224
| 18> C   -0.17959933   0.44930971   2.07448961
| 19> N    0.60180208   0.45693872   0.95632559
| 20> C    1.45844802   1.56767311   0.57699539
| 21> H    1.65729599   2.17849076   1.45615540
| 22> H    0.98724602   2.18809284  -0.18201337
| 23> H    2.40843007   1.20076482   0.19941351
| 24> C   -0.99128739  -2.69129126   0.57540631
| 25> H   -0.52244643  -3.04243380  -0.33952532
| 26> H   -2.06410977  -2.62939466   0.40625501
| 27> H   -0.78908397  -3.40713890   1.36891575
| 28> H   -1.55194434  -1.13700011   2.77116444
| 29> H   -0.18295226   1.25164880   2.79519171
| 30> C   -0.34165339   1.56732862  -2.88125881
| 31> H   -1.07706278   1.46008959  -3.67257823
| 32> H    0.14208760   2.52854916  -2.92426707
| 33> H   -0.80885353   1.39466374  -1.90585712
| 34> H    0.43979327   0.83643649  -3.02920102
| 35> *
| 36>
| 37>                          ****END OF INPUT****

CARTESIAN COORDINATES (ANGSTROEM)
---------------------------------
  Sc     1.688190   -1.371718   -1.494519
  C      0.449860   -0.682401    0.249164
  N     -0.466404   -1.388505    0.938098
  C     -0.853720   -0.723614    2.063322
  C     -0.179599    0.449310    2.074490
  N      0.601802    0.456939    0.956326
  C      1.458448    1.567673    0.576995
  H      1.657296    2.178491    1.456155
  H      0.987246    2.188093   -0.182013
  H      2.408430    1.200765    0.199414
  C     -0.991287   -2.691291    0.575406
  H     -0.522446   -3.042434   -0.339525
  H     -2.064110   -2.629395    0.406255
  H     -0.789084   -3.407139    1.368916
  H     -1.551944   -1.137000    2.771164
  H     -0.182952    1.251649    2.795192
  C     -0.341653    1.567329   -2.881259
  H     -1.077063    1.460090   -3.672578
  H      0.142088    2.528549   -2.924267
  H     -0.808854    1.394664   -1.905857
  H      0.439793    0.836436   -3.029201

 Total Charge           Charge          ....    1
 Multiplicity           Mult            ....    1
 Number of Electrons    NEL             ....   82
 Basis Dimension        Dim             ....  175

ORBITAL ENERGIES
----------------

  NO   OCC          E(Eh)            E(eV)
   0   2.0000    -162.910146     -4433.0105
   1   2.0000     -18.220680      -495.8099
   2   2.0000     -15.061677      -409.8491
   3   2.0000     -15.059766      -409.7971
   4   2.0000     -15.044987      -409.3949
   5   2.0000     -14.871871      -404.6842
   6   2.0000     -14.871109      -404.6635
   7   2.0000     -10.652121      -289.8590
   8   2.0000     -10.635030      -289.3939
   9   2.0000     -10.632508      -289.3252
  10   2.0000     -10.624351      -289.1033
  11   2.0000     -10.623314      -289.0751
  12   2.0000     -10.533297      -286.6256
  13   2.0000      -2.429087       -66.0988
  14   2.0000      -1.576422       -42.8966
  15   2.0000      -1.570700       -42.7409
  16   2.0000      -1.559407       -42.4336
  17   2.0000      -1.320001       -35.9190
  18   2.0000      -1.196489       -32.5581
  19   2.0000      -1.030950       -28.0536
  20   2.0000      -0.988371       -26.8950
  21   2.0000      -0.931970       -25.3602
  22   2.0000      -0.897363       -24.4185
  23   2.0000      -0.850691       -23.1485
  24   2.0000      -0.810824       -22.0636
  25   2.0000      -0.756747       -20.5921
  26   2.0000      -0.710082       -19.3223
  27   2.0000      -0.680894       -18.5281
  28   2.0000      -0.663985       -18.0680
  29   2.0000      -0.661388       -17.9973
  30   2.0000      -0.655658       -17.8414
  31   2.0000      -0.607612       -16.5340
  32   2.0000      -0.603396       -16.4192
  33   2.0000      -0.596192       -16.2232
  34   2.0000      -0.571031       -15.5386
  35   2.0000      -0.566842       -15.4246
  36   2.0000      -0.563149       -15.3241
  37   2.0000      -0.527767       -14.3613
  38   2.0000      -0.493186       -13.4203
  39   2.0000      -0.441926       -12.0254
  40   2.0000      -0.330587        -8.9957
  41   0.0000      -0.188870        -5.1394
  42   0.0000      -0.185641        -5.0516
  43   0.0000      -0.185312        -5.0426
  44   0.0000      -0.173157        -4.7118
  45   0.0000      -0.169995        -4.6258

MULLIKEN ATOMIC CHARGES
-----------------------
   0 Sc:    0.514061
   1 C :    0.206119
   2 N :   -0.409550
   3 C :   -0.062194
   4 C :   -0.065261
   5 N :   -0.416892
   6 C :   -0.521724
   7 H :    0.276726
   8 H :    0.282030
   9 H :    0.261671
  10 C :   -0.518814
  11 H :    0.253784
  12 H :    0.282319
  13 H :    0.278561
  14 H :    0.306401
  15 H :    0.306836
  16 C :   -0.892335
  17 H :    0.267543
  18 H :    0.250956
  19 H :    0.211317
  20 H :    0.188446
Sum of atomic charges:    1.0000000

LOEWDIN ATOMIC CHARGES
----------------------
   0 Sc:    0.363983
   1 C :   -0.049675
   2 N :    0.014255
   3 C :   -0.078582
   4 C :   -0.074084
   5 N :    0.009393
   6 C :   -0.238280
   7 H :    0.157609
   8 H :    0.153768
   9 H :    0.151579
  10 C :   -0.236912
  11 H :    0.150027
  12 H :    0.156941
  13 H :    0.155809
  14 H :    0.170486
  15 H :    0.170238
  16 C :   -0.514881
  17 H :    0.153165
  18 H :    0.143712
  19 H :    0.127190
  20 H :    0.114258

  Mayer bond orders larger than 0.100000
B(  0-Sc,  1-C ) :   0.6968 B(  1-C ,  2-N ) :   1.2281 B(  1-C ,  5-N ) :   1.2205
B(  2-N ,  3-C ) :   1.1690 B(  2-N , 10-C ) :   0.9104 B(  3-C ,  4-C ) :   1.6162
B(  3-C , 14-H ) :   0.8769 B(  4-C ,  5-N ) :   1.1635 B(  4-C , 15-H ) :   0.8767
B(  5-N ,  6-C ) :   0.9078 B(  6-C ,  7-H ) :   0.9025 B(  6-C ,  8-H ) :   0.8867
B(  6-C ,  9-H ) :   0.8945 B( 10-C , 11-H ) :   0.8944 B( 10-C , 12-H ) :   0.8922
B( 10-C , 13-H ) :   0.8948 B( 16-C , 17-H ) :   0.9182 B( 16-C , 18-H ) :   0.9214
B( 16-C , 19-H ) :   0.9320 B( 16-C , 20-H ) :   0.9107

Dispersion correction           -0.010897637
FINAL SINGLE POINT ENERGY     -1104.451515274772
Dispersion correction            ... done

DIPOLE MOMENT
-------------
                                X             Y             Z
Electronic contribution:     10.09200     -11.02475      -1.83691
Nuclear contribution   :     -9.77413      10.65304       1.90458
                        -----------------------------------------
Total Dipole Moment    :      0.31787      -0.37171       0.06767
                        -----------------------------------------
Magnitude (a.u.)       :      0.49375
Magnitude (Debye)      :      1.25501

Rotational constants in cm-1:     0.041099     0.029711     0.023064
Rotational constants in MHz :  1232.112752   890.721011   691.452618

                             ****ORCA TERMINATED NORMALLY****
TOTAL RUN TIME: 0 days 0 hours 4 minutes 41 seconds 149 msec
