                         Program Version 5.0.3 -  RELEASE  -
|  1> ! EnGrad PBEh-3c
|  2> %output
|  3> xyzfile=True
|  4> end
|  5> %scf
|  6> maxiter 250
|  7> end
|  8> %output
|  9> Print[P_Hirshfeld] = 1
| 10> end
| 11> % maxcore
| 12> 4000
| 13> *xyz 1 1
| 14> Sc   1.60369772  -1.39793706  -1.55642669
| 15> C    0.45748251  -0.69703384   0.21959461
| 16> N   -0.47770915  -1.38860216   0.92444953
| 17> C   -0.87249094  -0.71425763   2.04266163
| 18> C   -0.19907032   0.45292740   2.04939545
| 19> N    0.59873049   0.45355994   0.94629771
| 20> C    1.50077202   1.55887891   0.56750834
| 21> H    1.76319943   2.13207119   1.46070151
| 22> H    0.99759375   2.20780381  -0.12757021
| 23> H    2.41429835   1.17807508   0.14879696
| 24> C   -0.99163888  -2.70832781   0.58532138
| 25> H   -0.46979086  -3.10491759  -0.28363928
| 26> H   -2.05056253  -2.64449673   0.35625180
| 27> H   -0.84200850  -3.39299439   1.41760604
| 28> H   -1.58630639  -1.10223502   2.73663466
| 29> H   -0.24563303   1.27334449   2.73385391
| 30> C   -0.25107600   1.55236772  -2.85942182
| 31> H   -0.98141127   1.30836547  -3.62218770
| 32> H   -0.30519563   2.72813833  -2.82598824
| 33> H   -0.82302582   1.32358285  -1.85824942
| 34> H    0.76018321   0.98224560  -3.05550327
| 35> *
| 36>
| 37>                          ****END OF INPUT****

CARTESIAN COORDINATES (ANGSTROEM)
---------------------------------
  Sc     1.603698   -1.397937   -1.556427
  C      0.457483   -0.697034    0.219595
  N     -0.477709   -1.388602    0.924450
  C     -0.872491   -0.714258    2.042662
  C     -0.199070    0.452927    2.049395
  N      0.598730    0.453560    0.946298
  C      1.500772    1.558879    0.567508
  H      1.763199    2.132071    1.460702
  H      0.997594    2.207804   -0.127570
  H      2.414298    1.178075    0.148797
  C     -0.991639   -2.708328    0.585321
  H     -0.469791   -3.104918   -0.283639
  H     -2.050563   -2.644497    0.356252
  H     -0.842008   -3.392994    1.417606
  H     -1.586306   -1.102235    2.736635
  H     -0.245633    1.273344    2.733854
  C     -0.251076    1.552368   -2.859422
  H     -0.981411    1.308365   -3.622188
  H     -0.305196    2.728138   -2.825988
  H     -0.823026    1.323583   -1.858249
  H      0.760183    0.982246   -3.055503

 Total Charge           Charge          ....    1
 Multiplicity           Mult            ....    1
 Number of Electrons    NEL             ....   82
 Basis Dimension        Dim             ....  175

ORBITAL ENERGIES
----------------

  NO   OCC          E(Eh)            E(eV)
   0   2.0000    -162.907766     -4432.9457
   1   2.0000     -18.218383      -495.7474
   2   2.0000     -15.059371      -409.7863
   3   2.0000     -15.057423      -409.7333
   4   2.0000     -15.042745      -409.3339
   5   2.0000     -14.870919      -404.6583
   6   2.0000     -14.869806      -404.6280
   7   2.0000     -10.653391      -289.8935
   8   2.0000     -10.632788      -289.3329
   9   2.0000     -10.630297      -289.2651
  10   2.0000     -10.622361      -289.0491
  11   2.0000     -10.622286      -289.0471
  12   2.0000     -10.564358      -287.4708
  13   2.0000      -2.427249       -66.0488
  14   2.0000      -1.574640       -42.8481
  15   2.0000      -1.568854       -42.6907
  16   2.0000      -1.557981       -42.3948
  17   2.0000      -1.312595       -35.7175
  18   2.0000      -1.188813       -32.3493
  19   2.0000      -1.028273       -27.9807
  20   2.0000      -0.983642       -26.7663
  21   2.0000      -0.930615       -25.3233
  22   2.0000      -0.880012       -23.9464
  23   2.0000      -0.844841       -22.9893
  24   2.0000      -0.810536       -22.0558
  25   2.0000      -0.755694       -20.5635
  26   2.0000      -0.705518       -19.1981
  27   2.0000      -0.677696       -18.4410
  28   2.0000      -0.660834       -17.9822
  29   2.0000      -0.658926       -17.9303
  30   2.0000      -0.652587       -17.7578
  31   2.0000      -0.607472       -16.5302
  32   2.0000      -0.600938       -16.3524
  33   2.0000      -0.595775       -16.2119
  34   2.0000      -0.583109       -15.8672
  35   2.0000      -0.552404       -15.0317
  36   2.0000      -0.535285       -14.5658
  37   2.0000      -0.526981       -14.3399
  38   2.0000      -0.491711       -13.3801
  39   2.0000      -0.440558       -11.9882
  40   2.0000      -0.329232        -8.9589
  41   0.0000      -0.189552        -5.1580
  42   0.0000      -0.184520        -5.0210
  43   0.0000      -0.184088        -5.0093
  44   0.0000      -0.172172        -4.6850
  45   0.0000      -0.167820        -4.5666

MULLIKEN ATOMIC CHARGES
-----------------------
   0 Sc:    0.522099
   1 C :    0.199483
   2 N :   -0.416550
   3 C :   -0.056974
   4 C :   -0.057376
   5 N :   -0.433829
   6 C :   -0.517862
   7 H :    0.276288
   8 H :    0.284624
   9 H :    0.263538
  10 C :   -0.517728
  11 H :    0.252404
  12 H :    0.281316
  13 H :    0.278716
  14 H :    0.306819
  15 H :    0.306062
  16 C :   -0.881588
  17 H :    0.276083
  18 H :    0.247598
  19 H :    0.198834
  20 H :    0.188042
Sum of atomic charges:    1.0000000

LOEWDIN ATOMIC CHARGES
----------------------
   0 Sc:    0.360321
   1 C :   -0.044530
   2 N :    0.011383
   3 C :   -0.079140
   4 C :   -0.072928
   5 N :    0.004284
   6 C :   -0.234258
   7 H :    0.157369
   8 H :    0.154147
   9 H :    0.152154
  10 C :   -0.237271
  11 H :    0.149461
  12 H :    0.155688
  13 H :    0.155987
  14 H :    0.169612
  15 H :    0.168868
  16 C :   -0.529949
  17 H :    0.148595
  18 H :    0.152516
  19 H :    0.126063
  20 H :    0.131627

  Mayer bond orders larger than 0.100000
B(  0-Sc,  1-C ) :   0.6981 B(  1-C ,  2-N ) :   1.2210 B(  1-C ,  5-N ) :   1.2119
B(  2-N ,  3-C ) :   1.1666 B(  2-N , 10-C ) :   0.9098 B(  3-C ,  4-C ) :   1.6074
B(  3-C , 14-H ) :   0.8768 B(  4-C ,  5-N ) :   1.1693 B(  4-C , 15-H ) :   0.8775
B(  5-N ,  6-C ) :   0.9003 B(  6-C ,  7-H ) :   0.9034 B(  6-C ,  8-H ) :   0.8868
B(  6-C ,  9-H ) :   0.8959 B( 10-C , 11-H ) :   0.8924 B( 10-C , 12-H ) :   0.8922
B( 10-C , 13-H ) :   0.8950 B( 16-C , 17-H ) :   0.9016 B( 16-C , 18-H ) :   0.9201
B( 16-C , 19-H ) :   0.9268 B( 16-C , 20-H ) :   0.9096

Dispersion correction           -0.010937852
FINAL SINGLE POINT ENERGY     -1104.429531066078
Dispersion correction            ... done

DIPOLE MOMENT
-------------
                                X             Y             Z
Electronic contribution:      9.57379     -11.18722      -2.37578
Nuclear contribution   :     -9.39708      10.87794       2.39952
                        -----------------------------------------
Total Dipole Moment    :      0.17671      -0.30928       0.02375
                        -----------------------------------------
Magnitude (a.u.)       :      0.35699
Magnitude (Debye)      :      0.90740

Rotational constants in cm-1:     0.041525     0.030103     0.022893
Rotational constants in MHz :  1244.895612   902.466123   686.327649

                             ****ORCA TERMINATED NORMALLY****
TOTAL RUN TIME: 0 days 0 hours 4 minutes 42 seconds 842 msec
