                         Program Version 5.0.3 -  RELEASE  -
|  1> ! EnGrad PBEh-3c
|  2> %output
|  3> xyzfile=True
|  4> end
|  5> %scf
|  6> maxiter 250
|  7> end
|  8> %output
|  9> Print[P_Hirshfeld] = 1
| 10> end
| 11> % maxcore
| 12> 4000
| 13> *xyz 1 1
| 14> Sc   1.61980273  -1.39775911  -1.54674033
| 15> C    0.45686244  -0.69301119   0.23293981
| 16> N   -0.47735557  -1.38593921   0.91989433
| 17> C   -0.87118624  -0.71727366   2.04473696
| 18> C   -0.19658034   0.45130508   2.05584319
| 19> N    0.59976621   0.45567043   0.94003877
| 20> C    1.49338314   1.56240056   0.57175262
| 21> H    1.74629395   2.13592607   1.46076233
| 22> H    0.99644919   2.20895284  -0.13884711
| 23> H    2.41674697   1.17742140   0.14945397
| 24> C   -0.99289123  -2.70470675   0.58428263
| 25> H   -0.47809867  -3.09731898  -0.29129532
| 26> H   -2.05433504  -2.64379850   0.36206757
| 27> H   -0.83503443  -3.39417789   1.41126752
| 28> H   -1.58159440  -1.10985863   2.74444970
| 29> H   -0.23633213   1.27154711   2.74367428
| 30> C   -0.21235064   1.53327774  -2.86696754
| 31> H   -0.98305460   1.32784855  -3.62687269
| 32> H   -0.24333682   2.69661215  -2.84111075
| 33> H   -0.79557651   1.33011826  -1.88140195
| 34> H    0.62852359   0.99362924  -3.02775541
| 35> *
| 36>
| 37>                          ****END OF INPUT****

CARTESIAN COORDINATES (ANGSTROEM)
---------------------------------
  Sc     1.619803   -1.397759   -1.546740
  C      0.456862   -0.693011    0.232940
  N     -0.477356   -1.385939    0.919894
  C     -0.871186   -0.717274    2.044737
  C     -0.196580    0.451305    2.055843
  N      0.599766    0.455670    0.940039
  C      1.493383    1.562401    0.571753
  H      1.746294    2.135926    1.460762
  H      0.996449    2.208953   -0.138847
  H      2.416747    1.177421    0.149454
  C     -0.992891   -2.704707    0.584283
  H     -0.478099   -3.097319   -0.291295
  H     -2.054335   -2.643798    0.362068
  H     -0.835034   -3.394178    1.411268
  H     -1.581594   -1.109859    2.744450
  H     -0.236332    1.271547    2.743674
  C     -0.212351    1.533278   -2.866968
  H     -0.983055    1.327849   -3.626873
  H     -0.243337    2.696612   -2.841111
  H     -0.795577    1.330118   -1.881402
  H      0.628524    0.993629   -3.027755

 Total Charge           Charge          ....    1
 Multiplicity           Mult            ....    1
 Number of Electrons    NEL             ....   82
 Basis Dimension        Dim             ....  175

ORBITAL ENERGIES
----------------

  NO   OCC          E(Eh)            E(eV)
   0   2.0000    -162.909473     -4432.9921
   1   2.0000     -18.220052      -495.7928
   2   2.0000     -15.060999      -409.8306
   3   2.0000     -15.059233      -409.7826
   4   2.0000     -15.044317      -409.3767
   5   2.0000     -14.870810      -404.6553
   6   2.0000     -14.869781      -404.6273
   7   2.0000     -10.652839      -289.8785
   8   2.0000     -10.633411      -289.3498
   9   2.0000     -10.631093      -289.2868
  10   2.0000     -10.623394      -289.0773
  11   2.0000     -10.623086      -289.0689
  12   2.0000     -10.545298      -286.9522
  13   2.0000      -2.428682       -66.0878
  14   2.0000      -1.575875       -42.8817
  15   2.0000      -1.570588       -42.7379
  16   2.0000      -1.559036       -42.4235
  17   2.0000      -1.314617       -35.7726
  18   2.0000      -1.190462       -32.3941
  19   2.0000      -1.028246       -27.9800
  20   2.0000      -0.985811       -26.8253
  21   2.0000      -0.929734       -25.2994
  22   2.0000      -0.893869       -24.3234
  23   2.0000      -0.847479       -23.0611
  24   2.0000      -0.809411       -22.0252
  25   2.0000      -0.755535       -20.5592
  26   2.0000      -0.706580       -19.2270
  27   2.0000      -0.678989       -18.4762
  28   2.0000      -0.660853       -17.9827
  29   2.0000      -0.659318       -17.9409
  30   2.0000      -0.654193       -17.8015
  31   2.0000      -0.613126       -16.6840
  32   2.0000      -0.606585       -16.5060
  33   2.0000      -0.602344       -16.3906
  34   2.0000      -0.595630       -16.2079
  35   2.0000      -0.545719       -14.8498
  36   2.0000      -0.532963       -14.5026
  37   2.0000      -0.525338       -14.2952
  38   2.0000      -0.491312       -13.3693
  39   2.0000      -0.441556       -12.0153
  40   2.0000      -0.330712        -8.9991
  41   0.0000      -0.189095        -5.1455
  42   0.0000      -0.185603        -5.0505
  43   0.0000      -0.185197        -5.0395
  44   0.0000      -0.172887        -4.7045
  45   0.0000      -0.169278        -4.6063

MULLIKEN ATOMIC CHARGES
-----------------------
   0 Sc:    0.521394
   1 C :    0.207286
   2 N :   -0.415478
   3 C :   -0.057983
   4 C :   -0.062130
   5 N :   -0.430243
   6 C :   -0.517298
   7 H :    0.277639
   8 H :    0.283816
   9 H :    0.260546
  10 C :   -0.518173
  11 H :    0.252113
  12 H :    0.281951
  13 H :    0.279037
  14 H :    0.306869
  15 H :    0.305860
  16 C :   -0.910439
  17 H :    0.267066
  18 H :    0.248695
  19 H :    0.197228
  20 H :    0.222245
Sum of atomic charges:    1.0000000

LOEWDIN ATOMIC CHARGES
----------------------
   0 Sc:    0.369404
   1 C :   -0.046215
   2 N :    0.011062
   3 C :   -0.078602
   4 C :   -0.072604
   5 N :    0.004447
   6 C :   -0.234942
   7 H :    0.157342
   8 H :    0.154375
   9 H :    0.152043
  10 C :   -0.236960
  11 H :    0.149230
  12 H :    0.156140
  13 H :    0.156073
  14 H :    0.170183
  15 H :    0.168927
  16 C :   -0.534778
  17 H :    0.151185
  18 H :    0.153530
  19 H :    0.126283
  20 H :    0.123878

  Mayer bond orders larger than 0.100000
B(  0-Sc,  1-C ) :   0.6980 B(  1-C ,  2-N ) :   1.2252 B(  1-C ,  5-N ) :   1.2204
B(  2-N ,  3-C ) :   1.1606 B(  2-N , 10-C ) :   0.9099 B(  3-C ,  4-C ) :   1.6207
B(  3-C , 14-H ) :   0.8765 B(  4-C ,  5-N ) :   1.1592 B(  4-C , 15-H ) :   0.8774
B(  5-N ,  6-C ) :   0.9014 B(  6-C ,  7-H ) :   0.9020 B(  6-C ,  8-H ) :   0.8866
B(  6-C ,  9-H ) :   0.8969 B( 10-C , 11-H ) :   0.8932 B( 10-C , 12-H ) :   0.8920
B( 10-C , 13-H ) :   0.8947 B( 16-C , 17-H ) :   0.9131 B( 16-C , 18-H ) :   0.9237
B( 16-C , 19-H ) :   0.9331 B( 16-C , 20-H ) :   0.9066

Dispersion correction           -0.010935051
FINAL SINGLE POINT ENERGY     -1104.432142591659
Dispersion correction            ... done

DIPOLE MOMENT
-------------
                                X             Y             Z
Electronic contribution:      9.75488     -11.22977      -2.29199
Nuclear contribution   :     -9.54818      10.88859       2.33155
                        -----------------------------------------
Total Dipole Moment    :      0.20669      -0.34118       0.03956
                        -----------------------------------------
Magnitude (a.u.)       :      0.40086
Magnitude (Debye)      :      1.01892

Rotational constants in cm-1:     0.041702     0.030095     0.022900
Rotational constants in MHz :  1250.198898   902.222665   686.511957

                             ****ORCA TERMINATED NORMALLY****
TOTAL RUN TIME: 0 days 0 hours 4 minutes 41 seconds 952 msec
