                         Program Version 5.0.3 -  RELEASE  -
|  1> ! EnGrad PBEh-3c
|  2> %output
|  3> xyzfile=True
|  4> end
|  5> %scf
|  6> maxiter 250
|  7> end
|  8> %output
|  9> Print[P_Hirshfeld] = 1
| 10> end
| 11> % maxcore
| 12> 4000
| 13> *xyz 1 1
| 14> Sc   1.62825964  -1.39821815  -1.54224342
| 15> C    0.45272146  -0.68739916   0.24564309
| 16> N   -0.47513506  -1.38784776   0.91866083
| 17> C   -0.86996586  -0.71776157   2.04285849
| 18> C   -0.19295297   0.45130984   2.05285660
| 19> N    0.60498320   0.45567137   0.93623630
| 20> C    1.48575263   1.55921262   0.57706881
| 21> H    1.73793658   2.13698966   1.46095758
| 22> H    0.99589803   2.21131626  -0.14631995
| 23> H    2.41766681   1.17661648   0.14888694
| 24> C   -0.99229271  -2.70277453   0.58302002
| 25> H   -0.48228161  -3.09333914  -0.29418139
| 26> H   -2.05674166  -2.64344632   0.36441009
| 27> H   -0.83173623  -3.39422346   1.40847919
| 28> H   -1.58154738  -1.11454668   2.74892651
| 29> H   -0.23155987   1.27255181   2.75016012
| 30> C   -0.27973716   1.57716290  -2.84400353
| 31> H   -0.97594019   1.33305863  -3.62784866
| 32> H   -0.19786163   2.65466842  -2.85237954
| 33> H   -0.76322473   1.32864069  -1.91124160
| 34> H    0.60796199   0.98347164  -3.01962059
| 35> *
| 36>
| 37>                          ****END OF INPUT****

CARTESIAN COORDINATES (ANGSTROEM)
---------------------------------
  Sc     1.628260   -1.398218   -1.542243
  C      0.452721   -0.687399    0.245643
  N     -0.475135   -1.387848    0.918661
  C     -0.869966   -0.717762    2.042858
  C     -0.192953    0.451310    2.052857
  N      0.604983    0.455671    0.936236
  C      1.485753    1.559213    0.577069
  H      1.737937    2.136990    1.460958
  H      0.995898    2.211316   -0.146320
  H      2.417667    1.176616    0.148887
  C     -0.992293   -2.702775    0.583020
  H     -0.482282   -3.093339   -0.294181
  H     -2.056742   -2.643446    0.364410
  H     -0.831736   -3.394223    1.408479
  H     -1.581547   -1.114547    2.748927
  H     -0.231560    1.272552    2.750160
  C     -0.279737    1.577163   -2.844004
  H     -0.975940    1.333059   -3.627849
  H     -0.197862    2.654668   -2.852380
  H     -0.763225    1.328641   -1.911242
  H      0.607962    0.983472   -3.019621

 Total Charge           Charge          ....    1
 Multiplicity           Mult            ....    1
 Number of Electrons    NEL             ....   82
 Basis Dimension        Dim             ....  175

ORBITAL ENERGIES
----------------

  NO   OCC          E(Eh)            E(eV)
   0   2.0000    -162.910034     -4433.0074
   1   2.0000     -18.220495      -495.8049
   2   2.0000     -15.061485      -409.8438
   3   2.0000     -15.059659      -409.7942
   4   2.0000     -15.044758      -409.3887
   5   2.0000     -14.870841      -404.6562
   6   2.0000     -14.870312      -404.6418
   7   2.0000     -10.651903      -289.8530
   8   2.0000     -10.633833      -289.3613
   9   2.0000     -10.631753      -289.3047
  10   2.0000     -10.624758      -289.1144
  11   2.0000     -10.623692      -289.0853
  12   2.0000     -10.531643      -286.5806
  13   2.0000      -2.428907       -66.0939
  14   2.0000      -1.576191       -42.8903
  15   2.0000      -1.570741       -42.7420
  16   2.0000      -1.559058       -42.4241
  17   2.0000      -1.318392       -35.8753
  18   2.0000      -1.194554       -32.5055
  19   2.0000      -1.029093       -28.0030
  20   2.0000      -0.987919       -26.8826
  21   2.0000      -0.930109       -25.3096
  22   2.0000      -0.900188       -24.4954
  23   2.0000      -0.850193       -23.1349
  24   2.0000      -0.809202       -22.0195
  25   2.0000      -0.755689       -20.5634
  26   2.0000      -0.708745       -19.2859
  27   2.0000      -0.680433       -18.5155
  28   2.0000      -0.662516       -18.0280
  29   2.0000      -0.660188       -17.9646
  30   2.0000      -0.655271       -17.8308
  31   2.0000      -0.606300       -16.4983
  32   2.0000      -0.603264       -16.4156
  33   2.0000      -0.595356       -16.2005
  34   2.0000      -0.589601       -16.0439
  35   2.0000      -0.563785       -15.3414
  36   2.0000      -0.551947       -15.0192
  37   2.0000      -0.525052       -14.2874
  38   2.0000      -0.491783       -13.3821
  39   2.0000      -0.442109       -12.0304
  40   2.0000      -0.330671        -8.9980
  41   0.0000      -0.188172        -5.1204
  42   0.0000      -0.185626        -5.0511
  43   0.0000      -0.185372        -5.0442
  44   0.0000      -0.172577        -4.6961
  45   0.0000      -0.169824        -4.6212

MULLIKEN ATOMIC CHARGES
-----------------------
   0 Sc:    0.516655
   1 C :    0.212486
   2 N :   -0.412440
   3 C :   -0.060772
   4 C :   -0.067218
   5 N :   -0.421389
   6 C :   -0.520753
   7 H :    0.279455
   8 H :    0.282514
   9 H :    0.259449
  10 C :   -0.518868
  11 H :    0.253000
  12 H :    0.282049
  13 H :    0.279200
  14 H :    0.306584
  15 H :    0.305754
  16 C :   -0.909784
  17 H :    0.265925
  18 H :    0.259352
  19 H :    0.214125
  20 H :    0.194675
Sum of atomic charges:    1.0000000

LOEWDIN ATOMIC CHARGES
----------------------
   0 Sc:    0.368330
   1 C :   -0.048604
   2 N :    0.011567
   3 C :   -0.078870
   4 C :   -0.074144
   5 N :    0.007298
   6 C :   -0.236930
   7 H :    0.157828
   8 H :    0.154269
   9 H :    0.152267
  10 C :   -0.237040
  11 H :    0.149361
  12 H :    0.156546
  13 H :    0.156266
  14 H :    0.170887
  15 H :    0.169600
  16 C :   -0.525871
  17 H :    0.149771
  18 H :    0.149594
  19 H :    0.126164
  20 H :    0.121712

  Mayer bond orders larger than 0.100000
B(  0-Sc,  1-C ) :   0.6984 B(  1-C ,  2-N ) :   1.2282 B(  1-C ,  5-N ) :   1.2272
B(  2-N ,  3-C ) :   1.1581 B(  2-N , 10-C ) :   0.9103 B(  3-C ,  4-C ) :   1.6292
B(  3-C , 14-H ) :   0.8766 B(  4-C ,  5-N ) :   1.1543 B(  4-C , 15-H ) :   0.8772
B(  5-N ,  6-C ) :   0.9052 B(  6-C ,  7-H ) :   0.9005 B(  6-C ,  8-H ) :   0.8869
B(  6-C ,  9-H ) :   0.8967 B( 10-C , 11-H ) :   0.8930 B( 10-C , 12-H ) :   0.8920
B( 10-C , 13-H ) :   0.8945 B( 16-C , 17-H ) :   0.9170 B( 16-C , 18-H ) :   0.9201
B( 16-C , 19-H ) :   0.9275 B( 16-C , 20-H ) :   0.9163

Dispersion correction           -0.010912214
FINAL SINGLE POINT ENERGY     -1104.449209063744
Dispersion correction            ... done

DIPOLE MOMENT
-------------
                                X             Y             Z
Electronic contribution:      9.74528     -11.18892      -2.22171
Nuclear contribution   :     -9.49857      10.82145       2.25913
                        -----------------------------------------
Total Dipole Moment    :      0.24671      -0.36747       0.03741
                        -----------------------------------------
Magnitude (a.u.)       :      0.44419
Magnitude (Debye)      :      1.12903

Rotational constants in cm-1:     0.041298     0.030104     0.022954
Rotational constants in MHz :  1238.097603   902.484255   688.131364

                             ****ORCA TERMINATED NORMALLY****
TOTAL RUN TIME: 0 days 0 hours 4 minutes 40 seconds 780 msec
