                         Program Version 5.0.3 -  RELEASE  -
|  1> ! EnGrad PBEh-3c
|  2> %output
|  3> xyzfile=True
|  4> end
|  5> %scf
|  6> maxiter 250
|  7> end
|  8> %output
|  9> Print[P_Hirshfeld] = 1
| 10> end
| 11> % maxcore
| 12> 4000
| 13> *xyz 1 1
| 14> Sc   1.64297377  -1.39727548  -1.53224019
| 15> C    0.45416105  -0.68534127   0.24967534
| 16> N   -0.47521555  -1.38763319   0.92130671
| 17> C   -0.86936619  -0.71864894   2.04525537
| 18> C   -0.18923322   0.45233885   2.05517959
| 19> N    0.60500743   0.45786590   0.94032914
| 20> C    1.48039501   1.55957984   0.57480697
| 21> H    1.72153963   2.14091326   1.46257468
| 22> H    0.99616039   2.21150814  -0.15589834
| 23> H    2.41533144   1.17820884   0.15226274
| 24> C   -0.99302526  -2.70032053   0.58049221
| 25> H   -0.49029522  -3.08576139  -0.30143977
| 26> H   -2.05987105  -2.64249597   0.37011362
| 27> H   -0.82472627  -3.39452534   1.40219989
| 28> H   -1.57678755  -1.12156599   2.75480135
| 29> H   -0.22217020   1.26985042   2.75923557
| 30> C   -0.29439525   1.57877568  -2.84616100
| 31> H   -0.97963407   1.34852294  -3.63615744
| 32> H   -0.12558569   2.62498909  -2.86880188
| 33> H   -0.73704410   1.32889414  -1.92817671
| 34> H    0.52216721   0.98366478  -2.99877608
| 35> *
| 36>
| 37>                          ****END OF INPUT****

CARTESIAN COORDINATES (ANGSTROEM)
---------------------------------
  Sc     1.642974   -1.397275   -1.532240
  C      0.454161   -0.685341    0.249675
  N     -0.475216   -1.387633    0.921307
  C     -0.869366   -0.718649    2.045255
  C     -0.189233    0.452339    2.055180
  N      0.605007    0.457866    0.940329
  C      1.480395    1.559580    0.574807
  H      1.721540    2.140913    1.462575
  H      0.996160    2.211508   -0.155898
  H      2.415331    1.178209    0.152263
  C     -0.993025   -2.700321    0.580492
  H     -0.490295   -3.085761   -0.301440
  H     -2.059871   -2.642496    0.370114
  H     -0.824726   -3.394525    1.402200
  H     -1.576788   -1.121566    2.754801
  H     -0.222170    1.269850    2.759236
  C     -0.294395    1.578776   -2.846161
  H     -0.979634    1.348523   -3.636157
  H     -0.125586    2.624989   -2.868802
  H     -0.737044    1.328894   -1.928177
  H      0.522167    0.983665   -2.998776

 Total Charge           Charge          ....    1
 Multiplicity           Mult            ....    1
 Number of Electrons    NEL             ....   82
 Basis Dimension        Dim             ....  175

ORBITAL ENERGIES
----------------

  NO   OCC          E(Eh)            E(eV)
   0   2.0000    -162.910832     -4433.0291
   1   2.0000     -18.221306      -495.8270
   2   2.0000     -15.062277      -409.8654
   3   2.0000     -15.060513      -409.8174
   4   2.0000     -15.045542      -409.4100
   5   2.0000     -14.871673      -404.6788
   6   2.0000     -14.871170      -404.6651
   7   2.0000     -10.652328      -289.8646
   8   2.0000     -10.634724      -289.3856
   9   2.0000     -10.632733      -289.3314
  10   2.0000     -10.625603      -289.1374
  11   2.0000     -10.624109      -289.0967
  12   2.0000     -10.517605      -286.1986
  13   2.0000      -2.429633       -66.1137
  14   2.0000      -1.576828       -42.9077
  15   2.0000      -1.571552       -42.7641
  16   2.0000      -1.559694       -42.4414
  17   2.0000      -1.319412       -35.9030
  18   2.0000      -1.196223       -32.5509
  19   2.0000      -1.029656       -28.0184
  20   2.0000      -0.988217       -26.8908
  21   2.0000      -0.931110       -25.3368
  22   2.0000      -0.909171       -24.7398
  23   2.0000      -0.850855       -23.1530
  24   2.0000      -0.809764       -22.0348
  25   2.0000      -0.755968       -20.5709
  26   2.0000      -0.709488       -19.3061
  27   2.0000      -0.681226       -18.5371
  28   2.0000      -0.663639       -18.0585
  29   2.0000      -0.660703       -17.9786
  30   2.0000      -0.655269       -17.8308
  31   2.0000      -0.607016       -16.5177
  32   2.0000      -0.603729       -16.4283
  33   2.0000      -0.595633       -16.2080
  34   2.0000      -0.591302       -16.0902
  35   2.0000      -0.571497       -15.5512
  36   2.0000      -0.556083       -15.1318
  37   2.0000      -0.525605       -14.3024
  38   2.0000      -0.492702       -13.4071
  39   2.0000      -0.441835       -12.0229
  40   2.0000      -0.331396        -9.0177
  41   0.0000      -0.188467        -5.1285
  42   0.0000      -0.186149        -5.0654
  43   0.0000      -0.186056        -5.0628
  44   0.0000      -0.173175        -4.7123
  45   0.0000      -0.170641        -4.6434

MULLIKEN ATOMIC CHARGES
-----------------------
   0 Sc:    0.516164
   1 C :    0.211586
   2 N :   -0.411488
   3 C :   -0.061688
   4 C :   -0.067605
   5 N :   -0.417779
   6 C :   -0.520893
   7 H :    0.278406
   8 H :    0.282657
   9 H :    0.259741
  10 C :   -0.519087
  11 H :    0.253534
  12 H :    0.282534
  13 H :    0.279091
  14 H :    0.306775
  15 H :    0.306165
  16 C :   -0.919870
  17 H :    0.262616
  18 H :    0.257419
  19 H :    0.216850
  20 H :    0.204875
Sum of atomic charges:    1.0000000

LOEWDIN ATOMIC CHARGES
----------------------
   0 Sc:    0.370291
   1 C :   -0.049556
   2 N :    0.012261
   3 C :   -0.078766
   4 C :   -0.074468
   5 N :    0.008809
   6 C :   -0.237243
   7 H :    0.157843
   8 H :    0.154467
   9 H :    0.152221
  10 C :   -0.237049
  11 H :    0.149430
  12 H :    0.156975
  13 H :    0.156265
  14 H :    0.171178
  15 H :    0.169866
  16 C :   -0.525265
  17 H :    0.150864
  18 H :    0.148061
  19 H :    0.125898
  20 H :    0.117918

  Mayer bond orders larger than 0.100000
B(  0-Sc,  1-C ) :   0.6979 B(  1-C ,  2-N ) :   1.2275 B(  1-C ,  5-N ) :   1.2263
B(  2-N ,  3-C ) :   1.1617 B(  2-N , 10-C ) :   0.9101 B(  3-C ,  4-C ) :   1.6245
B(  3-C , 14-H ) :   0.8766 B(  4-C ,  5-N ) :   1.1586 B(  4-C , 15-H ) :   0.8770
B(  5-N ,  6-C ) :   0.9059 B(  6-C ,  7-H ) :   0.9010 B(  6-C ,  8-H ) :   0.8865
B(  6-C ,  9-H ) :   0.8961 B( 10-C , 11-H ) :   0.8933 B( 10-C , 12-H ) :   0.8918
B( 10-C , 13-H ) :   0.8945 B( 16-C , 17-H ) :   0.9231 B( 16-C , 18-H ) :   0.9242
B( 16-C , 19-H ) :   0.9302 B( 16-C , 20-H ) :   0.9146

Dispersion correction           -0.010912986
FINAL SINGLE POINT ENERGY     -1104.445743361287
Dispersion correction            ... done

DIPOLE MOMENT
-------------
                                X             Y             Z
Electronic contribution:      9.85309     -11.20071      -2.12718
Nuclear contribution   :     -9.56474      10.80198       2.18477
                        -----------------------------------------
Total Dipole Moment    :      0.28835      -0.39873       0.05759
                        -----------------------------------------
Magnitude (a.u.)       :      0.49543
Magnitude (Debye)      :      1.25927

Rotational constants in cm-1:     0.041197     0.030049     0.022976
Rotational constants in MHz :  1235.040211   900.837657   688.816365

                             ****ORCA TERMINATED NORMALLY****
TOTAL RUN TIME: 0 days 0 hours 4 minutes 43 seconds 285 msec
