                         Program Version 5.0.3 -  RELEASE  -
|  1> ! EnGrad PBEh-3c
|  2> %output
|  3> xyzfile=True
|  4> end
|  5> %scf
|  6> maxiter 250
|  7> end
|  8> %output
|  9> Print[P_Hirshfeld] = 1
| 10> end
| 11> % maxcore
| 12> 4000
| 13> *xyz 1 1
| 14> Sc   1.66058722  -1.39276482  -1.51776490
| 15> C    0.45050568  -0.68286118   0.24772610
| 16> N   -0.46933495  -1.38848481   0.93048973
| 17> C   -0.86712644  -0.71633864   2.05074402
| 18> C   -0.18689339   0.45623790   2.05991253
| 19> N    0.60920073   0.45570216   0.94952154
| 20> C    1.47186807   1.56233922   0.57336054
| 21> H    1.69824400   2.14832756   1.46063963
| 22> H    0.99758020   2.20798672  -0.16682489
| 23> H    2.40849834   1.18410986   0.16444936
| 24> C   -0.99475848  -2.69839716   0.57763810
| 25> H   -0.50137505  -3.07359682  -0.31411633
| 26> H   -2.06281935  -2.64055959   0.37999025
| 27> H   -0.81331913  -3.39450057   1.39125120
| 28> H   -1.56770255  -1.13013173   2.76048011
| 29> H   -0.20856019   1.26242855   2.77160295
| 30> C   -0.38545628   1.61515446  -2.85859666
| 31> H   -1.00544540   1.36874755  -3.66382622
| 32> H   -0.00832474   2.61024162  -2.89161169
| 33> H   -0.73622127   1.32375633  -1.90667675
| 34> H    0.51177154   0.92505163  -2.99732558
| 35> *
| 36>
| 37>                          ****END OF INPUT****

CARTESIAN COORDINATES (ANGSTROEM)
---------------------------------
  Sc     1.660587   -1.392765   -1.517765
  C      0.450506   -0.682861    0.247726
  N     -0.469335   -1.388485    0.930490
  C     -0.867126   -0.716339    2.050744
  C     -0.186893    0.456238    2.059913
  N      0.609201    0.455702    0.949522
  C      1.471868    1.562339    0.573361
  H      1.698244    2.148328    1.460640
  H      0.997580    2.207987   -0.166825
  H      2.408498    1.184110    0.164449
  C     -0.994758   -2.698397    0.577638
  H     -0.501375   -3.073597   -0.314116
  H     -2.062819   -2.640560    0.379990
  H     -0.813319   -3.394501    1.391251
  H     -1.567703   -1.130132    2.760480
  H     -0.208560    1.262429    2.771603
  C     -0.385456    1.615154   -2.858597
  H     -1.005445    1.368748   -3.663826
  H     -0.008325    2.610242   -2.891612
  H     -0.736221    1.323756   -1.906677
  H      0.511772    0.925052   -2.997326

 Total Charge           Charge          ....    1
 Multiplicity           Mult            ....    1
 Number of Electrons    NEL             ....   82
 Basis Dimension        Dim             ....  175

ORBITAL ENERGIES
----------------

  NO   OCC          E(Eh)            E(eV)
   0   2.0000    -162.910396     -4433.0173
   1   2.0000     -18.220881      -495.8154
   2   2.0000     -15.061909      -409.8554
   3   2.0000     -15.059955      -409.8022
   4   2.0000     -15.045193      -409.4005
   5   2.0000     -14.872122      -404.6910
   6   2.0000     -14.871558      -404.6757
   7   2.0000     -10.652460      -289.8682
   8   2.0000     -10.635104      -289.3959
   9   2.0000     -10.633234      -289.3450
  10   2.0000     -10.625134      -289.1246
  11   2.0000     -10.624026      -289.0944
  12   2.0000     -10.530954      -286.5618
  13   2.0000      -2.429186       -66.1015
  14   2.0000      -1.576564       -42.9005
  15   2.0000      -1.570758       -42.7425
  16   2.0000      -1.559426       -42.4341
  17   2.0000      -1.319543       -35.9066
  18   2.0000      -1.196311       -32.5533
  19   2.0000      -1.030052       -28.0291
  20   2.0000      -0.988453       -26.8972
  21   2.0000      -0.931939       -25.3594
  22   2.0000      -0.901470       -24.5303
  23   2.0000      -0.851157       -23.1612
  24   2.0000      -0.810310       -22.0497
  25   2.0000      -0.756543       -20.5866
  26   2.0000      -0.709730       -19.3127
  27   2.0000      -0.681448       -18.5431
  28   2.0000      -0.664332       -18.0774
  29   2.0000      -0.661006       -17.9869
  30   2.0000      -0.655543       -17.8382
  31   2.0000      -0.607867       -16.5409
  32   2.0000      -0.604189       -16.4408
  33   2.0000      -0.596430       -16.2297
  34   2.0000      -0.584531       -15.9059
  35   2.0000      -0.577082       -15.7032
  36   2.0000      -0.545411       -14.8414
  37   2.0000      -0.526432       -14.3250
  38   2.0000      -0.493474       -13.4281
  39   2.0000      -0.441938       -12.0257
  40   2.0000      -0.330544        -8.9946
  41   0.0000      -0.188393        -5.1264
  42   0.0000      -0.185866        -5.0577
  43   0.0000      -0.185501        -5.0477
  44   0.0000      -0.172832        -4.7030
  45   0.0000      -0.170391        -4.6366

MULLIKEN ATOMIC CHARGES
-----------------------
   0 Sc:    0.511163
   1 C :    0.208889
   2 N :   -0.411111
   3 C :   -0.063166
   4 C :   -0.065336
   5 N :   -0.417985
   6 C :   -0.520725
   7 H :    0.277526
   8 H :    0.281626
   9 H :    0.260951
  10 C :   -0.518329
  11 H :    0.254098
  12 H :    0.283014
  13 H :    0.279120
  14 H :    0.306443
  15 H :    0.306964
  16 C :   -0.889739
  17 H :    0.274727
  18 H :    0.257145
  19 H :    0.220335
  20 H :    0.164391
Sum of atomic charges:    1.0000000

LOEWDIN ATOMIC CHARGES
----------------------
   0 Sc:    0.362169
   1 C :   -0.050452
   2 N :    0.012864
   3 C :   -0.078334
   4 C :   -0.074124
   5 N :    0.009065
   6 C :   -0.237470
   7 H :    0.157690
   8 H :    0.153652
   9 H :    0.151891
  10 C :   -0.236405
  11 H :    0.149893
  12 H :    0.157179
  13 H :    0.156068
  14 H :    0.170944
  15 H :    0.169840
  16 C :   -0.507709
  17 H :    0.151029
  18 H :    0.146451
  19 H :    0.125727
  20 H :    0.110032

  Mayer bond orders larger than 0.100000
B(  0-Sc,  1-C ) :   0.6954 B(  1-C ,  2-N ) :   1.2282 B(  1-C ,  5-N ) :   1.2223
B(  2-N ,  3-C ) :   1.1660 B(  2-N , 10-C ) :   0.9087 B(  3-C ,  4-C ) :   1.6198
B(  3-C , 14-H ) :   0.8768 B(  4-C ,  5-N ) :   1.1613 B(  4-C , 15-H ) :   0.8766
B(  5-N ,  6-C ) :   0.9076 B(  6-C ,  7-H ) :   0.9017 B(  6-C ,  8-H ) :   0.8869
B(  6-C ,  9-H ) :   0.8951 B( 10-C , 11-H ) :   0.8935 B( 10-C , 12-H ) :   0.8918
B( 10-C , 13-H ) :   0.8947 B( 16-C , 17-H ) :   0.9134 B( 16-C , 18-H ) :   0.9198
B( 16-C , 19-H ) :   0.9261 B( 16-C , 20-H ) :   0.9211

Dispersion correction           -0.010908245
FINAL SINGLE POINT ENERGY     -1104.445604431180
Dispersion correction            ... done

DIPOLE MOMENT
-------------
                                X             Y             Z
Electronic contribution:      9.85635     -11.10634      -2.02613
Nuclear contribution   :     -9.53376      10.70398       2.08014
                        -----------------------------------------
Total Dipole Moment    :      0.32259      -0.40236       0.05401
                        -----------------------------------------
Magnitude (a.u.)       :      0.51853
Magnitude (Debye)      :      1.31801

Rotational constants in cm-1:     0.040641     0.029837     0.022989
Rotational constants in MHz :  1218.388982   894.501840   689.195002

                             ****ORCA TERMINATED NORMALLY****
TOTAL RUN TIME: 0 days 0 hours 4 minutes 43 seconds 660 msec
