                         Program Version 5.0.3 -  RELEASE  -
|  1> ! EnGrad PBEh-3c
|  2> %output
|  3> xyzfile=True
|  4> end
|  5> %scf
|  6> maxiter 250
|  7> end
|  8> %output
|  9> Print[P_Hirshfeld] = 1
| 10> end
| 11> % maxcore
| 12> 4000
| 13> *xyz 1 1
| 14> Sc   1.67906959  -1.38623015  -1.50293821
| 15> C    0.44712699  -0.68088196   0.24876674
| 16> N   -0.46404953  -1.38903758   0.93680088
| 17> C   -0.86294646  -0.71350894   2.05831118
| 18> C   -0.18704731   0.45347227   2.06627617
| 19> N    0.61191512   0.45284110   0.95371229
| 20> C    1.46349749   1.56687272   0.57498178
| 21> H    1.67381431   2.15765502   1.45712080
| 22> H    0.99703037   2.20242816  -0.17786205
| 23> H    2.40338242   1.19050241   0.17821825
| 24> C   -0.99474855  -2.69362300   0.57590372
| 25> H   -0.51282413  -3.05991207  -0.32850540
| 26> H   -2.06630787  -2.63737278   0.39123702
| 27> H   -0.80094177  -3.39707357   1.38018122
| 28> H   -1.55746170  -1.13729699   2.76564416
| 29> H   -0.19380057   1.25695624   2.78608406
| 30> C   -0.37299790   1.60043386  -2.86710607
| 31> H   -1.06455069   1.39161958  -3.71561022
| 32> H    0.10998217   2.60393061  -2.91520719
| 33> H   -0.75773261   1.32636047  -1.87071602
| 34> H    0.45130652   0.89563384  -2.99365207
| 35> *
| 36>
| 37>                          ****END OF INPUT****

CARTESIAN COORDINATES (ANGSTROEM)
---------------------------------
  Sc     1.679070   -1.386230   -1.502938
  C      0.447127   -0.680882    0.248767
  N     -0.464050   -1.389038    0.936801
  C     -0.862946   -0.713509    2.058311
  C     -0.187047    0.453472    2.066276
  N      0.611915    0.452841    0.953712
  C      1.463497    1.566873    0.574982
  H      1.673814    2.157655    1.457121
  H      0.997030    2.202428   -0.177862
  H      2.403382    1.190502    0.178218
  C     -0.994749   -2.693623    0.575904
  H     -0.512824   -3.059912   -0.328505
  H     -2.066308   -2.637373    0.391237
  H     -0.800942   -3.397074    1.380181
  H     -1.557462   -1.137297    2.765644
  H     -0.193801    1.256956    2.786084
  C     -0.372998    1.600434   -2.867106
  H     -1.064551    1.391620   -3.715610
  H      0.109982    2.603931   -2.915207
  H     -0.757733    1.326360   -1.870716
  H      0.451307    0.895634   -2.993652

 Total Charge           Charge          ....    1
 Multiplicity           Mult            ....    1
 Number of Electrons    NEL             ....   82
 Basis Dimension        Dim             ....  175

ORBITAL ENERGIES
----------------

  NO   OCC          E(Eh)            E(eV)
   0   2.0000    -162.911185     -4433.0387
   1   2.0000     -18.221683      -495.8372
   2   2.0000     -15.062684      -409.8765
   3   2.0000     -15.060803      -409.8253
   4   2.0000     -15.045963      -409.4215
   5   2.0000     -14.871832      -404.6831
   6   2.0000     -14.871191      -404.6657
   7   2.0000     -10.652694      -289.8745
   8   2.0000     -10.635144      -289.3970
   9   2.0000     -10.632911      -289.3362
  10   2.0000     -10.624303      -289.1020
  11   2.0000     -10.624256      -289.1007
  12   2.0000     -10.542134      -286.8660
  13   2.0000      -2.429971       -66.1229
  14   2.0000      -1.577251       -42.9192
  15   2.0000      -1.571656       -42.7669
  16   2.0000      -1.560160       -42.4541
  17   2.0000      -1.319898       -35.9163
  18   2.0000      -1.195808       -32.5396
  19   2.0000      -1.031209       -28.0606
  20   2.0000      -0.989156       -26.9163
  21   2.0000      -0.931491       -25.3472
  22   2.0000      -0.891189       -24.2505
  23   2.0000      -0.851406       -23.1679
  24   2.0000      -0.810584       -22.0571
  25   2.0000      -0.756729       -20.5917
  26   2.0000      -0.709901       -19.3174
  27   2.0000      -0.681400       -18.5418
  28   2.0000      -0.663871       -18.0648
  29   2.0000      -0.660254       -17.9664
  30   2.0000      -0.657021       -17.8784
  31   2.0000      -0.608694       -16.5634
  32   2.0000      -0.604379       -16.4460
  33   2.0000      -0.596131       -16.2216
  34   2.0000      -0.571335       -15.5468
  35   2.0000      -0.562496       -15.3063
  36   2.0000      -0.549986       -14.9659
  37   2.0000      -0.526763       -14.3340
  38   2.0000      -0.492778       -13.4092
  39   2.0000      -0.443625       -12.0716
  40   2.0000      -0.331350        -9.0165
  41   0.0000      -0.188898        -5.1402
  42   0.0000      -0.186557        -5.0765
  43   0.0000      -0.186137        -5.0650
  44   0.0000      -0.173562        -4.7229
  45   0.0000      -0.171063        -4.6549

MULLIKEN ATOMIC CHARGES
-----------------------
   0 Sc:    0.512020
   1 C :    0.210136
   2 N :   -0.411498
   3 C :   -0.061671
   4 C :   -0.064891
   5 N :   -0.418809
   6 C :   -0.519876
   7 H :    0.277540
   8 H :    0.281853
   9 H :    0.260219
  10 C :   -0.518537
  11 H :    0.253629
  12 H :    0.283017
  13 H :    0.278811
  14 H :    0.305974
  15 H :    0.306506
  16 C :   -0.880330
  17 H :    0.262683
  18 H :    0.246213
  19 H :    0.210528
  20 H :    0.186483
Sum of atomic charges:    1.0000000

LOEWDIN ATOMIC CHARGES
----------------------
   0 Sc:    0.365041
   1 C :   -0.049871
   2 N :    0.012127
   3 C :   -0.077371
   4 C :   -0.073448
   5 N :    0.008155
   6 C :   -0.237568
   7 H :    0.157387
   8 H :    0.153865
   9 H :    0.151096
  10 C :   -0.236694
  11 H :    0.150012
  12 H :    0.157203
  13 H :    0.155742
  14 H :    0.170779
  15 H :    0.170332
  16 C :   -0.514147
  17 H :    0.154784
  18 H :    0.146483
  19 H :    0.125664
  20 H :    0.110428

  Mayer bond orders larger than 0.100000
B(  0-Sc,  1-C ) :   0.6947 B(  1-C ,  2-N ) :   1.2313 B(  1-C ,  5-N ) :   1.2240
B(  2-N ,  3-C ) :   1.1611 B(  2-N , 10-C ) :   0.9092 B(  3-C ,  4-C ) :   1.6270
B(  3-C , 14-H ) :   0.8771 B(  4-C ,  5-N ) :   1.1553 B(  4-C , 15-H ) :   0.8769
B(  5-N ,  6-C ) :   0.9081 B(  6-C ,  7-H ) :   0.9018 B(  6-C ,  8-H ) :   0.8866
B(  6-C ,  9-H ) :   0.8953 B( 10-C , 11-H ) :   0.8942 B( 10-C , 12-H ) :   0.8917
B( 10-C , 13-H ) :   0.8947 B( 16-C , 17-H ) :   0.9196 B( 16-C , 18-H ) :   0.9233
B( 16-C , 19-H ) :   0.9295 B( 16-C , 20-H ) :   0.9078

Dispersion correction           -0.010911153
FINAL SINGLE POINT ENERGY     -1104.446990006951
Dispersion correction            ... done

DIPOLE MOMENT
-------------
                                X             Y             Z
Electronic contribution:     10.02227     -11.10471      -1.90842
Nuclear contribution   :     -9.66574      10.67620       1.96362
                        -----------------------------------------
Total Dipole Moment    :      0.35652      -0.42851       0.05520
                        -----------------------------------------
Magnitude (a.u.)       :      0.56016
Magnitude (Debye)      :      1.42381

Rotational constants in cm-1:     0.040728     0.029752     0.023015
Rotational constants in MHz :  1220.997321   891.941845   689.964296

                             ****ORCA TERMINATED NORMALLY****
TOTAL RUN TIME: 0 days 0 hours 4 minutes 41 seconds 775 msec
