                         Program Version 5.0.3 -  RELEASE  -
|  1> ! EnGrad PBEh-3c
|  2> %output
|  3> xyzfile=True
|  4> end
|  5> %scf
|  6> maxiter 250
|  7> end
|  8> %output
|  9> Print[P_Hirshfeld] = 1
| 10> end
| 11> % maxcore
| 12> 4000
| 13> *xyz 1 1
| 14> Sc   1.68335415  -1.38146512  -1.49875048
| 15> C    0.44812416  -0.68205875   0.24759571
| 16> N   -0.46510004  -1.38900993   0.93905671
| 17> C   -0.86249421  -0.72171907   2.06009074
| 18> C   -0.18191055   0.45762908   2.06931725
| 19> N    0.60814519   0.45395441   0.95604252
| 20> C    1.46105659   1.56546814   0.57411887
| 21> H    1.66756044   2.16560804   1.45747698
| 22> H    0.99393610   2.19738374  -0.17955924
| 23> H    2.40387953   1.19466513   0.18626007
| 24> C   -0.99264761  -2.69182133   0.57508896
| 25> H   -0.51679523  -3.05337671  -0.33265241
| 26> H   -2.06614299  -2.63440856   0.39668205
| 27> H   -0.79645149  -3.40071817   1.37632627
| 28> H   -1.55417438  -1.13665057   2.76663818
| 29> H   -0.18936557   1.25401268   2.78927373
| 30> C   -0.35609053   1.59036247  -2.87324136
| 31> H   -1.07732851   1.41412378  -3.70773340
| 32> H    0.12792842   2.57708131  -2.91959203
| 33> H   -0.77984783   1.34750982  -1.87482213
| 34> H    0.44686114   0.87814143  -3.00583994
| 35> *
| 36>
| 37>                          ****END OF INPUT****

CARTESIAN COORDINATES (ANGSTROEM)
---------------------------------
  Sc     1.683354   -1.381465   -1.498750
  C      0.448124   -0.682059    0.247596
  N     -0.465100   -1.389010    0.939057
  C     -0.862494   -0.721719    2.060091
  C     -0.181911    0.457629    2.069317
  N      0.608145    0.453954    0.956043
  C      1.461057    1.565468    0.574119
  H      1.667560    2.165608    1.457477
  H      0.993936    2.197384   -0.179559
  H      2.403880    1.194665    0.186260
  C     -0.992648   -2.691821    0.575089
  H     -0.516795   -3.053377   -0.332652
  H     -2.066143   -2.634409    0.396682
  H     -0.796451   -3.400718    1.376326
  H     -1.554174   -1.136651    2.766638
  H     -0.189366    1.254013    2.789274
  C     -0.356091    1.590362   -2.873241
  H     -1.077329    1.414124   -3.707733
  H      0.127928    2.577081   -2.919592
  H     -0.779848    1.347510   -1.874822
  H      0.446861    0.878141   -3.005840

 Total Charge           Charge          ....    1
 Multiplicity           Mult            ....    1
 Number of Electrons    NEL             ....   82
 Basis Dimension        Dim             ....  175

ORBITAL ENERGIES
----------------

  NO   OCC          E(Eh)            E(eV)
   0   2.0000    -162.910816     -4433.0287
   1   2.0000     -18.221348      -495.8281
   2   2.0000     -15.062341      -409.8671
   3   2.0000     -15.060455      -409.8158
   4   2.0000     -15.045643      -409.4128
   5   2.0000     -14.872618      -404.7045
   6   2.0000     -14.871949      -404.6863
   7   2.0000     -10.652449      -289.8679
   8   2.0000     -10.636044      -289.4215
   9   2.0000     -10.633636      -289.3560
  10   2.0000     -10.624294      -289.1017
  11   2.0000     -10.624037      -289.0948
  12   2.0000     -10.540534      -286.8225
  13   2.0000      -2.429654       -66.1143
  14   2.0000      -1.576932       -42.9105
  15   2.0000      -1.571307       -42.7574
  16   2.0000      -1.559907       -42.4472
  17   2.0000      -1.319923       -35.9169
  18   2.0000      -1.197060       -32.5737
  19   2.0000      -1.030084       -28.0300
  20   2.0000      -0.988932       -26.9102
  21   2.0000      -0.932250       -25.3678
  22   2.0000      -0.891793       -24.2669
  23   2.0000      -0.851939       -23.1824
  24   2.0000      -0.810490       -22.0545
  25   2.0000      -0.757345       -20.6084
  26   2.0000      -0.710030       -19.3209
  27   2.0000      -0.682628       -18.5752
  28   2.0000      -0.665407       -18.1066
  29   2.0000      -0.661054       -17.9882
  30   2.0000      -0.655560       -17.8387
  31   2.0000      -0.607680       -16.5358
  32   2.0000      -0.604077       -16.4378
  33   2.0000      -0.595792       -16.2123
  34   2.0000      -0.568245       -15.4627
  35   2.0000      -0.562057       -15.2943
  36   2.0000      -0.556557       -15.1447
  37   2.0000      -0.527788       -14.3618
  38   2.0000      -0.493744       -13.4355
  39   2.0000      -0.441431       -12.0120
  40   2.0000      -0.331053        -9.0084
  41   0.0000      -0.188900        -5.1402
  42   0.0000      -0.186188        -5.0664
  43   0.0000      -0.185823        -5.0565
  44   0.0000      -0.173483        -4.7207
  45   0.0000      -0.170653        -4.6437

MULLIKEN ATOMIC CHARGES
-----------------------
   0 Sc:    0.512454
   1 C :    0.206516
   2 N :   -0.408849
   3 C :   -0.063317
   4 C :   -0.065783
   5 N :   -0.416607
   6 C :   -0.521393
   7 H :    0.276632
   8 H :    0.282416
   9 H :    0.261420
  10 C :   -0.519454
  11 H :    0.254259
  12 H :    0.282721
  13 H :    0.278612
  14 H :    0.307083
  15 H :    0.307804
  16 C :   -0.882482
  17 H :    0.261485
  18 H :    0.248473
  19 H :    0.207736
  20 H :    0.190275
Sum of atomic charges:    1.0000000

LOEWDIN ATOMIC CHARGES
----------------------
   0 Sc:    0.364009
   1 C :   -0.051350
   2 N :    0.014482
   3 C :   -0.077549
   4 C :   -0.073403
   5 N :    0.010165
   6 C :   -0.238233
   7 H :    0.157549
   8 H :    0.154030
   9 H :    0.151226
  10 C :   -0.237138
  11 H :    0.150100
  12 H :    0.157241
  13 H :    0.155858
  14 H :    0.170139
  15 H :    0.169968
  16 C :   -0.514252
  17 H :    0.154429
  18 H :    0.145345
  19 H :    0.125739
  20 H :    0.111645

  Mayer bond orders larger than 0.100000
B(  0-Sc,  1-C ) :   0.6957 B(  1-C ,  2-N ) :   1.2268 B(  1-C ,  5-N ) :   1.2196
B(  2-N ,  3-C ) :   1.1719 B(  2-N , 10-C ) :   0.9097 B(  3-C ,  4-C ) :   1.6131
B(  3-C , 14-H ) :   0.8765 B(  4-C ,  5-N ) :   1.1655 B(  4-C , 15-H ) :   0.8762
B(  5-N ,  6-C ) :   0.9083 B(  6-C ,  7-H ) :   0.9024 B(  6-C ,  8-H ) :   0.8863
B(  6-C ,  9-H ) :   0.8947 B( 10-C , 11-H ) :   0.8941 B( 10-C , 12-H ) :   0.8919
B( 10-C , 13-H ) :   0.8948 B( 16-C , 17-H ) :   0.9206 B( 16-C , 18-H ) :   0.9220
B( 16-C , 19-H ) :   0.9317 B( 16-C , 20-H ) :   0.9070

Dispersion correction           -0.010913357
FINAL SINGLE POINT ENERGY     -1104.448712607308
Dispersion correction            ... done

DIPOLE MOMENT
-------------
                                X             Y             Z
Electronic contribution:     10.05948     -11.07804      -1.87069
Nuclear contribution   :     -9.71872      10.66907       1.93718
                        -----------------------------------------
Total Dipole Moment    :      0.34076      -0.40897       0.06648
                        -----------------------------------------
Magnitude (a.u.)       :      0.53646
Magnitude (Debye)      :      1.36358

Rotational constants in cm-1:     0.040863     0.029734     0.023024
Rotational constants in MHz :  1225.044273   891.401354   690.253287

                             ****ORCA TERMINATED NORMALLY****
TOTAL RUN TIME: 0 days 0 hours 4 minutes 45 seconds 93 msec
