                         Program Version 5.0.3 -  RELEASE  -
|  1> ! EnGrad PBEh-3c
|  2> %output
|  3> xyzfile=True
|  4> end
|  5> %scf
|  6> maxiter 250
|  7> end
|  8> %output
|  9> Print[P_Hirshfeld] = 1
| 10> end
| 11> % maxcore
| 12> 4000
| 13> *xyz 1 1
| 14> Sc   1.68557094  -1.37663153  -1.49660021
| 15> C    0.44928197  -0.68269583   0.24813583
| 16> N   -0.46638608  -1.38877713   0.93879058
| 17> C   -0.85660689  -0.72150833   2.06081820
| 18> C   -0.18133273   0.45159159   2.07124471
| 19> N    0.60427239   0.45584163   0.95643081
| 20> C    1.45991972   1.56630726   0.57534925
| 21> H    1.66295176   2.17224983   1.45688937
| 22> H    0.99035884   2.19248333  -0.18043589
| 23> H    2.40631663   1.19778657   0.19287485
| 24> C   -0.99179081  -2.69152982   0.57529093
| 25> H   -0.51948338  -3.04793347  -0.33590755
| 26> H   -2.06493074  -2.63172246   0.40144348
| 27> H   -0.79294222  -3.40411083   1.37277430
| 28> H   -1.55361648  -1.13675422   2.76911330
| 29> H   -0.18623712   1.25347710   2.79241029
| 30> C   -0.34544335   1.57779911  -2.87842180
| 31> H   -1.07712963   1.43787476  -3.68790469
| 32> H    0.13181260   2.55114728  -2.92133939
| 33> H   -0.79659215   1.37246807  -1.89054853
| 34> H    0.44528486   0.85824789  -3.01866559
| 35> *
| 36>
| 37>                          ****END OF INPUT****

CARTESIAN COORDINATES (ANGSTROEM)
---------------------------------
  Sc     1.685571   -1.376632   -1.496600
  C      0.449282   -0.682696    0.248136
  N     -0.466386   -1.388777    0.938791
  C     -0.856607   -0.721508    2.060818
  C     -0.181333    0.451592    2.071245
  N      0.604272    0.455842    0.956431
  C      1.459920    1.566307    0.575349
  H      1.662952    2.172250    1.456889
  H      0.990359    2.192483   -0.180436
  H      2.406317    1.197787    0.192875
  C     -0.991791   -2.691530    0.575291
  H     -0.519483   -3.047933   -0.335908
  H     -2.064931   -2.631722    0.401443
  H     -0.792942   -3.404111    1.372774
  H     -1.553616   -1.136754    2.769113
  H     -0.186237    1.253477    2.792410
  C     -0.345443    1.577799   -2.878422
  H     -1.077130    1.437875   -3.687905
  H      0.131813    2.551147   -2.921339
  H     -0.796592    1.372468   -1.890549
  H      0.445285    0.858248   -3.018666

 Total Charge           Charge          ....    1
 Multiplicity           Mult            ....    1
 Number of Electrons    NEL             ....   82
 Basis Dimension        Dim             ....  175

ORBITAL ENERGIES
----------------

  NO   OCC          E(Eh)            E(eV)
   0   2.0000    -162.910442     -4433.0185
   1   2.0000     -18.220981      -495.8181
   2   2.0000     -15.061974      -409.8571
   3   2.0000     -15.060079      -409.8056
   4   2.0000     -15.045282      -409.4029
   5   2.0000     -14.872138      -404.6915
   6   2.0000     -14.871395      -404.6712
   7   2.0000     -10.652340      -289.8649
   8   2.0000     -10.635250      -289.3999
   9   2.0000     -10.632767      -289.3323
  10   2.0000     -10.624320      -289.1024
  11   2.0000     -10.623648      -289.0842
  12   2.0000     -10.536335      -286.7082
  13   2.0000      -2.429346       -66.1059
  14   2.0000      -1.576649       -42.9028
  15   2.0000      -1.570983       -42.7486
  16   2.0000      -1.559639       -42.4399
  17   2.0000      -1.320164       -35.9235
  18   2.0000      -1.196758       -32.5654
  19   2.0000      -1.031021       -28.0555
  20   2.0000      -0.988415       -26.8961
  21   2.0000      -0.932213       -25.3668
  22   2.0000      -0.894870       -24.3506
  23   2.0000      -0.850825       -23.1521
  24   2.0000      -0.811025       -22.0691
  25   2.0000      -0.756901       -20.5963
  26   2.0000      -0.710137       -19.3238
  27   2.0000      -0.681096       -18.5336
  28   2.0000      -0.664424       -18.0799
  29   2.0000      -0.661214       -17.9926
  30   2.0000      -0.655643       -17.8410
  31   2.0000      -0.607886       -16.5414
  32   2.0000      -0.603492       -16.4219
  33   2.0000      -0.596119       -16.2212
  34   2.0000      -0.568226       -15.4622
  35   2.0000      -0.565269       -15.3818
  36   2.0000      -0.561478       -15.2786
  37   2.0000      -0.527872       -14.3641
  38   2.0000      -0.493437       -13.4271
  39   2.0000      -0.441945       -12.0259
  40   2.0000      -0.330809        -9.0018
  41   0.0000      -0.188936        -5.1412
  42   0.0000      -0.185883        -5.0581
  43   0.0000      -0.185556        -5.0492
  44   0.0000      -0.173320        -4.7163
  45   0.0000      -0.170284        -4.6337

MULLIKEN ATOMIC CHARGES
-----------------------
   0 Sc:    0.513539
   1 C :    0.205865
   2 N :   -0.409002
   3 C :   -0.062288
   4 C :   -0.065075
   5 N :   -0.416855
   6 C :   -0.521592
   7 H :    0.276551
   8 H :    0.282255
   9 H :    0.261653
  10 C :   -0.519182
  11 H :    0.254074
  12 H :    0.282457
  13 H :    0.278539
  14 H :    0.306443
  15 H :    0.306996
  16 C :   -0.888030
  17 H :    0.264493
  18 H :    0.250420
  19 H :    0.208665
  20 H :    0.190074
Sum of atomic charges:    1.0000000

LOEWDIN ATOMIC CHARGES
----------------------
   0 Sc:    0.364065
   1 C :   -0.050026
   2 N :    0.014396
   3 C :   -0.078464
   4 C :   -0.074074
   5 N :    0.009670
   6 C :   -0.238278
   7 H :    0.157568
   8 H :    0.153880
   9 H :    0.151442
  10 C :   -0.237052
  11 H :    0.150100
  12 H :    0.157059
  13 H :    0.155824
  14 H :    0.170529
  15 H :    0.170334
  16 C :   -0.514416
  17 H :    0.153646
  18 H :    0.144349
  19 H :    0.126321
  20 H :    0.113126

  Mayer bond orders larger than 0.100000
B(  0-Sc,  1-C ) :   0.6963 B(  1-C ,  2-N ) :   1.2276 B(  1-C ,  5-N ) :   1.2201
B(  2-N ,  3-C ) :   1.1701 B(  2-N , 10-C ) :   0.9102 B(  3-C ,  4-C ) :   1.6150
B(  3-C , 14-H ) :   0.8769 B(  4-C ,  5-N ) :   1.1642 B(  4-C , 15-H ) :   0.8766
B(  5-N ,  6-C ) :   0.9080 B(  6-C ,  7-H ) :   0.9025 B(  6-C ,  8-H ) :   0.8865
B(  6-C ,  9-H ) :   0.8945 B( 10-C , 11-H ) :   0.8942 B( 10-C , 12-H ) :   0.8921
B( 10-C , 13-H ) :   0.8948 B( 16-C , 17-H ) :   0.9195 B( 16-C , 18-H ) :   0.9214
B( 16-C , 19-H ) :   0.9324 B( 16-C , 20-H ) :   0.9089

Dispersion correction           -0.010902792
FINAL SINGLE POINT ENERGY     -1104.450803807933
Dispersion correction            ... done

DIPOLE MOMENT
-------------
                                X             Y             Z
Electronic contribution:     10.07772     -11.05283      -1.85727
Nuclear contribution   :     -9.75066      10.66448       1.92473
                        -----------------------------------------
Total Dipole Moment    :      0.32707      -0.38835       0.06746
                        -----------------------------------------
Magnitude (a.u.)       :      0.51219
Magnitude (Debye)      :      1.30189

Rotational constants in cm-1:     0.041005     0.029728     0.023047
Rotational constants in MHz :  1229.313640   891.232949   690.919021

                             ****ORCA TERMINATED NORMALLY****
TOTAL RUN TIME: 0 days 0 hours 4 minutes 44 seconds 80 msec
