                         Program Version 5.0.3 -  RELEASE  -
|  1> ! EnGrad PBEh-3c
|  2> %output
|  3> xyzfile=True
|  4> end
|  5> %scf
|  6> maxiter 250
|  7> end
|  8> %output
|  9> Print[P_Hirshfeld] = 1
| 10> end
| 11> % maxcore
| 12> 4000
| 13> *xyz 1 1
| 14> Sc   1.69448251  -1.35991527  -1.48952052
| 15> C    0.45124734  -0.68169316   0.25163397
| 16> N   -0.46644747  -1.38785165   0.93643502
| 17> C   -0.84678536  -0.72867074   2.06933750
| 18> C   -0.17543533   0.44382812   2.08228459
| 19> N    0.59586783   0.45957417   0.95607282
| 20> C    1.45491268   1.57095420   0.58094978
| 21> H    1.64370957   2.19348288   1.45439221
| 22> H    0.97976831   2.17754587  -0.18580284
| 23> H    2.41350704   1.20791925   0.21512083
| 24> C   -0.99007808  -2.69071818   0.57568346
| 25> H   -0.52956435  -3.02922234  -0.34821601
| 26> H   -2.06213763  -2.62380276   0.41781337
| 27> H   -0.77981558  -3.41441300   1.35964665
| 28> H   -1.54792750  -1.13759078   2.77609174
| 29> H   -0.17506129   1.24725681   2.80187330
| 30> C   -0.33254903   1.54217615  -2.88807395
| 31> H   -1.07690220   1.51345465  -3.63576062
| 32> H    0.16677047   2.47426337  -2.93130001
| 33> H   -0.83830815   1.44798276  -1.94263182
| 34> H    0.42660121   0.78404060  -3.05450951
| 35> *
| 36>
| 37>                          ****END OF INPUT****

CARTESIAN COORDINATES (ANGSTROEM)
---------------------------------
  Sc     1.694483   -1.359915   -1.489521
  C      0.451247   -0.681693    0.251634
  N     -0.466447   -1.387852    0.936435
  C     -0.846785   -0.728671    2.069338
  C     -0.175435    0.443828    2.082285
  N      0.595868    0.459574    0.956073
  C      1.454913    1.570954    0.580950
  H      1.643710    2.193483    1.454392
  H      0.979768    2.177546   -0.185803
  H      2.413507    1.207919    0.215121
  C     -0.990078   -2.690718    0.575683
  H     -0.529564   -3.029222   -0.348216
  H     -2.062138   -2.623803    0.417813
  H     -0.779816   -3.414413    1.359647
  H     -1.547927   -1.137591    2.776092
  H     -0.175061    1.247257    2.801873
  C     -0.332549    1.542176   -2.888074
  H     -1.076902    1.513455   -3.635761
  H      0.166770    2.474263   -2.931300
  H     -0.838308    1.447983   -1.942632
  H      0.426601    0.784041   -3.054510

 Total Charge           Charge          ....    1
 Multiplicity           Mult            ....    1
 Number of Electrons    NEL             ....   82
 Basis Dimension        Dim             ....  175

ORBITAL ENERGIES
----------------

  NO   OCC          E(Eh)            E(eV)
   0   2.0000    -162.909481     -4432.9923
   1   2.0000     -18.219995      -495.7913
   2   2.0000     -15.060998      -409.8306
   3   2.0000     -15.059065      -409.7780
   4   2.0000     -15.044313      -409.3766
   5   2.0000     -14.871207      -404.6661
   6   2.0000     -14.870393      -404.6440
   7   2.0000     -10.651608      -289.8450
   8   2.0000     -10.634488      -289.3791
   9   2.0000     -10.631874      -289.3080
  10   2.0000     -10.624438      -289.1056
  11   2.0000     -10.622559      -289.0545
  12   2.0000     -10.527144      -286.4581
  13   2.0000      -2.428507       -66.0830
  14   2.0000      -1.575901       -42.8824
  15   2.0000      -1.570097       -42.7245
  16   2.0000      -1.558885       -42.4194
  17   2.0000      -1.319562       -35.9071
  18   2.0000      -1.195806       -32.5395
  19   2.0000      -1.030744       -28.0480
  20   2.0000      -0.988230       -26.8911
  21   2.0000      -0.931322       -25.3426
  22   2.0000      -0.903225       -24.5780
  23   2.0000      -0.850325       -23.1385
  24   2.0000      -0.810291       -22.0491
  25   2.0000      -0.756328       -20.5807
  26   2.0000      -0.709906       -19.3175
  27   2.0000      -0.680406       -18.5148
  28   2.0000      -0.663053       -18.0426
  29   2.0000      -0.661578       -18.0024
  30   2.0000      -0.655641       -17.8409
  31   2.0000      -0.606922       -16.5152
  32   2.0000      -0.603102       -16.4112
  33   2.0000      -0.596265       -16.2252
  34   2.0000      -0.582883       -15.8610
  35   2.0000      -0.565799       -15.3962
  36   2.0000      -0.564334       -15.3563
  37   2.0000      -0.527476       -14.3533
  38   2.0000      -0.492539       -13.4027
  39   2.0000      -0.441854       -12.0234
  40   2.0000      -0.330116        -8.9829
  41   0.0000      -0.188770        -5.1367
  42   0.0000      -0.185142        -5.0380
  43   0.0000      -0.184764        -5.0277
  44   0.0000      -0.172817        -4.7026
  45   0.0000      -0.169327        -4.6076

MULLIKEN ATOMIC CHARGES
-----------------------
   0 Sc:    0.515396
   1 C :    0.206760
   2 N :   -0.410863
   3 C :   -0.061967
   4 C :   -0.065664
   5 N :   -0.416910
   6 C :   -0.522006
   7 H :    0.277106
   8 H :    0.281487
   9 H :    0.261615
  10 C :   -0.517876
  11 H :    0.253004
  12 H :    0.282009
  13 H :    0.278590
  14 H :    0.306256
  15 H :    0.306434
  16 C :   -0.902884
  17 H :    0.274379
  18 H :    0.252846
  19 H :    0.216794
  20 H :    0.185494
Sum of atomic charges:    1.0000000

LOEWDIN ATOMIC CHARGES
----------------------
   0 Sc:    0.363851
   1 C :   -0.048816
   2 N :    0.013854
   3 C :   -0.078852
   4 C :   -0.074060
   5 N :    0.008688
   6 C :   -0.238346
   7 H :    0.157708
   8 H :    0.153554
   9 H :    0.151868
  10 C :   -0.236573
  11 H :    0.149834
  12 H :    0.156683
  13 H :    0.155775
  14 H :    0.170384
  15 H :    0.170009
  16 C :   -0.517746
  17 H :    0.152391
  18 H :    0.142565
  19 H :    0.129699
  20 H :    0.117531

  Mayer bond orders larger than 0.100000
B(  0-Sc,  1-C ) :   0.6980 B(  1-C ,  2-N ) :   1.2292 B(  1-C ,  5-N ) :   1.2214
B(  2-N ,  3-C ) :   1.1660 B(  2-N , 10-C ) :   0.9109 B(  3-C ,  4-C ) :   1.6193
B(  3-C , 14-H ) :   0.8770 B(  4-C ,  5-N ) :   1.1619 B(  4-C , 15-H ) :   0.8768
B(  5-N ,  6-C ) :   0.9072 B(  6-C ,  7-H ) :   0.9024 B(  6-C ,  8-H ) :   0.8873
B(  6-C ,  9-H ) :   0.8944 B( 10-C , 11-H ) :   0.8950 B( 10-C , 12-H ) :   0.8925
B( 10-C , 13-H ) :   0.8947 B( 16-C , 17-H ) :   0.9151 B( 16-C , 18-H ) :   0.9208
B( 16-C , 19-H ) :   0.9312 B( 16-C , 20-H ) :   0.9148

Dispersion correction           -0.010885444
FINAL SINGLE POINT ENERGY     -1104.449757048495
Dispersion correction            ... done

DIPOLE MOMENT
-------------
                                X             Y             Z
Electronic contribution:     10.13003     -10.95790      -1.78854
Nuclear contribution   :     -9.83053      10.62555       1.85619
                        -----------------------------------------
Total Dipole Moment    :      0.29949      -0.33234       0.06765
                        -----------------------------------------
Magnitude (a.u.)       :      0.45247
Magnitude (Debye)      :      1.15008

Rotational constants in cm-1:     0.041320     0.029670     0.023106
Rotational constants in MHz :  1238.739375   889.475765   692.692307

                             ****ORCA TERMINATED NORMALLY****
TOTAL RUN TIME: 0 days 0 hours 4 minutes 41 seconds 579 msec
