                         Program Version 5.0.3 -  RELEASE  -
|  1> ! EnGrad PBEh-3c
|  2> %output
|  3> xyzfile=True
|  4> end
|  5> %scf
|  6> maxiter 250
|  7> end
|  8> %output
|  9> Print[P_Hirshfeld] = 1
| 10> end
| 11> % maxcore
| 12> 4000
| 13> *xyz 1 1
| 14> Ir   0.51128986  -0.77259178   0.68822032
| 15> C   -0.03567184  -2.83831779   1.25250186
| 16> C    0.32903870  -2.11656088   2.43570077
| 17> C    2.11182955  -2.10496554   0.95971240
| 18> C    1.05274442  -2.83431600   0.35529683
| 19> C    1.66732416  -1.75319698   2.26871898
| 20> N   -1.06541437  -0.07475246  -0.46261422
| 21> C   -2.46140368  -0.07545959   0.00997904
| 22> C   -2.85439480   1.23182917   0.67003510
| 23> H   -3.87997854   1.21775757   1.03959846
| 24> H   -2.75732254   2.06409288  -0.02727149
| 25> H   -2.26350870   1.41639730   1.56179669
| 26> C   -3.51399648  -0.45175080  -1.01927352
| 27> H   -2.51217342  -0.83835050   0.78735801
| 28> H   -4.48066281  -0.60454991  -0.54553081
| 29> H   -3.66929038   0.32541122  -1.77042555
| 30> H   -3.25755166  -1.38440390  -1.52499267
| 31> C   -0.82255504   0.23491316  -1.68176562
| 32> C    0.47044781   0.22471774  -2.28353005
| 33> H   -1.62784603   0.53030179  -2.34806526
| 34> C    1.61878767  -0.12307877  -1.62620765
| 35> C    2.75140440  -0.13825104  -2.46846974
| 36> S    0.75142515   0.26272355  -3.97952858
| 37> C    2.41502770   0.03483068  -3.78141701
| 38> H    2.24781762   1.21833550  -0.82235087
| 39> H    3.78876335  -0.23661384  -2.17944253
| 40> H    3.06589972  -0.04102824  -4.63929571
| 41> H   -0.82735453  -3.57345567   1.22302745
| 42> H   -0.25472696  -2.04988440   3.34018378
| 43> H    2.31047573  -1.36241234   3.04180009
| 44> O    1.98934319   2.01823596   0.42024581
| 45> O    0.34561995   1.16483188   1.53647733
| 46> C    1.02445334   2.15130609   1.24124548
| 47> C    0.90927274   3.46317836   1.92495797
| 48> H    0.87783157   4.25883227   1.18195235
| 49> H    1.77795347   3.65024792   2.55741584
| 50> H    0.01695618   3.49427129   2.54161840
| 51> H    3.14382497  -2.13428400   0.64930338
| 52> H    1.10631811  -3.45396749  -0.52696068
| 53> *
| 54>
| 55>                          ****END OF INPUT****

CARTESIAN COORDINATES (ANGSTROEM)
---------------------------------
  Ir     0.511290   -0.772592    0.688220
  C     -0.035672   -2.838318    1.252502
  C      0.329039   -2.116561    2.435701
  C      2.111830   -2.104966    0.959712
  C      1.052744   -2.834316    0.355297
  C      1.667324   -1.753197    2.268719
  N     -1.065414   -0.074752   -0.462614
  C     -2.461404   -0.075460    0.009979
  C     -2.854395    1.231829    0.670035
  H     -3.879979    1.217758    1.039598
  H     -2.757323    2.064093   -0.027271
  H     -2.263509    1.416397    1.561797
  C     -3.513996   -0.451751   -1.019274
  H     -2.512173   -0.838350    0.787358
  H     -4.480663   -0.604550   -0.545531
  H     -3.669290    0.325411   -1.770426
  H     -3.257552   -1.384404   -1.524993
  C     -0.822555    0.234913   -1.681766
  C      0.470448    0.224718   -2.283530
  H     -1.627846    0.530302   -2.348065
  C      1.618788   -0.123079   -1.626208
  C      2.751404   -0.138251   -2.468470
  S      0.751425    0.262724   -3.979529
  C      2.415028    0.034831   -3.781417
  H      2.247818    1.218336   -0.822351
  H      3.788763   -0.236614   -2.179443
  H      3.065900   -0.041028   -4.639296
  H     -0.827355   -3.573456    1.223027
  H     -0.254727   -2.049884    3.340184
  H      2.310476   -1.362412    3.041800
  O      1.989343    2.018236    0.420246
  O      0.345620    1.164832    1.536477
  C      1.024453    2.151306    1.241245
  C      0.909273    3.463178    1.924958
  H      0.877832    4.258832    1.181952
  H      1.777953    3.650248    2.557416
  H      0.016956    3.494271    2.541618
  H      3.143825   -2.134284    0.649303
  H      1.106318   -3.453967   -0.526961

 Total Charge           Charge          ....    1
 Multiplicity           Mult            ....    1
 Number of Electrons    NEL             ....  164
 Basis Dimension        Dim             ....  358

ORBITAL ENERGIES
----------------

  NO   OCC          E(Eh)            E(eV)
   0   2.0000     -89.757119     -2442.4154
   1   2.0000     -19.625308      -534.0318
   2   2.0000     -19.596772      -533.2553
   3   2.0000     -14.827628      -403.4803
   4   2.0000     -10.688789      -290.8567
   5   2.0000     -10.649848      -289.7971
   6   2.0000     -10.628822      -289.2250
   7   2.0000     -10.620986      -289.0117
   8   2.0000     -10.620580      -289.0007
   9   2.0000     -10.615668      -288.8670
  10   2.0000     -10.613073      -288.7964
  11   2.0000     -10.612904      -288.7918
  12   2.0000     -10.607833      -288.6538
  13   2.0000     -10.606093      -288.6065
  14   2.0000     -10.591988      -288.2227
  15   2.0000     -10.587219      -288.0929
  16   2.0000     -10.545248      -286.9508
  17   2.0000     -10.542098      -286.8651
  18   2.0000     -10.535616      -286.6887
  19   2.0000      -8.396707      -228.4860
  20   2.0000      -6.286342      -171.0601
  21   2.0000      -6.282979      -170.9685
  22   2.0000      -6.281974      -170.9412
  23   2.0000      -4.020180      -109.3947
  24   2.0000      -2.339142       -63.6513
  25   2.0000      -2.305099       -62.7249
  26   2.0000      -2.301152       -62.6175
  27   2.0000      -1.316739       -35.8303
  28   2.0000      -1.200284       -32.6614
  29   2.0000      -1.197211       -32.5778
  30   2.0000      -1.166073       -31.7305
  31   2.0000      -1.125925       -30.6380
  32   2.0000      -1.015295       -27.6276
  33   2.0000      -0.974438       -26.5158
  34   2.0000      -0.969846       -26.3908
  35   2.0000      -0.964042       -26.2329
  36   2.0000      -0.951402       -25.8890
  37   2.0000      -0.938585       -25.5402
  38   2.0000      -0.889769       -24.2118
  39   2.0000      -0.865001       -23.5379
  40   2.0000      -0.793309       -21.5870
  41   2.0000      -0.776097       -21.1187
  42   2.0000      -0.775913       -21.1137
  43   2.0000      -0.774370       -21.0717
  44   2.0000      -0.766387       -20.8545
  45   2.0000      -0.749271       -20.3887
  46   2.0000      -0.728239       -19.8164
  47   2.0000      -0.702133       -19.1060
  48   2.0000      -0.684219       -18.6185
  49   2.0000      -0.673773       -18.3343
  50   2.0000      -0.658685       -17.9237
  51   2.0000      -0.650153       -17.6916
  52   2.0000      -0.645078       -17.5535
  53   2.0000      -0.637879       -17.3576
  54   2.0000      -0.636856       -17.3297
  55   2.0000      -0.629390       -17.1266
  56   2.0000      -0.620243       -16.8777
  57   2.0000      -0.603712       -16.4278
  58   2.0000      -0.598843       -16.2953
  59   2.0000      -0.596313       -16.2265
  60   2.0000      -0.591782       -16.1032
  61   2.0000      -0.583183       -15.8692
  62   2.0000      -0.569617       -15.5001
  63   2.0000      -0.563910       -15.3448
  64   2.0000      -0.555311       -15.1108
  65   2.0000      -0.552227       -15.0268
  66   2.0000      -0.539328       -14.6759
  67   2.0000      -0.538305       -14.6480
  68   2.0000      -0.533563       -14.5190
  69   2.0000      -0.519317       -14.1313
  70   2.0000      -0.505840       -13.7646
  71   2.0000      -0.504820       -13.7369
  72   2.0000      -0.501297       -13.6410
  73   2.0000      -0.491779       -13.3820
  74   2.0000      -0.472845       -12.8668
  75   2.0000      -0.463909       -12.6236
  76   2.0000      -0.455188       -12.3863
  77   2.0000      -0.443535       -12.0692
  78   2.0000      -0.432303       -11.7636
  79   2.0000      -0.421686       -11.4747
  80   2.0000      -0.406021       -11.0484
  81   2.0000      -0.390522       -10.6266
  82   0.0000      -0.206427        -5.6172
  83   0.0000      -0.172797        -4.7020
  84   0.0000      -0.152204        -4.1417
  85   0.0000      -0.093070        -2.5326
  86   0.0000      -0.079264        -2.1569

MULLIKEN ATOMIC CHARGES
-----------------------
   0 Ir:    0.616350
   1 C :   -0.260347
   2 C :   -0.244036
   3 C :   -0.261815
   4 C :   -0.220469
   5 C :   -0.165521
   6 N :   -0.480046
   7 C :   -0.116697
   8 C :   -0.637688
   9 H :    0.248792
  10 H :    0.222887
  11 H :    0.265605
  12 C :   -0.682043
  13 H :    0.254441
  14 H :    0.269694
  15 H :    0.226400
  16 H :    0.243723
  17 C :    0.104055
  18 C :   -0.139841
  19 H :    0.271947
  20 C :   -0.342904
  21 C :   -0.200870
  22 S :    0.331033
  23 C :   -0.408113
  24 H :    0.430772
  25 H :    0.272768
  26 H :    0.300830
  27 H :    0.282943
  28 H :    0.287228
  29 H :    0.284463
  30 O :   -0.549748
  31 O :   -0.479220
  32 C :    0.651148
  33 C :   -0.743379
  34 H :    0.271070
  35 H :    0.282032
  36 H :    0.255067
  37 H :    0.278694
  38 H :    0.280796
Sum of atomic charges:    1.0000000

LOEWDIN ATOMIC CHARGES
----------------------
   0 Ir:   -0.223359
   1 C :   -0.033862
   2 C :   -0.059815
   3 C :   -0.040268
   4 C :   -0.070614
   5 C :   -0.048615
   6 N :   -0.022847
   7 C :   -0.065294
   8 C :   -0.352657
   9 H :    0.145933
  10 H :    0.134847
  11 H :    0.147871
  12 C :   -0.362874
  13 H :    0.143336
  14 H :    0.155751
  15 H :    0.132604
  16 H :    0.137760
  17 C :    0.035071
  18 C :   -0.231061
  19 H :    0.153646
  20 C :   -0.196843
  21 C :   -0.175118
  22 S :    0.489685
  23 C :   -0.260641
  24 H :    0.408210
  25 H :    0.160480
  26 H :    0.170768
  27 H :    0.182542
  28 H :    0.184313
  29 H :    0.182622
  30 O :   -0.319231
  31 O :   -0.153390
  32 C :    0.158786
  33 C :   -0.368903
  34 H :    0.167816
  35 H :    0.175169
  36 H :    0.152261
  37 H :    0.184615
  38 H :    0.181304

  Mayer bond orders larger than 0.100000
B(  0-Ir,  1-C ) :   0.4196 B(  0-Ir,  2-C ) :   0.4675 B(  0-Ir,  3-C ) :   0.4970
B(  0-Ir,  4-C ) :   0.4814 B(  0-Ir,  5-C ) :   0.4256 B(  0-Ir,  6-N ) :   0.4813
B(  0-Ir, 20-C ) :   0.4145 B(  0-Ir, 31-O ) :   0.4972 B(  1-C ,  2-C ) :   1.1745
B(  1-C ,  4-C ) :   1.2133 B(  1-C , 27-H ) :   0.9202 B(  2-C ,  5-C ) :   1.1406
B(  2-C , 28-H ) :   0.9121 B(  3-C ,  4-C ) :   1.0940 B(  3-C ,  5-C ) :   1.2019
B(  3-C , 37-H ) :   0.9228 B(  4-C , 38-H ) :   0.9167 B(  5-C , 29-H ) :   0.9136
B(  6-N ,  7-C ) :   0.8978 B(  6-N , 17-C ) :   1.6210 B(  7-C ,  8-C ) :   0.9774
B(  7-C , 12-C ) :   0.9919 B(  7-C , 13-H ) :   0.8915 B(  8-C ,  9-H ) :   0.9069
B(  8-C , 10-H ) :   0.9195 B(  8-C , 11-H ) :   0.9028 B( 12-C , 14-H ) :   0.9041
B( 12-C , 15-H ) :   0.9130 B( 12-C , 16-H ) :   0.9161 B( 17-C , 18-C ) :   1.1153
B( 17-C , 19-H ) :   0.8789 B( 18-C , 20-C ) :   1.2691 B( 18-C , 22-S ) :   1.1828
B( 20-C , 21-C ) :   1.3241 B( 20-C , 24-H ) :   0.3204 B( 21-C , 23-C ) :   1.4650
B( 21-C , 25-H ) :   0.8970 B( 22-S , 23-C ) :   1.2865 B( 23-C , 26-H ) :   0.8863
B( 24-H , 30-O ) :   0.3257 B( 30-O , 32-C ) :   1.4611 B( 31-O , 32-C ) :   1.4588
B( 32-C , 33-C ) :   0.9506 B( 33-C , 34-H ) :   0.8989 B( 33-C , 35-H ) :   0.8928
B( 33-C , 36-H ) :   0.9067

Dispersion correction           -0.030024138
FINAL SINGLE POINT ENERGY     -1288.279155660027
Dispersion correction            ... done

DIPOLE MOMENT
-------------
                                X             Y             Z
Electronic contribution:     28.61948     -76.83955      95.57911
Nuclear contribution   :    -28.89525      76.06106     -95.90140
                        -----------------------------------------
Total Dipole Moment    :     -0.27577      -0.77848      -0.32229
                        -----------------------------------------
Magnitude (a.u.)       :      0.88654
Magnitude (Debye)      :      2.25341

Rotational constants in cm-1:     0.010481     0.007923     0.007466
Rotational constants in MHz :   314.199202   237.530744   223.834916

                             ****ORCA TERMINATED NORMALLY****
TOTAL RUN TIME: 0 days 0 hours 22 minutes 5 seconds 862 msec
