                         Program Version 5.0.3 -  RELEASE  -
|  1> ! EnGrad PBEh-3c
|  2> %output
|  3> xyzfile=True
|  4> end
|  5> %scf
|  6> maxiter 250
|  7> end
|  8> %output
|  9> Print[P_Hirshfeld] = 1
| 10> end
| 11> % maxcore
| 12> 4000
| 13> *xyz 1 1
| 14> Ir   0.54712178  -0.74219947   0.65358156
| 15> C   -0.02761468  -2.85650051   1.28268084
| 16> C    0.30819314  -2.13232666   2.42044812
| 17> C    2.12316948  -2.14383744   1.00411768
| 18> C    1.02495142  -2.85208360   0.34503929
| 19> C    1.73639916  -1.73783196   2.25223062
| 20> N   -1.06935768  -0.08786977  -0.47712510
| 21> C   -2.48947258  -0.07849944   0.03432865
| 22> C   -2.84659951   1.25093416   0.67645999
| 23> H   -3.88506509   1.21601328   1.01933940
| 24> H   -2.75889536   2.06961431  -0.03653450
| 25> H   -2.25599765   1.43696221   1.54923132
| 26> C   -3.50047177  -0.46206485  -1.03980491
| 27> H   -2.50404164  -0.83379652   0.79047912
| 28> H   -4.47548159  -0.60605721  -0.53761148
| 29> H   -3.66623764   0.31584800  -1.77455491
| 30> H   -3.25379417  -1.38871716  -1.52222904
| 31> C   -0.83532344   0.25253191  -1.70507777
| 32> C    0.47617294   0.19506054  -2.29911432
| 33> H   -1.63448958   0.53089965  -2.34071762
| 34> C    1.64672780  -0.05533594  -1.50723442
| 35> C    2.76379321  -0.14500797  -2.47537890
| 36> S    0.73556281   0.27134496  -3.99263353
| 37> C    2.40650622   0.02585775  -3.79604585
| 38> H    2.16949872   1.19434014  -0.73985343
| 39> H    3.78813241  -0.23664307  -2.17616721
| 40> H    3.06436880  -0.03611363  -4.64465328
| 41> H   -0.85524253  -3.54420319   1.22283532
| 42> H   -0.23888792  -2.04074736   3.34813748
| 43> H    2.32413790  -1.34698762   3.02398432
| 44> O    2.01408200   2.03944950   0.36423332
| 45> O    0.26928854   1.11467823   1.57450484
| 46> C    1.12999972   2.11026200   1.18259915
| 47> C    0.88618470   3.46953293   1.93636139
| 48> H    0.87573127   4.25622914   1.18829694
| 49> H    1.77461557   3.64317670   2.56130155
| 50> H    0.01095479   3.49991540   2.54893471
| 51> H    3.13575811  -2.12212626   0.62169260
| 52> H    1.08520890  -3.44333598  -0.53467343
| 53> *
| 54>
| 55>                          ****END OF INPUT****

CARTESIAN COORDINATES (ANGSTROEM)
---------------------------------
  Ir     0.547122   -0.742199    0.653582
  C     -0.027615   -2.856501    1.282681
  C      0.308193   -2.132327    2.420448
  C      2.123169   -2.143837    1.004118
  C      1.024951   -2.852084    0.345039
  C      1.736399   -1.737832    2.252231
  N     -1.069358   -0.087870   -0.477125
  C     -2.489473   -0.078499    0.034329
  C     -2.846600    1.250934    0.676460
  H     -3.885065    1.216013    1.019339
  H     -2.758895    2.069614   -0.036534
  H     -2.255998    1.436962    1.549231
  C     -3.500472   -0.462065   -1.039805
  H     -2.504042   -0.833797    0.790479
  H     -4.475482   -0.606057   -0.537611
  H     -3.666238    0.315848   -1.774555
  H     -3.253794   -1.388717   -1.522229
  C     -0.835323    0.252532   -1.705078
  C      0.476173    0.195061   -2.299114
  H     -1.634490    0.530900   -2.340718
  C      1.646728   -0.055336   -1.507234
  C      2.763793   -0.145008   -2.475379
  S      0.735563    0.271345   -3.992634
  C      2.406506    0.025858   -3.796046
  H      2.169499    1.194340   -0.739853
  H      3.788132   -0.236643   -2.176167
  H      3.064369   -0.036114   -4.644653
  H     -0.855243   -3.544203    1.222835
  H     -0.238888   -2.040747    3.348137
  H      2.324138   -1.346988    3.023984
  O      2.014082    2.039449    0.364233
  O      0.269289    1.114678    1.574505
  C      1.130000    2.110262    1.182599
  C      0.886185    3.469533    1.936361
  H      0.875731    4.256229    1.188297
  H      1.774616    3.643177    2.561302
  H      0.010955    3.499915    2.548935
  H      3.135758   -2.122126    0.621693
  H      1.085209   -3.443336   -0.534673

 Total Charge           Charge          ....    1
 Multiplicity           Mult            ....    1
 Number of Electrons    NEL             ....  164
 Basis Dimension        Dim             ....  358

ORBITAL ENERGIES
----------------

  NO   OCC          E(Eh)            E(eV)
   0   2.0000     -89.763084     -2442.5777
   1   2.0000     -19.642687      -534.5047
   2   2.0000     -19.626515      -534.0646
   3   2.0000     -14.829471      -403.5304
   4   2.0000     -10.710400      -291.4448
   5   2.0000     -10.647322      -289.7284
   6   2.0000     -10.624785      -289.1151
   7   2.0000     -10.624574      -289.1094
   8   2.0000     -10.619879      -288.9816
   9   2.0000     -10.615831      -288.8714
  10   2.0000     -10.611374      -288.7502
  11   2.0000     -10.608448      -288.6705
  12   2.0000     -10.607565      -288.6465
  13   2.0000     -10.605569      -288.5922
  14   2.0000     -10.603018      -288.5228
  15   2.0000     -10.593147      -288.2542
  16   2.0000     -10.547901      -287.0230
  17   2.0000     -10.545965      -286.9703
  18   2.0000     -10.534671      -286.6630
  19   2.0000      -8.402258      -228.6371
  20   2.0000      -6.292009      -171.2143
  21   2.0000      -6.288534      -171.1197
  22   2.0000      -6.287452      -171.0903
  23   2.0000      -4.012705      -109.1913
  24   2.0000      -2.328880       -63.3720
  25   2.0000      -2.297034       -62.5055
  26   2.0000      -2.295527       -62.4645
  27   2.0000      -1.325466       -36.0678
  28   2.0000      -1.202104       -32.7109
  29   2.0000      -1.186404       -32.2837
  30   2.0000      -1.154569       -31.4174
  31   2.0000      -1.112985       -30.2859
  32   2.0000      -1.011780       -27.5319
  33   2.0000      -0.976527       -26.5727
  34   2.0000      -0.959094       -26.0983
  35   2.0000      -0.952910       -25.9300
  36   2.0000      -0.947071       -25.7711
  37   2.0000      -0.925035       -25.1715
  38   2.0000      -0.891064       -24.2471
  39   2.0000      -0.860553       -23.4168
  40   2.0000      -0.791601       -21.5406
  41   2.0000      -0.775303       -21.0971
  42   2.0000      -0.771037       -20.9810
  43   2.0000      -0.770836       -20.9755
  44   2.0000      -0.766863       -20.8674
  45   2.0000      -0.759481       -20.6665
  46   2.0000      -0.729228       -19.8433
  47   2.0000      -0.703988       -19.1565
  48   2.0000      -0.684042       -18.6137
  49   2.0000      -0.675538       -18.3823
  50   2.0000      -0.653831       -17.7916
  51   2.0000      -0.650682       -17.7060
  52   2.0000      -0.641449       -17.4547
  53   2.0000      -0.638795       -17.3825
  54   2.0000      -0.626518       -17.0484
  55   2.0000      -0.623879       -16.9766
  56   2.0000      -0.614460       -16.7203
  57   2.0000      -0.598910       -16.2972
  58   2.0000      -0.596444       -16.2301
  59   2.0000      -0.589582       -16.0433
  60   2.0000      -0.588120       -16.0036
  61   2.0000      -0.581840       -15.8327
  62   2.0000      -0.570781       -15.5317
  63   2.0000      -0.563723       -15.3397
  64   2.0000      -0.551722       -15.0131
  65   2.0000      -0.551002       -14.9935
  66   2.0000      -0.545986       -14.8570
  67   2.0000      -0.538610       -14.6563
  68   2.0000      -0.531463       -14.4618
  69   2.0000      -0.519025       -14.1234
  70   2.0000      -0.516592       -14.0572
  71   2.0000      -0.509667       -13.8687
  72   2.0000      -0.507096       -13.7988
  73   2.0000      -0.491096       -13.3634
  74   2.0000      -0.488898       -13.3036
  75   2.0000      -0.463558       -12.6140
  76   2.0000      -0.460437       -12.5291
  77   2.0000      -0.442509       -12.0413
  78   2.0000      -0.434062       -11.8114
  79   2.0000      -0.415637       -11.3101
  80   2.0000      -0.411385       -11.1944
  81   2.0000      -0.392959       -10.6930
  82   0.0000      -0.209467        -5.6999
  83   0.0000      -0.166567        -4.5325
  84   0.0000      -0.143111        -3.8943
  85   0.0000      -0.085979        -2.3396
  86   0.0000      -0.083602        -2.2749

MULLIKEN ATOMIC CHARGES
-----------------------
   0 Ir:    0.624626
   1 C :   -0.194984
   2 C :   -0.266669
   3 C :   -0.234710
   4 C :   -0.277522
   5 C :   -0.176496
   6 N :   -0.468293
   7 C :   -0.112158
   8 C :   -0.635423
   9 H :    0.243200
  10 H :    0.222603
  11 H :    0.276508
  12 C :   -0.686540
  13 H :    0.258584
  14 H :    0.262809
  15 H :    0.231582
  16 H :    0.252245
  17 C :    0.101379
  18 C :   -0.164928
  19 H :    0.272202
  20 C :   -0.417167
  21 C :   -0.175811
  22 S :    0.348723
  23 C :   -0.402507
  24 H :    0.446421
  25 H :    0.266586
  26 H :    0.298996
  27 H :    0.280894
  28 H :    0.282799
  29 H :    0.279230
  30 O :   -0.456558
  31 O :   -0.546475
  32 C :    0.636397
  33 C :   -0.725804
  34 H :    0.263983
  35 H :    0.266803
  36 H :    0.271783
  37 H :    0.278868
  38 H :    0.274823
Sum of atomic charges:    1.0000000

LOEWDIN ATOMIC CHARGES
----------------------
   0 Ir:   -0.240167
   1 C :   -0.025471
   2 C :   -0.063801
   3 C :   -0.041141
   4 C :   -0.094618
   5 C :   -0.055672
   6 N :   -0.016444
   7 C :   -0.054174
   8 C :   -0.350944
   9 H :    0.144767
  10 H :    0.135565
  11 H :    0.152175
  12 C :   -0.364245
  13 H :    0.143846
  14 H :    0.155241
  15 H :    0.134590
  16 H :    0.140459
  17 C :    0.025452
  18 C :   -0.207707
  19 H :    0.151706
  20 C :   -0.223411
  21 C :   -0.149510
  22 S :    0.495661
  23 C :   -0.272359
  24 H :    0.393247
  25 H :    0.156312
  26 H :    0.170731
  27 H :    0.179664
  28 H :    0.182159
  29 H :    0.179157
  30 O :   -0.213937
  31 O :   -0.249423
  32 C :    0.212400
  33 C :   -0.371747
  34 H :    0.160495
  35 H :    0.166321
  36 H :    0.155120
  37 H :    0.181367
  38 H :    0.178337

  Mayer bond orders larger than 0.100000
B(  0-Ir,  1-C ) :   0.3394 B(  0-Ir,  2-C ) :   0.4532 B(  0-Ir,  3-C ) :   0.4466
B(  0-Ir,  4-C ) :   0.4643 B(  0-Ir,  5-C ) :   0.4160 B(  0-Ir,  6-N ) :   0.5014
B(  0-Ir, 20-C ) :   0.4029 B(  0-Ir, 31-O ) :   0.5767 B(  1-C ,  2-C ) :   1.2181
B(  1-C ,  4-C ) :   1.2245 B(  1-C , 27-H ) :   0.9177 B(  2-C ,  5-C ) :   1.1168
B(  2-C , 28-H ) :   0.9160 B(  3-C ,  4-C ) :   1.1090 B(  3-C ,  5-C ) :   1.2405
B(  3-C , 37-H ) :   0.9173 B(  4-C , 38-H ) :   0.9221 B(  5-C , 29-H ) :   0.9197
B(  6-N ,  7-C ) :   0.8754 B(  6-N , 17-C ) :   1.6252 B(  7-C ,  8-C ) :   0.9822
B(  7-C , 12-C ) :   0.9932 B(  7-C , 13-H ) :   0.8914 B(  8-C ,  9-H ) :   0.9070
B(  8-C , 10-H ) :   0.9202 B(  8-C , 11-H ) :   0.8972 B( 12-C , 14-H ) :   0.9065
B( 12-C , 15-H ) :   0.9115 B( 12-C , 16-H ) :   0.9125 B( 17-C , 18-C ) :   1.1202
B( 17-C , 19-H ) :   0.8805 B( 18-C , 20-C ) :   1.2413 B( 18-C , 22-S ) :   1.2217
B( 20-C , 21-C ) :   1.2690 B( 20-C , 24-H ) :   0.3797 B( 21-C , 23-C ) :   1.5250
B( 21-C , 25-H ) :   0.9004 B( 22-S , 23-C ) :   1.2309 B( 23-C , 26-H ) :   0.8881
B( 24-H , 30-O ) :   0.2842 B( 30-O , 32-C ) :   1.6244 B( 31-O , 32-C ) :   1.2725
B( 32-C , 33-C ) :   0.9371 B( 33-C , 34-H ) :   0.9005 B( 33-C , 35-H ) :   0.8985
B( 33-C , 36-H ) :   0.9027

Dispersion correction           -0.029857223
FINAL SINGLE POINT ENERGY     -1288.304415249748
Dispersion correction            ... done

DIPOLE MOMENT
-------------
                                X             Y             Z
Electronic contribution:     32.09691     -73.46284      92.17685
Nuclear contribution   :    -32.36312      72.92060     -92.63273
                        -----------------------------------------
Total Dipole Moment    :     -0.26620      -0.54224      -0.45588
                        -----------------------------------------
Magnitude (a.u.)       :      0.75678
Magnitude (Debye)      :      1.92358

Rotational constants in cm-1:     0.010441     0.007951     0.007469
Rotational constants in MHz :   313.012356   238.364125   223.901240

                             ****ORCA TERMINATED NORMALLY****
TOTAL RUN TIME: 0 days 0 hours 23 minutes 38 seconds 403 msec
