                         Program Version 5.0.3 -  RELEASE  -
|  1> ! EnGrad PBEh-3c
|  2> %output
|  3> xyzfile=True
|  4> end
|  5> %scf
|  6> maxiter 250
|  7> end
|  8> %output
|  9> Print[P_Hirshfeld] = 1
| 10> end
| 11> % maxcore
| 12> 4000
| 13> *xyz 1 1
| 14> Ir   0.54576317  -0.74549053   0.65524572
| 15> C   -0.03016802  -2.86012711   1.27868660
| 16> C    0.32357536  -2.12426254   2.42455130
| 17> C    2.12484918  -2.14941775   0.98990026
| 18> C    1.02900186  -2.84612290   0.35246908
| 19> C    1.71682431  -1.74215815   2.25416696
| 20> N   -1.06869926  -0.08631370  -0.47991001
| 21> C   -2.48400475  -0.07492495   0.02796378
| 22> C   -2.85008458   1.24971188   0.67310277
| 23> H   -3.88464739   1.21736862   1.01828578
| 24> H   -2.75888510   2.07003464  -0.03802791
| 25> H   -2.25464150   1.43940705   1.55021132
| 26> C   -3.50445641  -0.46100608  -1.03306681
| 27> H   -2.50431916  -0.83547065   0.79382081
| 28> H   -4.47293110  -0.60632419  -0.53955355
| 29> H   -3.66568586   0.31572071  -1.77611906
| 30> H   -3.25215935  -1.39191776  -1.52305030
| 31> C   -0.83079206   0.24855291  -1.69871860
| 32> C    0.48047297   0.19623900  -2.28981436
| 33> H   -1.63831331   0.53285555  -2.34380612
| 34> C    1.64447143  -0.05068771  -1.52318145
| 35> C    2.75626993  -0.14319004  -2.47156191
| 36> S    0.73675054   0.26923163  -3.98904795
| 37> C    2.40728756   0.02476942  -3.79036390
| 38> H    2.16635699   1.18953836  -0.73955228
| 39> H    3.79080185  -0.23600574  -2.17709913
| 40> H    3.06442721  -0.03637196  -4.64590101
| 41> H   -0.85734938  -3.54274892   1.22465848
| 42> H   -0.23730157  -2.04020177   3.34835953
| 43> H    2.33075390  -1.34398413   3.02666728
| 44> O    2.02122760   2.03501602   0.35729868
| 45> O    0.29188613   1.13083284   1.56240198
| 46> C    1.09517682   2.10652954   1.20812540
| 47> C    0.89575788   3.46141001   1.93123678
| 48> H    0.87511171   4.25658599   1.18867111
| 49> H    1.77249616   3.64345964   2.56179708
| 50> H    0.00775380   3.49836855   2.55043578
| 51> H    3.13427686  -2.12323616   0.61963012
| 52> H    1.08272375  -3.44541345  -0.53749379
| 53> *
| 54>
| 55>                          ****END OF INPUT****

CARTESIAN COORDINATES (ANGSTROEM)
---------------------------------
  Ir     0.545763   -0.745491    0.655246
  C     -0.030168   -2.860127    1.278687
  C      0.323575   -2.124263    2.424551
  C      2.124849   -2.149418    0.989900
  C      1.029002   -2.846123    0.352469
  C      1.716824   -1.742158    2.254167
  N     -1.068699   -0.086314   -0.479910
  C     -2.484005   -0.074925    0.027964
  C     -2.850085    1.249712    0.673103
  H     -3.884647    1.217369    1.018286
  H     -2.758885    2.070035   -0.038028
  H     -2.254641    1.439407    1.550211
  C     -3.504456   -0.461006   -1.033067
  H     -2.504319   -0.835471    0.793821
  H     -4.472931   -0.606324   -0.539554
  H     -3.665686    0.315721   -1.776119
  H     -3.252159   -1.391918   -1.523050
  C     -0.830792    0.248553   -1.698719
  C      0.480473    0.196239   -2.289814
  H     -1.638313    0.532856   -2.343806
  C      1.644471   -0.050688   -1.523181
  C      2.756270   -0.143190   -2.471562
  S      0.736751    0.269232   -3.989048
  C      2.407288    0.024769   -3.790364
  H      2.166357    1.189538   -0.739552
  H      3.790802   -0.236006   -2.177099
  H      3.064427   -0.036372   -4.645901
  H     -0.857349   -3.542749    1.224658
  H     -0.237302   -2.040202    3.348360
  H      2.330754   -1.343984    3.026667
  O      2.021228    2.035016    0.357299
  O      0.291886    1.130833    1.562402
  C      1.095177    2.106530    1.208125
  C      0.895758    3.461410    1.931237
  H      0.875112    4.256586    1.188671
  H      1.772496    3.643460    2.561797
  H      0.007754    3.498369    2.550436
  H      3.134277   -2.123236    0.619630
  H      1.082724   -3.445413   -0.537494

 Total Charge           Charge          ....    1
 Multiplicity           Mult            ....    1
 Number of Electrons    NEL             ....  164
 Basis Dimension        Dim             ....  358

ORBITAL ENERGIES
----------------

  NO   OCC          E(Eh)            E(eV)
   0   2.0000     -89.759416     -2442.4779
   1   2.0000     -19.635037      -534.2965
   2   2.0000     -19.628756      -534.1256
   3   2.0000     -14.828763      -403.5112
   4   2.0000     -10.709161      -291.4111
   5   2.0000     -10.647870      -289.7433
   6   2.0000     -10.627865      -289.1989
   7   2.0000     -10.621494      -289.0255
   8   2.0000     -10.620628      -289.0020
   9   2.0000     -10.618392      -288.9411
  10   2.0000     -10.614388      -288.8322
  11   2.0000     -10.608827      -288.6809
  12   2.0000     -10.608786      -288.6797
  13   2.0000     -10.606874      -288.6277
  14   2.0000     -10.597652      -288.3768
  15   2.0000     -10.589840      -288.1642
  16   2.0000     -10.548478      -287.0387
  17   2.0000     -10.546550      -286.9862
  18   2.0000     -10.536470      -286.7119
  19   2.0000      -8.398653      -228.5390
  20   2.0000      -6.288410      -171.1163
  21   2.0000      -6.284955      -171.0223
  22   2.0000      -6.283809      -170.9911
  23   2.0000      -4.015410      -109.2649
  24   2.0000      -2.332175       -63.4617
  25   2.0000      -2.300077       -62.5883
  26   2.0000      -2.297598       -62.5208
  27   2.0000      -1.305163       -35.5153
  28   2.0000      -1.215734       -33.0818
  29   2.0000      -1.190954       -32.4075
  30   2.0000      -1.159436       -31.5499
  31   2.0000      -1.113497       -30.2998
  32   2.0000      -1.012827       -27.5604
  33   2.0000      -0.974645       -26.5214
  34   2.0000      -0.960094       -26.1255
  35   2.0000      -0.958135       -26.0722
  36   2.0000      -0.947774       -25.7902
  37   2.0000      -0.928892       -25.2764
  38   2.0000      -0.891347       -24.2548
  39   2.0000      -0.860253       -23.4087
  40   2.0000      -0.791083       -21.5265
  41   2.0000      -0.775906       -21.1135
  42   2.0000      -0.774155       -21.0658
  43   2.0000      -0.769598       -20.9418
  44   2.0000      -0.761372       -20.7180
  45   2.0000      -0.760952       -20.7066
  46   2.0000      -0.728908       -19.8346
  47   2.0000      -0.707317       -19.2471
  48   2.0000      -0.684214       -18.6184
  49   2.0000      -0.674968       -18.3668
  50   2.0000      -0.653078       -17.7711
  51   2.0000      -0.648105       -17.6358
  52   2.0000      -0.640735       -17.4353
  53   2.0000      -0.636355       -17.3161
  54   2.0000      -0.626675       -17.0527
  55   2.0000      -0.625560       -17.0224
  56   2.0000      -0.615215       -16.7409
  57   2.0000      -0.599161       -16.3040
  58   2.0000      -0.598294       -16.2804
  59   2.0000      -0.594010       -16.1638
  60   2.0000      -0.589398       -16.0383
  61   2.0000      -0.581562       -15.8251
  62   2.0000      -0.568363       -15.4659
  63   2.0000      -0.564512       -15.3612
  64   2.0000      -0.552929       -15.0460
  65   2.0000      -0.550784       -14.9876
  66   2.0000      -0.544099       -14.8057
  67   2.0000      -0.539185       -14.6720
  68   2.0000      -0.532949       -14.5023
  69   2.0000      -0.521213       -14.1829
  70   2.0000      -0.515480       -14.0269
  71   2.0000      -0.509737       -13.8707
  72   2.0000      -0.507136       -13.7999
  73   2.0000      -0.492759       -13.4087
  74   2.0000      -0.489451       -13.3186
  75   2.0000      -0.466011       -12.6808
  76   2.0000      -0.460554       -12.5323
  77   2.0000      -0.440726       -11.9928
  78   2.0000      -0.438788       -11.9400
  79   2.0000      -0.418110       -11.3773
  80   2.0000      -0.410452       -11.1690
  81   2.0000      -0.393865       -10.7176
  82   0.0000      -0.207241        -5.6393
  83   0.0000      -0.167382        -4.5547
  84   0.0000      -0.148702        -4.0464
  85   0.0000      -0.084344        -2.2951
  86   0.0000      -0.081940        -2.2297

MULLIKEN ATOMIC CHARGES
-----------------------
   0 Ir:    0.624456
   1 C :   -0.198131
   2 C :   -0.263481
   3 C :   -0.228858
   4 C :   -0.276379
   5 C :   -0.183082
   6 N :   -0.469754
   7 C :   -0.113088
   8 C :   -0.635334
   9 H :    0.245851
  10 H :    0.223552
  11 H :    0.271294
  12 C :   -0.684383
  13 H :    0.255902
  14 H :    0.265604
  15 H :    0.230000
  16 H :    0.249601
  17 C :    0.100207
  18 C :   -0.158541
  19 H :    0.271664
  20 C :   -0.411303
  21 C :   -0.180275
  22 S :    0.339921
  23 C :   -0.401252
  24 H :    0.451162
  25 H :    0.265501
  26 H :    0.298643
  27 H :    0.282308
  28 H :    0.284435
  29 H :    0.282465
  30 O :   -0.513890
  31 O :   -0.516446
  32 C :    0.656572
  33 C :   -0.731008
  34 H :    0.269140
  35 H :    0.272999
  36 H :    0.264814
  37 H :    0.281319
  38 H :    0.277794
Sum of atomic charges:    1.0000000

LOEWDIN ATOMIC CHARGES
----------------------
   0 Ir:   -0.232191
   1 C :   -0.022697
   2 C :   -0.064914
   3 C :   -0.038443
   4 C :   -0.090704
   5 C :   -0.056424
   6 N :   -0.019566
   7 C :   -0.056142
   8 C :   -0.351403
   9 H :    0.145653
  10 H :    0.135786
  11 H :    0.150523
  12 C :   -0.363747
  13 H :    0.143181
  14 H :    0.155299
  15 H :    0.134150
  16 H :    0.140096
  17 C :    0.027689
  18 C :   -0.210576
  19 H :    0.152292
  20 C :   -0.222347
  21 C :   -0.153147
  22 S :    0.487806
  23 C :   -0.269181
  24 H :    0.394311
  25 H :    0.156704
  26 H :    0.170850
  27 H :    0.180307
  28 H :    0.182749
  29 H :    0.181439
  30 O :   -0.275653
  31 O :   -0.204022
  32 C :    0.213617
  33 C :   -0.371290
  34 H :    0.163863
  35 H :    0.169143
  36 H :    0.154249
  37 H :    0.182669
  38 H :    0.180071

  Mayer bond orders larger than 0.100000
B(  0-Ir,  1-C ) :   0.3535 B(  0-Ir,  2-C ) :   0.4508 B(  0-Ir,  3-C ) :   0.4530
B(  0-Ir,  4-C ) :   0.4694 B(  0-Ir,  5-C ) :   0.4197 B(  0-Ir,  6-N ) :   0.4973
B(  0-Ir, 20-C ) :   0.4073 B(  0-Ir, 31-O ) :   0.5371 B(  1-C ,  2-C ) :   1.2116
B(  1-C ,  4-C ) :   1.2204 B(  1-C , 27-H ) :   0.9180 B(  2-C ,  5-C ) :   1.1239
B(  2-C , 28-H ) :   0.9148 B(  3-C ,  4-C ) :   1.1094 B(  3-C ,  5-C ) :   1.2315
B(  3-C , 37-H ) :   0.9172 B(  4-C , 38-H ) :   0.9202 B(  5-C , 29-H ) :   0.9170
B(  6-N ,  7-C ) :   0.8789 B(  6-N , 17-C ) :   1.6270 B(  7-C ,  8-C ) :   0.9810
B(  7-C , 12-C ) :   0.9924 B(  7-C , 13-H ) :   0.8920 B(  8-C ,  9-H ) :   0.9066
B(  8-C , 10-H ) :   0.9195 B(  8-C , 11-H ) :   0.9001 B( 12-C , 14-H ) :   0.9052
B( 12-C , 15-H ) :   0.9118 B( 12-C , 16-H ) :   0.9138 B( 17-C , 18-C ) :   1.1159
B( 17-C , 19-H ) :   0.8801 B( 18-C , 20-C ) :   1.2543 B( 18-C , 22-S ) :   1.2114
B( 20-C , 21-C ) :   1.2804 B( 20-C , 24-H ) :   0.3508 B( 21-C , 23-C ) :   1.5202
B( 21-C , 25-H ) :   0.9007 B( 22-S , 23-C ) :   1.2366 B( 23-C , 26-H ) :   0.8878
B( 24-H , 30-O ) :   0.3178 B( 30-O , 32-C ) :   1.5210 B( 31-O , 32-C ) :   1.3620
B( 32-C , 33-C ) :   0.9417 B( 33-C , 34-H ) :   0.8990 B( 33-C , 35-H ) :   0.8954
B( 33-C , 36-H ) :   0.9046

Dispersion correction           -0.029847506
FINAL SINGLE POINT ENERGY     -1288.323970189240
Dispersion correction            ... done

DIPOLE MOMENT
-------------
                                X             Y             Z
Electronic contribution:     31.80950     -73.90724      92.48958
Nuclear contribution   :    -32.18430      73.25354     -92.78895
                        -----------------------------------------
Total Dipole Moment    :     -0.37480      -0.65370      -0.29938
                        -----------------------------------------
Magnitude (a.u.)       :      0.81082
Magnitude (Debye)      :      2.06094

Rotational constants in cm-1:     0.010450     0.007960     0.007476
Rotational constants in MHz :   313.291075   238.634557   224.136279

                             ****ORCA TERMINATED NORMALLY****
TOTAL RUN TIME: 0 days 0 hours 21 minutes 13 seconds 154 msec
