                         Program Version 5.0.3 -  RELEASE  -
|  1> ! EnGrad PBEh-3c
|  2> %output
|  3> xyzfile=True
|  4> end
|  5> %scf
|  6> maxiter 250
|  7> end
|  8> %output
|  9> Print[P_Hirshfeld] = 1
| 10> end
| 11> % maxcore
| 12> 4000
| 13> *xyz 1 1
| 14> Ir   0.55216968  -0.74411330   0.64962488
| 15> C   -0.02995912  -2.86521279   1.28244369
| 16> C    0.33315216  -2.12029910   2.42541202
| 17> C    2.12716176  -2.16166047   0.98674236
| 18> C    1.02791793  -2.84576058   0.35485953
| 19> C    1.71358906  -1.74284083   2.25285169
| 20> N   -1.06929318  -0.08765348  -0.48370037
| 21> C   -2.48336597  -0.07282872   0.02679655
| 22> C   -2.85128974   1.25237273   0.67108257
| 23> H   -3.88551515   1.21841420   1.01321982
| 24> H   -2.75922106   2.07166124  -0.04136216
| 25> H   -2.25194675   1.44610536   1.54837994
| 26> C   -3.50520248  -0.46225017  -1.03117128
| 27> H   -2.50290364  -0.83568917   0.79730691
| 28> H   -4.46981466  -0.60699365  -0.53968342
| 29> H   -3.66451291   0.31346505  -1.77838316
| 30> H   -3.24986654  -1.39555398  -1.52307692
| 31> C   -0.82934023   0.24848210  -1.69941777
| 32> C    0.48564507   0.19209295  -2.28306827
| 33> H   -1.64268175   0.53479204  -2.34498941
| 34> C    1.64691282  -0.03273003  -1.51723748
| 35> C    2.75247874  -0.14254135  -2.46759835
| 36> S    0.73496363   0.26844304  -3.98684080
| 37> C    2.40632811   0.02168184  -3.78768627
| 38> H    2.14607659   1.18088451  -0.71969492
| 39> H    3.79225557  -0.23533645  -2.17763827
| 40> H    3.06375122  -0.03561230  -4.64747070
| 41> H   -0.86620233  -3.53557765   1.22618577
| 42> H   -0.23202090  -2.03754669   3.34940336
| 43> H    2.33911093  -1.33820564   3.02432628
| 44> O    2.02439056   2.03418529   0.34613492
| 45> O    0.30125784   1.13832607   1.55674033
| 46> C    1.08924602   2.09462568   1.21371195
| 47> C    0.89906324   3.45357926   1.92901296
| 48> H    0.87420046   4.25584750   1.19027522
| 49> H    1.77003149   3.64222809   2.56313723
| 50> H    0.00483203   3.49763918   2.55231829
| 51> H    3.13221469  -2.12193052   0.61146248
| 52> H    1.07584875  -3.44432141  -0.54073291
| 53> *
| 54>
| 55>                          ****END OF INPUT****

CARTESIAN COORDINATES (ANGSTROEM)
---------------------------------
  Ir     0.552170   -0.744113    0.649625
  C     -0.029959   -2.865213    1.282444
  C      0.333152   -2.120299    2.425412
  C      2.127162   -2.161660    0.986742
  C      1.027918   -2.845761    0.354860
  C      1.713589   -1.742841    2.252852
  N     -1.069293   -0.087653   -0.483700
  C     -2.483366   -0.072829    0.026797
  C     -2.851290    1.252373    0.671083
  H     -3.885515    1.218414    1.013220
  H     -2.759221    2.071661   -0.041362
  H     -2.251947    1.446105    1.548380
  C     -3.505202   -0.462250   -1.031171
  H     -2.502904   -0.835689    0.797307
  H     -4.469815   -0.606994   -0.539683
  H     -3.664513    0.313465   -1.778383
  H     -3.249867   -1.395554   -1.523077
  C     -0.829340    0.248482   -1.699418
  C      0.485645    0.192093   -2.283068
  H     -1.642682    0.534792   -2.344989
  C      1.646913   -0.032730   -1.517237
  C      2.752479   -0.142541   -2.467598
  S      0.734964    0.268443   -3.986841
  C      2.406328    0.021682   -3.787686
  H      2.146077    1.180885   -0.719695
  H      3.792256   -0.235336   -2.177638
  H      3.063751   -0.035612   -4.647471
  H     -0.866202   -3.535578    1.226186
  H     -0.232021   -2.037547    3.349403
  H      2.339111   -1.338206    3.024326
  O      2.024391    2.034185    0.346135
  O      0.301258    1.138326    1.556740
  C      1.089246    2.094626    1.213712
  C      0.899063    3.453579    1.929013
  H      0.874200    4.255847    1.190275
  H      1.770031    3.642228    2.563137
  H      0.004832    3.497639    2.552318
  H      3.132215   -2.121931    0.611462
  H      1.075849   -3.444321   -0.540733

 Total Charge           Charge          ....    1
 Multiplicity           Mult            ....    1
 Number of Electrons    NEL             ....  164
 Basis Dimension        Dim             ....  358

ORBITAL ENERGIES
----------------

  NO   OCC          E(Eh)            E(eV)
   0   2.0000     -89.757706     -2442.4313
   1   2.0000     -19.639869      -534.4280
   2   2.0000     -19.625596      -534.0396
   3   2.0000     -14.828775      -403.5115
   4   2.0000     -10.709167      -291.4112
   5   2.0000     -10.648236      -289.7532
   6   2.0000     -10.629929      -289.2551
   7   2.0000     -10.622395      -289.0501
   8   2.0000     -10.619715      -288.9771
   9   2.0000     -10.619650      -288.9754
  10   2.0000     -10.615945      -288.8745
  11   2.0000     -10.610249      -288.7195
  12   2.0000     -10.609973      -288.7120
  13   2.0000     -10.606263      -288.6111
  14   2.0000     -10.595641      -288.3221
  15   2.0000     -10.588607      -288.1307
  16   2.0000     -10.548748      -287.0460
  17   2.0000     -10.547213      -287.0043
  18   2.0000     -10.537782      -286.7476
  19   2.0000      -8.396941      -228.4924
  20   2.0000      -6.286720      -171.0703
  21   2.0000      -6.283268      -170.9764
  22   2.0000      -6.282046      -170.9432
  23   2.0000      -4.016424      -109.2925
  24   2.0000      -2.333185       -63.4892
  25   2.0000      -2.301213       -62.6192
  26   2.0000      -2.298491       -62.5451
  27   2.0000      -1.307601       -35.5816
  28   2.0000      -1.219837       -33.1934
  29   2.0000      -1.192023       -32.4366
  30   2.0000      -1.161543       -31.6072
  31   2.0000      -1.112548       -30.2740
  32   2.0000      -1.013116       -27.5683
  33   2.0000      -0.974309       -26.5123
  34   2.0000      -0.962741       -26.1975
  35   2.0000      -0.956884       -26.0381
  36   2.0000      -0.948005       -25.7965
  37   2.0000      -0.928261       -25.2593
  38   2.0000      -0.891752       -24.2658
  39   2.0000      -0.859788       -23.3960
  40   2.0000      -0.790676       -21.5154
  41   2.0000      -0.776640       -21.1335
  42   2.0000      -0.775428       -21.1005
  43   2.0000      -0.769052       -20.9270
  44   2.0000      -0.761710       -20.7272
  45   2.0000      -0.761559       -20.7231
  46   2.0000      -0.729310       -19.8455
  47   2.0000      -0.709704       -19.3120
  48   2.0000      -0.684324       -18.6214
  49   2.0000      -0.674617       -18.3573
  50   2.0000      -0.653518       -17.7831
  51   2.0000      -0.649020       -17.6607
  52   2.0000      -0.641733       -17.4624
  53   2.0000      -0.636593       -17.3226
  54   2.0000      -0.627606       -17.0780
  55   2.0000      -0.626168       -17.0389
  56   2.0000      -0.615498       -16.7486
  57   2.0000      -0.598909       -16.2971
  58   2.0000      -0.598657       -16.2903
  59   2.0000      -0.596020       -16.2185
  60   2.0000      -0.589267       -16.0348
  61   2.0000      -0.581241       -15.8164
  62   2.0000      -0.566665       -15.4197
  63   2.0000      -0.564457       -15.3597
  64   2.0000      -0.553631       -15.0651
  65   2.0000      -0.551428       -15.0051
  66   2.0000      -0.544065       -14.8048
  67   2.0000      -0.539533       -14.6815
  68   2.0000      -0.533565       -14.5190
  69   2.0000      -0.522446       -14.2165
  70   2.0000      -0.516501       -14.0547
  71   2.0000      -0.510173       -13.8825
  72   2.0000      -0.507470       -13.8090
  73   2.0000      -0.493478       -13.4282
  74   2.0000      -0.489634       -13.3236
  75   2.0000      -0.468048       -12.7362
  76   2.0000      -0.461264       -12.5516
  77   2.0000      -0.442928       -12.0527
  78   2.0000      -0.438769       -11.9395
  79   2.0000      -0.418464       -11.3870
  80   2.0000      -0.410405       -11.1677
  81   2.0000      -0.394373       -10.7314
  82   0.0000      -0.206836        -5.6283
  83   0.0000      -0.167407        -4.5554
  84   0.0000      -0.151520        -4.1231
  85   0.0000      -0.082213        -2.2371
  86   0.0000      -0.081377        -2.2144

MULLIKEN ATOMIC CHARGES
-----------------------
   0 Ir:    0.623187
   1 C :   -0.190043
   2 C :   -0.263739
   3 C :   -0.220554
   4 C :   -0.284786
   5 C :   -0.190462
   6 N :   -0.468650
   7 C :   -0.113182
   8 C :   -0.634675
   9 H :    0.246824
  10 H :    0.224239
  11 H :    0.269058
  12 C :   -0.683371
  13 H :    0.254379
  14 H :    0.266690
  15 H :    0.229548
  16 H :    0.248840
  17 C :    0.097975
  18 C :   -0.156785
  19 H :    0.271760
  20 C :   -0.416461
  21 C :   -0.180448
  22 S :    0.335141
  23 C :   -0.399244
  24 H :    0.456473
  25 H :    0.263783
  26 H :    0.298397
  27 H :    0.283068
  28 H :    0.284998
  29 H :    0.283894
  30 O :   -0.531187
  31 O :   -0.497487
  32 C :    0.657806
  33 C :   -0.733346
  34 H :    0.270394
  35 H :    0.274095
  36 H :    0.261468
  37 H :    0.283380
  38 H :    0.279023
Sum of atomic charges:    1.0000000

LOEWDIN ATOMIC CHARGES
----------------------
   0 Ir:   -0.229258
   1 C :   -0.019470
   2 C :   -0.066328
   3 C :   -0.037081
   4 C :   -0.091426
   5 C :   -0.058173
   6 N :   -0.021225
   7 C :   -0.056339
   8 C :   -0.351351
   9 H :    0.146103
  10 H :    0.136032
  11 H :    0.149932
  12 C :   -0.363523
  13 H :    0.142687
  14 H :    0.155225
  15 H :    0.134078
  16 H :    0.140172
  17 C :    0.028114
  18 C :   -0.208344
  19 H :    0.152622
  20 C :   -0.224129
  21 C :   -0.151717
  22 S :    0.482556
  23 C :   -0.268176
  24 H :    0.390911
  25 H :    0.156400
  26 H :    0.170967
  27 H :    0.180506
  28 H :    0.182991
  29 H :    0.182696
  30 O :   -0.293448
  31 O :   -0.181100
  32 C :    0.210404
  33 C :   -0.372118
  34 H :    0.164398
  35 H :    0.169019
  36 H :    0.153380
  37 H :    0.183259
  38 H :    0.180757

  Mayer bond orders larger than 0.100000
B(  0-Ir,  1-C ) :   0.3522 B(  0-Ir,  2-C ) :   0.4441 B(  0-Ir,  3-C ) :   0.4495
B(  0-Ir,  4-C ) :   0.4713 B(  0-Ir,  5-C ) :   0.4207 B(  0-Ir,  6-N ) :   0.4972
B(  0-Ir, 20-C ) :   0.4083 B(  0-Ir, 31-O ) :   0.5203 B(  1-C ,  2-C ) :   1.2140
B(  1-C ,  4-C ) :   1.2169 B(  1-C , 27-H ) :   0.9173 B(  2-C ,  5-C ) :   1.1261
B(  2-C , 28-H ) :   0.9145 B(  3-C ,  4-C ) :   1.1123 B(  3-C ,  5-C ) :   1.2304
B(  3-C , 37-H ) :   0.9155 B(  4-C , 38-H ) :   0.9196 B(  5-C , 29-H ) :   0.9160
B(  6-N ,  7-C ) :   0.8789 B(  6-N , 17-C ) :   1.6279 B(  7-C ,  8-C ) :   0.9804
B(  7-C , 12-C ) :   0.9918 B(  7-C , 13-H ) :   0.8924 B(  8-C ,  9-H ) :   0.9063
B(  8-C , 10-H ) :   0.9190 B(  8-C , 11-H ) :   0.9014 B( 12-C , 14-H ) :   0.9046
B( 12-C , 15-H ) :   0.9118 B( 12-C , 16-H ) :   0.9143 B( 17-C , 18-C ) :   1.1139
B( 17-C , 19-H ) :   0.8798 B( 18-C , 20-C ) :   1.2614 B( 18-C , 22-S ) :   1.2086
B( 20-C , 21-C ) :   1.2803 B( 20-C , 24-H ) :   0.3402 B( 21-C , 23-C ) :   1.5252
B( 21-C , 25-H ) :   0.9015 B( 22-S , 23-C ) :   1.2329 B( 23-C , 26-H ) :   0.8877
B( 24-H , 30-O ) :   0.3338 B( 30-O , 32-C ) :   1.4827 B( 31-O , 32-C ) :   1.4042
B( 32-C , 33-C ) :   0.9403 B( 33-C , 34-H ) :   0.8988 B( 33-C , 35-H ) :   0.8949
B( 33-C , 36-H ) :   0.9059

Dispersion correction           -0.029762728
FINAL SINGLE POINT ENERGY     -1288.332530508804
Dispersion correction            ... done

DIPOLE MOMENT
-------------
                                X             Y             Z
Electronic contribution:     32.31484     -73.80456      92.02392
Nuclear contribution   :    -32.76100      73.09244     -92.24347
                        -----------------------------------------
Total Dipole Moment    :     -0.44616      -0.71212      -0.21955
                        -----------------------------------------
Magnitude (a.u.)       :      0.86855
Magnitude (Debye)      :      2.20767

Rotational constants in cm-1:     0.010452     0.007977     0.007486
Rotational constants in MHz :   313.355580   239.131633   224.429842

                             ****ORCA TERMINATED NORMALLY****
TOTAL RUN TIME: 0 days 0 hours 20 minutes 29 seconds 753 msec
