                         Program Version 5.0.3 -  RELEASE  -
|  1> ! EnGrad PBEh-3c
|  2> %output
|  3> xyzfile=True
|  4> end
|  5> %scf
|  6> maxiter 250
|  7> end
|  8> %output
|  9> Print[P_Hirshfeld] = 1
| 10> end
| 11> % maxcore
| 12> 4000
| 13> *xyz 1 1
| 14> Ir   0.58799149  -0.74367672   0.61983589
| 15> C   -0.02520052  -2.88181347   1.31164267
| 16> C    0.36744652  -2.10785540   2.43272864
| 17> C    2.13495794  -2.22106026   0.97839517
| 18> C    1.01692650  -2.85574143   0.35452939
| 19> C    1.72705844  -1.74008607   2.24347875
| 20> N   -1.07200885  -0.09463220  -0.49764329
| 21> C   -2.47796394  -0.06655689   0.02516356
| 22> C   -2.85273230   1.26931842   0.65867149
| 23> H   -3.89210656   1.22601892   0.98334263
| 24> H   -2.76192285   2.08169273  -0.06302528
| 25> H   -2.23989512   1.48670130   1.53314475
| 26> C   -3.50223123  -0.47178580  -1.02775406
| 27> H   -2.49422295  -0.83034744   0.81352864
| 28> H   -4.45657530  -0.61222691  -0.53781795
| 29> H   -3.65733421   0.29706998  -1.79024471
| 30> H   -3.23696120  -1.41352300  -1.51939893
| 31> C   -0.82513734   0.24966912  -1.71089554
| 32> C    0.50538165   0.17689967  -2.25010198
| 33> H   -1.66020644   0.54455607  -2.34898718
| 34> C    1.65997348   0.05947061  -1.48765632
| 35> C    2.74378865  -0.13533537  -2.44432994
| 36> S    0.72604248   0.26060772  -3.96849176
| 37> C    2.40133213   0.00350952  -3.77414031
| 38> H    2.02827359   1.13751186  -0.59613916
| 39> H    3.79496001  -0.22941456  -2.18232937
| 40> H    3.05659557  -0.03226442  -4.65164361
| 41> H   -0.91932879  -3.49310027   1.23851007
| 42> H   -0.19480900  -2.02005061   3.35344918
| 43> H    2.38192560  -1.31007217   2.99829254
| 44> O    2.01667244   2.02343451   0.30405169
| 45> O    0.33363558   1.14826230   1.53372753
| 46> C    1.10098917   2.06393113   1.21167435
| 47> C    0.90540593   3.41272441   1.92327874
| 48> H    0.86979527   4.24528986   1.20121841
| 49> H    1.75731755   3.63331111   2.57225951
| 50> H   -0.00332461   3.49135617   2.55736097
| 51> H    3.12220352  -2.11783309   0.55971254
| 52> H    1.03206858  -3.43450812  -0.55434854
| 53> *
| 54>
| 55>                          ****END OF INPUT****

CARTESIAN COORDINATES (ANGSTROEM)
---------------------------------
  Ir     0.587991   -0.743677    0.619836
  C     -0.025201   -2.881813    1.311643
  C      0.367447   -2.107855    2.432729
  C      2.134958   -2.221060    0.978395
  C      1.016927   -2.855741    0.354529
  C      1.727058   -1.740086    2.243479
  N     -1.072009   -0.094632   -0.497643
  C     -2.477964   -0.066557    0.025164
  C     -2.852732    1.269318    0.658671
  H     -3.892107    1.226019    0.983343
  H     -2.761923    2.081693   -0.063025
  H     -2.239895    1.486701    1.533145
  C     -3.502231   -0.471786   -1.027754
  H     -2.494223   -0.830347    0.813529
  H     -4.456575   -0.612227   -0.537818
  H     -3.657334    0.297070   -1.790245
  H     -3.236961   -1.413523   -1.519399
  C     -0.825137    0.249669   -1.710896
  C      0.505382    0.176900   -2.250102
  H     -1.660206    0.544556   -2.348987
  C      1.659973    0.059471   -1.487656
  C      2.743789   -0.135335   -2.444330
  S      0.726042    0.260608   -3.968492
  C      2.401332    0.003510   -3.774140
  H      2.028274    1.137512   -0.596139
  H      3.794960   -0.229415   -2.182329
  H      3.056596   -0.032264   -4.651644
  H     -0.919329   -3.493100    1.238510
  H     -0.194809   -2.020051    3.353449
  H      2.381926   -1.310072    2.998293
  O      2.016672    2.023435    0.304052
  O      0.333636    1.148262    1.533728
  C      1.100989    2.063931    1.211674
  C      0.905406    3.412724    1.923279
  H      0.869795    4.245290    1.201218
  H      1.757318    3.633311    2.572260
  H     -0.003325    3.491356    2.557361
  H      3.122204   -2.117833    0.559713
  H      1.032069   -3.434508   -0.554349

 Total Charge           Charge          ....    1
 Multiplicity           Mult            ....    1
 Number of Electrons    NEL             ....  164
 Basis Dimension        Dim             ....  358

ORBITAL ENERGIES
----------------

  NO   OCC          E(Eh)            E(eV)
   0   2.0000     -89.751617     -2442.2657
   1   2.0000     -19.648078      -534.6514
   2   2.0000     -19.625246      -534.0301
   3   2.0000     -14.828267      -403.4976
   4   2.0000     -10.709382      -291.4171
   5   2.0000     -10.649265      -289.7812
   6   2.0000     -10.637084      -289.4498
   7   2.0000     -10.625086      -289.1233
   8   2.0000     -10.623936      -289.0920
   9   2.0000     -10.620649      -289.0026
  10   2.0000     -10.616958      -288.9021
  11   2.0000     -10.613160      -288.7988
  12   2.0000     -10.613106      -288.7973
  13   2.0000     -10.604890      -288.5737
  14   2.0000     -10.590049      -288.1699
  15   2.0000     -10.584667      -288.0234
  16   2.0000     -10.550663      -287.0981
  17   2.0000     -10.549200      -287.0583
  18   2.0000     -10.541775      -286.8563
  19   2.0000      -8.390912      -228.3283
  20   2.0000      -6.280777      -170.9086
  21   2.0000      -6.277327      -170.8148
  22   2.0000      -6.275819      -170.7737
  23   2.0000      -4.018417      -109.3467
  24   2.0000      -2.334703       -63.5305
  25   2.0000      -2.303217       -62.6737
  26   2.0000      -2.300616       -62.6030
  27   2.0000      -1.329889       -36.1881
  28   2.0000      -1.232458       -33.5369
  29   2.0000      -1.192225       -32.4421
  30   2.0000      -1.164426       -31.6856
  31   2.0000      -1.109200       -30.1829
  32   2.0000      -1.012677       -27.5563
  33   2.0000      -0.972474       -26.4624
  34   2.0000      -0.968682       -26.3592
  35   2.0000      -0.952343       -25.9146
  36   2.0000      -0.949059       -25.8252
  37   2.0000      -0.929546       -25.2942
  38   2.0000      -0.891875       -24.2692
  39   2.0000      -0.858370       -23.3574
  40   2.0000      -0.789379       -21.4801
  41   2.0000      -0.778501       -21.1841
  42   2.0000      -0.777353       -21.1528
  43   2.0000      -0.770943       -20.9784
  44   2.0000      -0.766873       -20.8677
  45   2.0000      -0.762248       -20.7418
  46   2.0000      -0.734702       -19.9923
  47   2.0000      -0.717105       -19.5134
  48   2.0000      -0.683700       -18.6044
  49   2.0000      -0.673692       -18.3321
  50   2.0000      -0.663443       -18.0532
  51   2.0000      -0.649402       -17.6711
  52   2.0000      -0.646928       -17.6038
  53   2.0000      -0.634997       -17.2791
  54   2.0000      -0.630469       -17.1559
  55   2.0000      -0.628555       -17.1039
  56   2.0000      -0.615784       -16.7563
  57   2.0000      -0.601266       -16.3613
  58   2.0000      -0.598331       -16.2814
  59   2.0000      -0.596596       -16.2342
  60   2.0000      -0.588131       -16.0039
  61   2.0000      -0.580864       -15.8061
  62   2.0000      -0.566012       -15.4020
  63   2.0000      -0.561283       -15.2733
  64   2.0000      -0.555993       -15.1293
  65   2.0000      -0.552263       -15.0278
  66   2.0000      -0.550553       -14.9813
  67   2.0000      -0.538697       -14.6587
  68   2.0000      -0.534563       -14.5462
  69   2.0000      -0.525051       -14.2874
  70   2.0000      -0.520628       -14.1670
  71   2.0000      -0.512689       -13.9510
  72   2.0000      -0.507866       -13.8197
  73   2.0000      -0.495203       -13.4752
  74   2.0000      -0.491379       -13.3711
  75   2.0000      -0.472521       -12.8580
  76   2.0000      -0.464078       -12.6282
  77   2.0000      -0.448464       -12.2033
  78   2.0000      -0.439112       -11.9488
  79   2.0000      -0.420185       -11.4338
  80   2.0000      -0.410307       -11.1650
  81   2.0000      -0.394991       -10.7482
  82   0.0000      -0.206636        -5.6229
  83   0.0000      -0.168673        -4.5898
  84   0.0000      -0.155797        -4.2395
  85   0.0000      -0.081365        -2.2141
  86   0.0000      -0.076921        -2.0931

MULLIKEN ATOMIC CHARGES
-----------------------
   0 Ir:    0.612012
   1 C :   -0.157527
   2 C :   -0.260904
   3 C :   -0.189388
   4 C :   -0.323305
   5 C :   -0.221415
   6 N :   -0.460901
   7 C :   -0.112895
   8 C :   -0.631837
   9 H :    0.247604
  10 H :    0.225636
  11 H :    0.263527
  12 C :   -0.680480
  13 H :    0.249325
  14 H :    0.268615
  15 H :    0.228396
  16 H :    0.247183
  17 C :    0.088322
  18 C :   -0.158080
  19 H :    0.273755
  20 C :   -0.424938
  21 C :   -0.184924
  22 S :    0.317329
  23 C :   -0.392221
  24 H :    0.485203
  25 H :    0.258023
  26 H :    0.297763
  27 H :    0.285643
  28 H :    0.286097
  29 H :    0.287310
  30 O :   -0.551130
  31 O :   -0.458284
  32 C :    0.652236
  33 C :   -0.747049
  34 H :    0.272015
  35 H :    0.275964
  36 H :    0.258675
  37 H :    0.291710
  38 H :    0.282936
Sum of atomic charges:    1.0000000

LOEWDIN ATOMIC CHARGES
----------------------
   0 Ir:   -0.222162
   1 C :   -0.008808
   2 C :   -0.068255
   3 C :   -0.033601
   4 C :   -0.099345
   5 C :   -0.064262
   6 N :   -0.026705
   7 C :   -0.057461
   8 C :   -0.350998
   9 H :    0.146866
  10 H :    0.136226
  11 H :    0.148678
  12 C :   -0.362906
  13 H :    0.140878
  14 H :    0.154516
  15 H :    0.133760
  16 H :    0.140445
  17 C :    0.028357
  18 C :   -0.199399
  19 H :    0.154633
  20 C :   -0.223005
  21 C :   -0.145889
  22 S :    0.464421
  23 C :   -0.264857
  24 H :    0.371652
  25 H :    0.154896
  26 H :    0.171248
  27 H :    0.181729
  28 H :    0.182730
  29 H :    0.185766
  30 O :   -0.301866
  31 O :   -0.138123
  32 C :    0.192795
  33 C :   -0.376884
  34 H :    0.165442
  35 H :    0.168378
  36 H :    0.153441
  37 H :    0.185448
  38 H :    0.182221

  Mayer bond orders larger than 0.100000
B(  0-Ir,  1-C ) :   0.3366 B(  0-Ir,  2-C ) :   0.4183 B(  0-Ir,  3-C ) :   0.4327
B(  0-Ir,  4-C ) :   0.4779 B(  0-Ir,  5-C ) :   0.4268 B(  0-Ir,  6-N ) :   0.4951
B(  0-Ir, 20-C ) :   0.4030 B(  0-Ir, 31-O ) :   0.4924 B(  1-C ,  2-C ) :   1.2287
B(  1-C ,  4-C ) :   1.2011 B(  1-C , 27-H ) :   0.9125 B(  2-C ,  5-C ) :   1.1274
B(  2-C , 28-H ) :   0.9152 B(  3-C ,  4-C ) :   1.1232 B(  3-C ,  5-C ) :   1.2289
B(  3-C , 37-H ) :   0.9056 B(  4-C , 38-H ) :   0.9181 B(  5-C , 29-H ) :   0.9142
B(  6-N ,  7-C ) :   0.8813 B(  6-N , 17-C ) :   1.6298 B(  7-C ,  8-C ) :   0.9774
B(  7-C , 12-C ) :   0.9885 B(  7-C , 13-H ) :   0.8940 B(  8-C ,  9-H ) :   0.9060
B(  8-C , 10-H ) :   0.9177 B(  8-C , 11-H ) :   0.9049 B( 12-C , 14-H ) :   0.9035
B( 12-C , 15-H ) :   0.9115 B( 12-C , 16-H ) :   0.9152 B( 17-C , 18-C ) :   1.1086
B( 17-C , 19-H ) :   0.8783 B( 18-C , 20-C ) :   1.2882 B( 18-C , 22-S ) :   1.1991
B( 20-C , 21-C ) :   1.2800 B( 20-C , 24-H ) :   0.3171 B( 21-C , 23-C ) :   1.5437
B( 21-C , 25-H ) :   0.9049 B( 22-S , 23-C ) :   1.2186 B( 23-C , 26-H ) :   0.8872
B( 24-H , 30-O ) :   0.3613 B( 30-O , 32-C ) :   1.4303 B( 31-O , 32-C ) :   1.4806
B( 32-C , 33-C ) :   0.9367 B( 33-C , 34-H ) :   0.8982 B( 33-C , 35-H ) :   0.8933
B( 33-C , 36-H ) :   0.9085

Dispersion correction           -0.029430459
FINAL SINGLE POINT ENERGY     -1288.354812278025
Dispersion correction            ... done

DIPOLE MOMENT
-------------
                                X             Y             Z
Electronic contribution:     35.39161     -73.61675      89.31608
Nuclear contribution   :    -36.01297      72.83560     -89.28109
                        -----------------------------------------
Total Dipole Moment    :     -0.62136      -0.78114       0.03500
                        -----------------------------------------
Magnitude (a.u.)       :      0.99875
Magnitude (Debye)      :      2.53862

Rotational constants in cm-1:     0.010458     0.008066     0.007539
Rotational constants in MHz :   313.523867   241.800926   226.001820

                             ****ORCA TERMINATED NORMALLY****
TOTAL RUN TIME: 0 days 0 hours 22 minutes 35 seconds 503 msec
