                         Program Version 5.0.3 -  RELEASE  -
|  1> ! EnGrad PBEh-3c
|  2> %output
|  3> xyzfile=True
|  4> end
|  5> %scf
|  6> maxiter 250
|  7> end
|  8> %output
|  9> Print[P_Hirshfeld] = 1
| 10> end
| 11> % maxcore
| 12> 4000
| 13> *xyz 1 1
| 14> Ir   0.59859505  -0.75528163   0.61519872
| 15> C   -0.02788556  -2.88466454   1.32147693
| 16> C    0.38772770  -2.10173774   2.43793573
| 17> C    2.14095862  -2.24024424   0.96551558
| 18> C    1.01246494  -2.86205577   0.35788673
| 19> C    1.73396507  -1.74162033   2.23517867
| 20> N   -1.06967788  -0.09509011  -0.50353727
| 21> C   -2.46736957  -0.06490678   0.02146593
| 22> C   -2.85195889   1.27556945   0.64905910
| 23> H   -3.89444749   1.23208079   0.96878041
| 24> H   -2.76347260   2.08697266  -0.07575770
| 25> H   -2.23642822   1.50849780   1.52315725
| 26> C   -3.49841772  -0.47682028  -1.02489243
| 27> H   -2.49009595  -0.82407271   0.82031920
| 28> H   -4.45251657  -0.61613936  -0.53694530
| 29> H   -3.65321139   0.28684323  -1.79568345
| 30> H   -3.23011506  -1.42178323  -1.51562070
| 31> C   -0.82573456   0.24555940  -1.70799285
| 32> C    0.50705930   0.18412903  -2.23439351
| 33> H   -1.66399617   0.54968743  -2.35257207
| 34> C    1.66206969   0.08942256  -1.49857074
| 35> C    2.74152589  -0.12321129  -2.43157699
| 36> S    0.72588298   0.24988262  -3.94919435
| 37> C    2.40074837  -0.00606435  -3.75988369
| 38> H    1.97157657   1.11779877  -0.53290841
| 39> H    3.79539478  -0.22501447  -2.18443564
| 40> H    3.04933938  -0.03244575  -4.64736738
| 41> H   -0.94303665  -3.46638829   1.24824274
| 42> H   -0.17446948  -2.00799679   3.35609145
| 43> H    2.40423145  -1.29654198   2.98090793
| 44> O    2.00322905   2.01067777   0.29548922
| 45> O    0.35896022   1.14128582   1.51437222
| 46> C    1.09616327   2.07720433   1.21471204
| 47> C    0.91105098   3.39600786   1.92057486
| 48> H    0.86832687   4.23316023   1.20865250
| 49> H    1.75031011   3.62714077   2.57675395
| 50> H   -0.00174147   3.48110638   2.55404888
| 51> H    3.11582032  -2.12035059   0.53230170
| 52> H    1.00782567  -3.43170918  -0.56295584
| 53> *
| 54>
| 55>                          ****END OF INPUT****

CARTESIAN COORDINATES (ANGSTROEM)
---------------------------------
  Ir     0.598595   -0.755282    0.615199
  C     -0.027886   -2.884665    1.321477
  C      0.387728   -2.101738    2.437936
  C      2.140959   -2.240244    0.965516
  C      1.012465   -2.862056    0.357887
  C      1.733965   -1.741620    2.235179
  N     -1.069678   -0.095090   -0.503537
  C     -2.467370   -0.064907    0.021466
  C     -2.851959    1.275569    0.649059
  H     -3.894447    1.232081    0.968780
  H     -2.763473    2.086973   -0.075758
  H     -2.236428    1.508498    1.523157
  C     -3.498418   -0.476820   -1.024892
  H     -2.490096   -0.824073    0.820319
  H     -4.452517   -0.616139   -0.536945
  H     -3.653211    0.286843   -1.795683
  H     -3.230115   -1.421783   -1.515621
  C     -0.825735    0.245559   -1.707993
  C      0.507059    0.184129   -2.234394
  H     -1.663996    0.549687   -2.352572
  C      1.662070    0.089423   -1.498571
  C      2.741526   -0.123211   -2.431577
  S      0.725883    0.249883   -3.949194
  C      2.400748   -0.006064   -3.759884
  H      1.971577    1.117799   -0.532908
  H      3.795395   -0.225014   -2.184436
  H      3.049339   -0.032446   -4.647367
  H     -0.943037   -3.466388    1.248243
  H     -0.174469   -2.007997    3.356091
  H      2.404231   -1.296542    2.980908
  O      2.003229    2.010678    0.295489
  O      0.358960    1.141286    1.514372
  C      1.096163    2.077204    1.214712
  C      0.911051    3.396008    1.920575
  H      0.868327    4.233160    1.208652
  H      1.750310    3.627141    2.576754
  H     -0.001741    3.481106    2.554049
  H      3.115820   -2.120351    0.532302
  H      1.007826   -3.431709   -0.562956

 Total Charge           Charge          ....    1
 Multiplicity           Mult            ....    1
 Number of Electrons    NEL             ....  164
 Basis Dimension        Dim             ....  358

ORBITAL ENERGIES
----------------

  NO   OCC          E(Eh)            E(eV)
   0   2.0000     -89.746344     -2442.1222
   1   2.0000     -19.647226      -534.6282
   2   2.0000     -19.623414      -533.9802
   3   2.0000     -14.826481      -403.4491
   4   2.0000     -10.708906      -291.4042
   5   2.0000     -10.648345      -289.7562
   6   2.0000     -10.639406      -289.5130
   7   2.0000     -10.626120      -289.1514
   8   2.0000     -10.625575      -289.1366
   9   2.0000     -10.622392      -289.0500
  10   2.0000     -10.614536      -288.8362
  11   2.0000     -10.613284      -288.8022
  12   2.0000     -10.611472      -288.7528
  13   2.0000     -10.602051      -288.4965
  14   2.0000     -10.584942      -288.0309
  15   2.0000     -10.579776      -287.8903
  16   2.0000     -10.552784      -287.1558
  17   2.0000     -10.549460      -287.0654
  18   2.0000     -10.543106      -286.8925
  19   2.0000      -8.385940      -228.1930
  20   2.0000      -6.275805      -170.7733
  21   2.0000      -6.272362      -170.6796
  22   2.0000      -6.270826      -170.6379
  23   2.0000      -4.019373      -109.3727
  24   2.0000      -2.336009       -63.5660
  25   2.0000      -2.304065       -62.6968
  26   2.0000      -2.301418       -62.6248
  27   2.0000      -1.337126       -36.3851
  28   2.0000      -1.232468       -33.5372
  29   2.0000      -1.195717       -32.5371
  30   2.0000      -1.165690       -31.7200
  31   2.0000      -1.110156       -30.2089
  32   2.0000      -1.012339       -27.5471
  33   2.0000      -0.971990       -26.4492
  34   2.0000      -0.971629       -26.4394
  35   2.0000      -0.951862       -25.9015
  36   2.0000      -0.949342       -25.8329
  37   2.0000      -0.938894       -25.5486
  38   2.0000      -0.890875       -24.2419
  39   2.0000      -0.858199       -23.3528
  40   2.0000      -0.789859       -21.4932
  41   2.0000      -0.780072       -21.2269
  42   2.0000      -0.778383       -21.1809
  43   2.0000      -0.774845       -21.0846
  44   2.0000      -0.766481       -20.8570
  45   2.0000      -0.762081       -20.7373
  46   2.0000      -0.737095       -20.0574
  47   2.0000      -0.718465       -19.5504
  48   2.0000      -0.683479       -18.5984
  49   2.0000      -0.673221       -18.3193
  50   2.0000      -0.668033       -18.1781
  51   2.0000      -0.653456       -17.7814
  52   2.0000      -0.646125       -17.5820
  53   2.0000      -0.635083       -17.2815
  54   2.0000      -0.632163       -17.2020
  55   2.0000      -0.629785       -17.1373
  56   2.0000      -0.616864       -16.7857
  57   2.0000      -0.602704       -16.4004
  58   2.0000      -0.597995       -16.2723
  59   2.0000      -0.597253       -16.2521
  60   2.0000      -0.586860       -15.9693
  61   2.0000      -0.581402       -15.8208
  62   2.0000      -0.566773       -15.4227
  63   2.0000      -0.562193       -15.2980
  64   2.0000      -0.556623       -15.1465
  65   2.0000      -0.555872       -15.1261
  66   2.0000      -0.553766       -15.0687
  67   2.0000      -0.537496       -14.6260
  68   2.0000      -0.534759       -14.5515
  69   2.0000      -0.525473       -14.2988
  70   2.0000      -0.520542       -14.1647
  71   2.0000      -0.512910       -13.9570
  72   2.0000      -0.507035       -13.7971
  73   2.0000      -0.495204       -13.4752
  74   2.0000      -0.492599       -13.4043
  75   2.0000      -0.472831       -12.8664
  76   2.0000      -0.462729       -12.5915
  77   2.0000      -0.449525       -12.2322
  78   2.0000      -0.438964       -11.9448
  79   2.0000      -0.419831       -11.4242
  80   2.0000      -0.409353       -11.1391
  81   2.0000      -0.394572       -10.7369
  82   0.0000      -0.203725        -5.5436
  83   0.0000      -0.168894        -4.5958
  84   0.0000      -0.154944        -4.2162
  85   0.0000      -0.080249        -2.1837
  86   0.0000      -0.076704        -2.0872

MULLIKEN ATOMIC CHARGES
-----------------------
   0 Ir:    0.602778
   1 C :   -0.154992
   2 C :   -0.256447
   3 C :   -0.179557
   4 C :   -0.331939
   5 C :   -0.230334
   6 N :   -0.455586
   7 C :   -0.113699
   8 C :   -0.631815
   9 H :    0.247758
  10 H :    0.225490
  11 H :    0.260505
  12 C :   -0.679750
  13 H :    0.247459
  14 H :    0.268741
  15 H :    0.227844
  16 H :    0.246150
  17 C :    0.085389
  18 C :   -0.158233
  19 H :    0.274053
  20 C :   -0.408519
  21 C :   -0.192895
  22 S :    0.307361
  23 C :   -0.393289
  24 H :    0.498277
  25 H :    0.256519
  26 H :    0.296776
  27 H :    0.286818
  28 H :    0.286898
  29 H :    0.288496
  30 O :   -0.561731
  31 O :   -0.456477
  32 C :    0.655398
  33 C :   -0.757856
  34 H :    0.276871
  35 H :    0.281943
  36 H :    0.261598
  37 H :    0.294642
  38 H :    0.285357
Sum of atomic charges:    1.0000000

LOEWDIN ATOMIC CHARGES
----------------------
   0 Ir:   -0.219416
   1 C :   -0.006945
   2 C :   -0.066965
   3 C :   -0.030882
   4 C :   -0.100388
   5 C :   -0.065172
   6 N :   -0.026858
   7 C :   -0.059123
   8 C :   -0.351396
   9 H :    0.147004
  10 H :    0.135718
  11 H :    0.147431
  12 C :   -0.362702
  13 H :    0.140160
  14 H :    0.154104
  15 H :    0.133466
  16 H :    0.140066
  17 C :    0.028236
  18 C :   -0.205304
  19 H :    0.155249
  20 C :   -0.217282
  21 C :   -0.149109
  22 S :    0.458503
  23 C :   -0.262868
  24 H :    0.365108
  25 H :    0.154837
  26 H :    0.170764
  27 H :    0.182571
  28 H :    0.182947
  29 H :    0.187087
  30 O :   -0.303560
  31 O :   -0.132292
  32 C :    0.187101
  33 C :   -0.376806
  34 H :    0.168673
  35 H :    0.172021
  36 H :    0.156303
  37 H :    0.186494
  38 H :    0.183226

  Mayer bond orders larger than 0.100000
B(  0-Ir,  1-C ) :   0.3424 B(  0-Ir,  2-C ) :   0.4156 B(  0-Ir,  3-C ) :   0.4354
B(  0-Ir,  4-C ) :   0.4824 B(  0-Ir,  5-C ) :   0.4324 B(  0-Ir,  6-N ) :   0.4882
B(  0-Ir, 20-C ) :   0.4021 B(  0-Ir, 31-O ) :   0.4838 B(  1-C ,  2-C ) :   1.2261
B(  1-C ,  4-C ) :   1.1957 B(  1-C , 27-H ) :   0.9110 B(  2-C ,  5-C ) :   1.1287
B(  2-C , 28-H ) :   0.9149 B(  3-C ,  4-C ) :   1.1252 B(  3-C ,  5-C ) :   1.2215
B(  3-C , 37-H ) :   0.9028 B(  4-C , 38-H ) :   0.9157 B(  5-C , 29-H ) :   0.9131
B(  6-N ,  7-C ) :   0.8867 B(  6-N , 17-C ) :   1.6376 B(  7-C ,  8-C ) :   0.9757
B(  7-C , 12-C ) :   0.9872 B(  7-C , 13-H ) :   0.8948 B(  8-C ,  9-H ) :   0.9064
B(  8-C , 10-H ) :   0.9174 B(  8-C , 11-H ) :   0.9065 B( 12-C , 14-H ) :   0.9037
B( 12-C , 15-H ) :   0.9114 B( 12-C , 16-H ) :   0.9156 B( 17-C , 18-C ) :   1.1033
B( 17-C , 19-H ) :   0.8772 B( 18-C , 20-C ) :   1.2979 B( 18-C , 22-S ) :   1.1928
B( 20-C , 21-C ) :   1.3003 B( 20-C , 24-H ) :   0.2990 B( 21-C , 23-C ) :   1.5404
B( 21-C , 25-H ) :   0.9057 B( 22-S , 23-C ) :   1.2231 B( 23-C , 26-H ) :   0.8875
B( 24-H , 30-O ) :   0.3719 B( 30-O , 32-C ) :   1.4123 B( 31-O , 32-C ) :   1.4954
B( 32-C , 33-C ) :   0.9441 B( 33-C , 34-H ) :   0.8952 B( 33-C , 35-H ) :   0.8897
B( 33-C , 36-H ) :   0.9082

Dispersion correction           -0.029424710
FINAL SINGLE POINT ENERGY     -1288.361098380622
Dispersion correction            ... done

DIPOLE MOMENT
-------------
                                X             Y             Z
Electronic contribution:     36.24715     -74.54603      88.95527
Nuclear contribution   :    -36.90397      73.83283     -88.74310
                        -----------------------------------------
Total Dipole Moment    :     -0.65682      -0.71320       0.21217
                        -----------------------------------------
Magnitude (a.u.)       :      0.99251
Magnitude (Debye)      :      2.52277

Rotational constants in cm-1:     0.010464     0.008109     0.007570
Rotational constants in MHz :   313.705120   243.091754   226.931198

                             ****ORCA TERMINATED NORMALLY****
TOTAL RUN TIME: 0 days 0 hours 20 minutes 56 seconds 213 msec
