                         Program Version 5.0.3 -  RELEASE  -
|  1> ! EnGrad PBEh-3c
|  2> %output
|  3> xyzfile=True
|  4> end
|  5> %scf
|  6> maxiter 250
|  7> end
|  8> %output
|  9> Print[P_Hirshfeld] = 1
| 10> end
| 11> % maxcore
| 12> 4000
| 13> *xyz 1 1
| 14> Ir   0.61336642  -0.76190348   0.60782319
| 15> C   -0.02899018  -2.88754158   1.33699262
| 16> C    0.40029676  -2.10150995   2.43912824
| 17> C    2.14775915  -2.26289697   0.96196680
| 18> C    1.00032784  -2.87480944   0.35793711
| 19> C    1.76233073  -1.73985927   2.22155815
| 20> N   -1.06787571  -0.09921881  -0.50728909
| 21> C   -2.46317593  -0.06419849   0.02383364
| 22> C   -2.84848177   1.28596814   0.63990523
| 23> H   -3.89699845   1.23841506   0.94979560
| 24> H   -2.76550721   2.09318551  -0.09146117
| 25> H   -2.23295594   1.53479840   1.50887725
| 26> C   -3.49022920  -0.48451804  -1.02720370
| 27> H   -2.48397710  -0.81495045   0.82672652
| 28> H   -4.44798634  -0.62077478  -0.53412696
| 29> H   -3.64816950   0.27352382  -1.80145763
| 30> H   -3.22245410  -1.43044832  -1.51012479
| 31> C   -0.83011271   0.24681233  -1.71167509
| 32> C    0.50612052   0.18930044  -2.22667769
| 33> H   -1.66593620   0.55413500  -2.35381001
| 34> C    1.66973251   0.12610690  -1.48520353
| 35> C    2.74559326  -0.11019468  -2.42273030
| 36> S    0.72281328   0.23907263  -3.93302744
| 37> C    2.39821246  -0.01678476  -3.75014691
| 38> H    1.90273925   1.09352496  -0.45589280
| 39> H    3.79585574  -0.21957831  -2.18498796
| 40> H    3.04053133  -0.03267685  -4.64188958
| 41> H   -0.97074339  -3.43189974   1.25977315
| 42> H   -0.14978732  -1.99263375   3.36166946
| 43> H    2.42877802  -1.28139889   2.95699647
| 44> O    1.99573839   2.00483946   0.27935668
| 45> O    0.36303907   1.11795871   1.50682104
| 46> C    1.11375638   2.08250250   1.20350221
| 47> C    0.90904823   3.38692774   1.92358934
| 48> H    0.86679867   4.21937365   1.21741572
| 49> H    1.74331991   3.61866611   2.58254848
| 50> H   -0.00009898   3.47007163   2.55103047
| 51> H    3.10789984  -2.12204335   0.49779535
| 52> H    0.97804384  -3.42695207  -0.57243842
| 53> *
| 54>
| 55>                          ****END OF INPUT****

CARTESIAN COORDINATES (ANGSTROEM)
---------------------------------
  Ir     0.613366   -0.761903    0.607823
  C     -0.028990   -2.887542    1.336993
  C      0.400297   -2.101510    2.439128
  C      2.147759   -2.262897    0.961967
  C      1.000328   -2.874809    0.357937
  C      1.762331   -1.739859    2.221558
  N     -1.067876   -0.099219   -0.507289
  C     -2.463176   -0.064198    0.023834
  C     -2.848482    1.285968    0.639905
  H     -3.896998    1.238415    0.949796
  H     -2.765507    2.093186   -0.091461
  H     -2.232956    1.534798    1.508877
  C     -3.490229   -0.484518   -1.027204
  H     -2.483977   -0.814950    0.826727
  H     -4.447986   -0.620775   -0.534127
  H     -3.648169    0.273524   -1.801458
  H     -3.222454   -1.430448   -1.510125
  C     -0.830113    0.246812   -1.711675
  C      0.506121    0.189300   -2.226678
  H     -1.665936    0.554135   -2.353810
  C      1.669733    0.126107   -1.485204
  C      2.745593   -0.110195   -2.422730
  S      0.722813    0.239073   -3.933027
  C      2.398212   -0.016785   -3.750147
  H      1.902739    1.093525   -0.455893
  H      3.795856   -0.219578   -2.184988
  H      3.040531   -0.032677   -4.641890
  H     -0.970743   -3.431900    1.259773
  H     -0.149787   -1.992634    3.361669
  H      2.428778   -1.281399    2.956996
  O      1.995738    2.004839    0.279357
  O      0.363039    1.117959    1.506821
  C      1.113756    2.082502    1.203502
  C      0.909048    3.386928    1.923589
  H      0.866799    4.219374    1.217416
  H      1.743320    3.618666    2.582548
  H     -0.000099    3.470072    2.551030
  H      3.107900   -2.122043    0.497795
  H      0.978044   -3.426952   -0.572438

 Total Charge           Charge          ....    1
 Multiplicity           Mult            ....    1
 Number of Electrons    NEL             ....  164
 Basis Dimension        Dim             ....  358

ORBITAL ENERGIES
----------------

  NO   OCC          E(Eh)            E(eV)
   0   2.0000     -89.743783     -2442.0525
   1   2.0000     -19.646253      -534.6017
   2   2.0000     -19.632799      -534.2356
   3   2.0000     -14.825073      -403.4108
   4   2.0000     -10.714414      -291.5540
   5   2.0000     -10.647142      -289.7235
   6   2.0000     -10.639570      -289.5174
   7   2.0000     -10.626705      -289.1673
   8   2.0000     -10.626223      -289.1542
   9   2.0000     -10.622695      -289.0582
  10   2.0000     -10.614251      -288.8284
  11   2.0000     -10.612961      -288.7934
  12   2.0000     -10.609492      -288.6990
  13   2.0000     -10.600135      -288.4443
  14   2.0000     -10.584899      -288.0297
  15   2.0000     -10.577844      -287.8378
  16   2.0000     -10.555713      -287.2355
  17   2.0000     -10.549487      -287.0661
  18   2.0000     -10.543618      -286.9064
  19   2.0000      -8.383615      -228.1297
  20   2.0000      -6.273487      -170.7102
  21   2.0000      -6.270036      -170.6164
  22   2.0000      -6.268486      -170.5742
  23   2.0000      -4.018689      -109.3541
  24   2.0000      -2.335062       -63.5403
  25   2.0000      -2.303151       -62.6719
  26   2.0000      -2.301106       -62.6163
  27   2.0000      -1.335536       -36.3418
  28   2.0000      -1.237653       -33.6782
  29   2.0000      -1.194528       -32.5048
  30   2.0000      -1.163071       -31.6488
  31   2.0000      -1.108739       -30.1703
  32   2.0000      -1.010975       -27.5100
  33   2.0000      -0.973247       -26.4834
  34   2.0000      -0.967752       -26.3339
  35   2.0000      -0.952372       -25.9154
  36   2.0000      -0.950719       -25.8704
  37   2.0000      -0.940773       -25.5997
  38   2.0000      -0.890099       -24.2208
  39   2.0000      -0.857594       -23.3363
  40   2.0000      -0.793352       -21.5882
  41   2.0000      -0.781605       -21.2685
  42   2.0000      -0.779115       -21.2008
  43   2.0000      -0.776989       -21.1429
  44   2.0000      -0.764702       -20.8086
  45   2.0000      -0.760538       -20.6953
  46   2.0000      -0.738741       -20.1022
  47   2.0000      -0.718365       -19.5477
  48   2.0000      -0.682363       -18.5680
  49   2.0000      -0.673691       -18.3321
  50   2.0000      -0.669119       -18.2077
  51   2.0000      -0.653704       -17.7882
  52   2.0000      -0.645250       -17.5581
  53   2.0000      -0.634399       -17.2629
  54   2.0000      -0.631060       -17.1720
  55   2.0000      -0.627398       -17.0724
  56   2.0000      -0.615842       -16.7579
  57   2.0000      -0.601849       -16.3771
  58   2.0000      -0.598019       -16.2729
  59   2.0000      -0.596493       -16.2314
  60   2.0000      -0.586144       -15.9498
  61   2.0000      -0.582409       -15.8482
  62   2.0000      -0.568415       -15.4674
  63   2.0000      -0.564787       -15.3686
  64   2.0000      -0.559937       -15.2367
  65   2.0000      -0.557609       -15.1733
  66   2.0000      -0.554479       -15.0881
  67   2.0000      -0.536936       -14.6108
  68   2.0000      -0.534653       -14.5486
  69   2.0000      -0.525857       -14.3093
  70   2.0000      -0.521808       -14.1991
  71   2.0000      -0.515693       -14.0327
  72   2.0000      -0.508889       -13.8476
  73   2.0000      -0.496202       -13.5024
  74   2.0000      -0.492708       -13.4073
  75   2.0000      -0.473022       -12.8716
  76   2.0000      -0.463060       -12.6005
  77   2.0000      -0.449539       -12.2326
  78   2.0000      -0.438585       -11.9345
  79   2.0000      -0.419363       -11.4114
  80   2.0000      -0.408627       -11.1193
  81   2.0000      -0.393575       -10.7097
  82   0.0000      -0.201852        -5.4927
  83   0.0000      -0.167535        -4.5589
  84   0.0000      -0.152032        -4.1370
  85   0.0000      -0.086254        -2.3471
  86   0.0000      -0.076742        -2.0883

MULLIKEN ATOMIC CHARGES
-----------------------
   0 Ir:    0.594048
   1 C :   -0.142851
   2 C :   -0.259753
   3 C :   -0.168873
   4 C :   -0.345969
   5 C :   -0.239652
   6 N :   -0.450851
   7 C :   -0.113408
   8 C :   -0.631865
   9 H :    0.246402
  10 H :    0.225040
  11 H :    0.260608
  12 C :   -0.680526
  13 H :    0.247263
  14 H :    0.266802
  15 H :    0.228584
  16 H :    0.247423
  17 C :    0.082827
  18 C :   -0.166697
  19 H :    0.274996
  20 C :   -0.395375
  21 C :   -0.199084
  22 S :    0.304320
  23 C :   -0.392974
  24 H :    0.511359
  25 H :    0.255027
  26 H :    0.295900
  27 H :    0.287276
  28 H :    0.286777
  29 H :    0.288633
  30 O :   -0.544486
  31 O :   -0.481871
  32 C :    0.654991
  33 C :   -0.759910
  34 H :    0.279208
  35 H :    0.283825
  36 H :    0.269071
  37 H :    0.297002
  38 H :    0.286765
Sum of atomic charges:    1.0000000

LOEWDIN ATOMIC CHARGES
----------------------
   0 Ir:   -0.223774
   1 C :   -0.006439
   2 C :   -0.065766
   3 C :   -0.029091
   4 C :   -0.104625
   5 C :   -0.067387
   6 N :   -0.027401
   7 C :   -0.058965
   8 C :   -0.351602
   9 H :    0.146771
  10 H :    0.135247
  11 H :    0.147320
  12 C :   -0.362955
  13 H :    0.139853
  14 H :    0.153632
  15 H :    0.133576
  16 H :    0.140299
  17 C :    0.027071
  18 C :   -0.209572
  19 H :    0.155573
  20 C :   -0.209879
  21 C :   -0.149358
  22 S :    0.458440
  23 C :   -0.263755
  24 H :    0.355830
  25 H :    0.154189
  26 H :    0.170223
  27 H :    0.182924
  28 H :    0.182489
  29 H :    0.187081
  30 O :   -0.278990
  31 O :   -0.158406
  32 C :    0.200977
  33 C :   -0.376794
  34 H :    0.169549
  35 H :    0.173342
  36 H :    0.159807
  37 H :    0.187032
  38 H :    0.183535

  Mayer bond orders larger than 0.100000
B(  0-Ir,  1-C ) :   0.3316 B(  0-Ir,  2-C ) :   0.4132 B(  0-Ir,  3-C ) :   0.4288
B(  0-Ir,  4-C ) :   0.4832 B(  0-Ir,  5-C ) :   0.4368 B(  0-Ir,  6-N ) :   0.4860
B(  0-Ir, 20-C ) :   0.3994 B(  0-Ir, 31-O ) :   0.4960 B(  1-C ,  2-C ) :   1.2321
B(  1-C ,  4-C ) :   1.1910 B(  1-C , 27-H ) :   0.9091 B(  2-C ,  5-C ) :   1.1237
B(  2-C , 28-H ) :   0.9153 B(  3-C ,  4-C ) :   1.1279 B(  3-C ,  5-C ) :   1.2224
B(  3-C , 37-H ) :   0.8988 B(  4-C , 38-H ) :   0.9143 B(  5-C , 29-H ) :   0.9132
B(  6-N ,  7-C ) :   0.8880 B(  6-N , 17-C ) :   1.6417 B(  7-C ,  8-C ) :   0.9750
B(  7-C , 12-C ) :   0.9864 B(  7-C , 13-H ) :   0.8953 B(  8-C ,  9-H ) :   0.9068
B(  8-C , 10-H ) :   0.9174 B(  8-C , 11-H ) :   0.9066 B( 12-C , 14-H ) :   0.9047
B( 12-C , 15-H ) :   0.9111 B( 12-C , 16-H ) :   0.9150 B( 17-C , 18-C ) :   1.1024
B( 17-C , 19-H ) :   0.8764 B( 18-C , 20-C ) :   1.2968 B( 18-C , 22-S ) :   1.1942
B( 20-C , 21-C ) :   1.3108 B( 20-C , 24-H ) :   0.2950 B( 21-C , 23-C ) :   1.5416
B( 21-C , 25-H ) :   0.9067 B( 22-S , 23-C ) :   1.2209 B( 23-C , 26-H ) :   0.8880
B( 24-H , 30-O ) :   0.3640 B( 30-O , 32-C ) :   1.4451 B( 31-O , 32-C ) :   1.4514
B( 32-C , 33-C ) :   0.9493 B( 33-C , 34-H ) :   0.8929 B( 33-C , 35-H ) :   0.8881
B( 33-C , 36-H ) :   0.9060

Dispersion correction           -0.029443534
FINAL SINGLE POINT ENERGY     -1288.367625572176
Dispersion correction            ... done

DIPOLE MOMENT
-------------
                                X             Y             Z
Electronic contribution:     37.55793     -74.87510      88.25351
Nuclear contribution   :    -38.21316      74.30123     -87.95200
                        -----------------------------------------
Total Dipole Moment    :     -0.65523      -0.57387       0.30151
                        -----------------------------------------
Magnitude (a.u.)       :      0.92172
Magnitude (Debye)      :      2.34282

Rotational constants in cm-1:     0.010457     0.008147     0.007594
Rotational constants in MHz :   313.503953   244.232276   227.652811

                             ****ORCA TERMINATED NORMALLY****
TOTAL RUN TIME: 0 days 0 hours 22 minutes 58 seconds 162 msec
