                         Program Version 5.0.3 -  RELEASE  -
|  1> ! EnGrad PBEh-3c
|  2> %output
|  3> xyzfile=True
|  4> end
|  5> %scf
|  6> maxiter 250
|  7> end
|  8> %output
|  9> Print[P_Hirshfeld] = 1
| 10> end
| 11> % maxcore
| 12> 4000
| 13> *xyz 1 1
| 14> Ir   0.63534606  -0.78686184   0.60466032
| 15> C   -0.03401925  -2.88323288   1.36733482
| 16> C    0.43611432  -2.10010215   2.44283291
| 17> C    2.15720428  -2.30349286   0.94246822
| 18> C    0.97757033  -2.90782425   0.35682158
| 19> C    1.82214607  -1.74094062   2.19056767
| 20> N   -1.06276415  -0.10902677  -0.50506889
| 21> C   -2.44916611  -0.06212684   0.02657023
| 22> C   -2.84033007   1.30768580   0.61448257
| 23> H   -3.89907822   1.25506726   0.90725497
| 24> H   -2.77001183   2.10630077  -0.12942491
| 25> H   -2.22841982   1.59474812   1.47369205
| 26> C   -3.47274111  -0.50212206  -1.02837502
| 27> H   -2.47012283  -0.79077196   0.84000403
| 28> H   -4.43690550  -0.63232654  -0.52935183
| 29> H   -3.63575336   0.24130653  -1.81370308
| 30> H   -3.20429753  -1.45015774  -1.49578034
| 31> C   -0.83904258   0.24968158  -1.71705141
| 32> C    0.50283203   0.21554281  -2.20876812
| 33> H   -1.66430996   0.56333679  -2.35659783
| 34> C    1.67345292   0.18165935  -1.48123028
| 35> C    2.75839793  -0.07144721  -2.40074354
| 36> S    0.71857336   0.20773589  -3.89658503
| 37> C    2.39175659  -0.03848453  -3.72796725
| 38> H    1.76080413   1.03760156  -0.29373881
| 39> H    3.79903422  -0.20464961  -2.18371557
| 40> H    3.01727471  -0.03674665  -4.62268533
| 41> H   -1.02911569  -3.34858478   1.28994334
| 42> H   -0.09125816  -1.95333484   3.37441034
| 43> H    2.48462817  -1.24960668   2.89635161
| 44> O    1.96812693   1.99829304   0.26873424
| 45> O    0.39647921   1.08912188   1.48267506
| 46> C    1.12465427   2.07441165   1.18607956
| 47> C    0.90303483   3.36999440   1.93440878
| 48> H    0.86409420   4.18821833   1.23478907
| 49> H    1.73018857   3.59803668   2.59761724
| 50> H    0.00575720   3.43809208   2.54085733
| 51> H    3.09046079  -2.13126358   0.41709083
| 52> H    0.90827485  -3.41681805  -0.59145336
| 53> *
| 54>
| 55>                          ****END OF INPUT****

CARTESIAN COORDINATES (ANGSTROEM)
---------------------------------
  Ir     0.635346   -0.786862    0.604660
  C     -0.034019   -2.883233    1.367335
  C      0.436114   -2.100102    2.442833
  C      2.157204   -2.303493    0.942468
  C      0.977570   -2.907824    0.356822
  C      1.822146   -1.740941    2.190568
  N     -1.062764   -0.109027   -0.505069
  C     -2.449166   -0.062127    0.026570
  C     -2.840330    1.307686    0.614483
  H     -3.899078    1.255067    0.907255
  H     -2.770012    2.106301   -0.129425
  H     -2.228420    1.594748    1.473692
  C     -3.472741   -0.502122   -1.028375
  H     -2.470123   -0.790772    0.840004
  H     -4.436905   -0.632327   -0.529352
  H     -3.635753    0.241307   -1.813703
  H     -3.204298   -1.450158   -1.495780
  C     -0.839043    0.249682   -1.717051
  C      0.502832    0.215543   -2.208768
  H     -1.664310    0.563337   -2.356598
  C      1.673453    0.181659   -1.481230
  C      2.758398   -0.071447   -2.400744
  S      0.718573    0.207736   -3.896585
  C      2.391757   -0.038485   -3.727967
  H      1.760804    1.037602   -0.293739
  H      3.799034   -0.204650   -2.183716
  H      3.017275   -0.036747   -4.622685
  H     -1.029116   -3.348585    1.289943
  H     -0.091258   -1.953335    3.374410
  H      2.484628   -1.249607    2.896352
  O      1.968127    1.998293    0.268734
  O      0.396479    1.089122    1.482675
  C      1.124654    2.074412    1.186080
  C      0.903035    3.369994    1.934409
  H      0.864094    4.188218    1.234789
  H      1.730189    3.598037    2.597617
  H      0.005757    3.438092    2.540857
  H      3.090461   -2.131264    0.417091
  H      0.908275   -3.416818   -0.591453

 Total Charge           Charge          ....    1
 Multiplicity           Mult            ....    1
 Number of Electrons    NEL             ....  164
 Basis Dimension        Dim             ....  358

ORBITAL ENERGIES
----------------

  NO   OCC          E(Eh)            E(eV)
   0   2.0000     -89.738524     -2441.9094
   1   2.0000     -19.645340      -534.5769
   2   2.0000     -19.642596      -534.5022
   3   2.0000     -14.823338      -403.3635
   4   2.0000     -10.715070      -291.5719
   5   2.0000     -10.646827      -289.7149
   6   2.0000     -10.642110      -289.5865
   7   2.0000     -10.630122      -289.2603
   8   2.0000     -10.629564      -289.2451
   9   2.0000     -10.625331      -289.1300
  10   2.0000     -10.617558      -288.9184
  11   2.0000     -10.611998      -288.7671
  12   2.0000     -10.603361      -288.5321
  13   2.0000     -10.596940      -288.3574
  14   2.0000     -10.586843      -288.0826
  15   2.0000     -10.575084      -287.7627
  16   2.0000     -10.555138      -287.2199
  17   2.0000     -10.549751      -287.0733
  18   2.0000     -10.545085      -286.9464
  19   2.0000      -8.379008      -228.0044
  20   2.0000      -6.268861      -170.5844
  21   2.0000      -6.265384      -170.4898
  22   2.0000      -6.263906      -170.4495
  23   2.0000      -4.020558      -109.4050
  24   2.0000      -2.337006       -63.5932
  25   2.0000      -2.304838       -62.7178
  26   2.0000      -2.303171       -62.6725
  27   2.0000      -1.358063       -36.9548
  28   2.0000      -1.248422       -33.9713
  29   2.0000      -1.192223       -32.4420
  30   2.0000      -1.161057       -31.5940
  31   2.0000      -1.109523       -30.1917
  32   2.0000      -1.009079       -27.4584
  33   2.0000      -0.977325       -26.5944
  34   2.0000      -0.964693       -26.2506
  35   2.0000      -0.956856       -26.0374
  36   2.0000      -0.950787       -25.8722
  37   2.0000      -0.938833       -25.5469
  38   2.0000      -0.889189       -24.1961
  39   2.0000      -0.858813       -23.3695
  40   2.0000      -0.799749       -21.7623
  41   2.0000      -0.784033       -21.3346
  42   2.0000      -0.779963       -21.2239
  43   2.0000      -0.777946       -21.1690
  44   2.0000      -0.763685       -20.7809
  45   2.0000      -0.759949       -20.6793
  46   2.0000      -0.744186       -20.2503
  47   2.0000      -0.720528       -19.6066
  48   2.0000      -0.683534       -18.5999
  49   2.0000      -0.680061       -18.5054
  50   2.0000      -0.670985       -18.2584
  51   2.0000      -0.661268       -17.9940
  52   2.0000      -0.646424       -17.5901
  53   2.0000      -0.635225       -17.2853
  54   2.0000      -0.631181       -17.1753
  55   2.0000      -0.625664       -17.0252
  56   2.0000      -0.615620       -16.7519
  57   2.0000      -0.601975       -16.3806
  58   2.0000      -0.598903       -16.2970
  59   2.0000      -0.596950       -16.2438
  60   2.0000      -0.586989       -15.9728
  61   2.0000      -0.584690       -15.9102
  62   2.0000      -0.571888       -15.5619
  63   2.0000      -0.570047       -15.5118
  64   2.0000      -0.563980       -15.3467
  65   2.0000      -0.563409       -15.3311
  66   2.0000      -0.554235       -15.0815
  67   2.0000      -0.537446       -14.6246
  68   2.0000      -0.535343       -14.5674
  69   2.0000      -0.527132       -14.3440
  70   2.0000      -0.522780       -14.2256
  71   2.0000      -0.520571       -14.1655
  72   2.0000      -0.512045       -13.9335
  73   2.0000      -0.495979       -13.4963
  74   2.0000      -0.494960       -13.4686
  75   2.0000      -0.474675       -12.9166
  76   2.0000      -0.463345       -12.6083
  77   2.0000      -0.450943       -12.2708
  78   2.0000      -0.440201       -11.9785
  79   2.0000      -0.417495       -11.3606
  80   2.0000      -0.407662       -11.0930
  81   2.0000      -0.393196       -10.6994
  82   0.0000      -0.197775        -5.3817
  83   0.0000      -0.166857        -4.5404
  84   0.0000      -0.149970        -4.0809
  85   0.0000      -0.084710        -2.3051
  86   0.0000      -0.076608        -2.0846

MULLIKEN ATOMIC CHARGES
-----------------------
   0 Ir:    0.561117
   1 C :   -0.137983
   2 C :   -0.263767
   3 C :   -0.161572
   4 C :   -0.347531
   5 C :   -0.248411
   6 N :   -0.449413
   7 C :   -0.113561
   8 C :   -0.633061
   9 H :    0.245025
  10 H :    0.225138
  11 H :    0.258827
  12 C :   -0.681845
  13 H :    0.246349
  14 H :    0.263909
  15 H :    0.229558
  16 H :    0.249027
  17 C :    0.075184
  18 C :   -0.163563
  19 H :    0.278822
  20 C :   -0.335392
  21 C :   -0.223953
  22 S :    0.297132
  23 C :   -0.392333
  24 H :    0.499883
  25 H :    0.254277
  26 H :    0.294319
  27 H :    0.289598
  28 H :    0.288735
  29 H :    0.290845
  30 O :   -0.505086
  31 O :   -0.492594
  32 C :    0.631073
  33 C :   -0.761436
  34 H :    0.279780
  35 H :    0.283894
  36 H :    0.275278
  37 H :    0.301562
  38 H :    0.292170
Sum of atomic charges:    1.0000000

LOEWDIN ATOMIC CHARGES
----------------------
   0 Ir:   -0.237104
   1 C :   -0.008824
   2 C :   -0.062962
   3 C :   -0.025949
   4 C :   -0.104512
   5 C :   -0.069075
   6 N :   -0.032838
   7 C :   -0.061383
   8 C :   -0.352281
   9 H :    0.146687
  10 H :    0.134591
  11 H :    0.146056
  12 C :   -0.363127
  13 H :    0.138840
  14 H :    0.152710
  15 H :    0.133644
  16 H :    0.140314
  17 C :    0.029662
  18 C :   -0.225431
  19 H :    0.157058
  20 C :   -0.185280
  21 C :   -0.153633
  22 S :    0.459846
  23 C :   -0.263926
  24 H :    0.345730
  25 H :    0.154299
  26 H :    0.168466
  27 H :    0.185162
  28 H :    0.182890
  29 H :    0.188070
  30 O :   -0.236823
  31 O :   -0.165471
  32 C :    0.184466
  33 C :   -0.376716
  34 H :    0.168407
  35 H :    0.173296
  36 H :    0.160515
  37 H :    0.189264
  38 H :    0.185359

  Mayer bond orders larger than 0.100000
B(  0-Ir,  1-C ) :   0.3276 B(  0-Ir,  2-C ) :   0.4116 B(  0-Ir,  3-C ) :   0.4242
B(  0-Ir,  4-C ) :   0.4924 B(  0-Ir,  5-C ) :   0.4490 B(  0-Ir,  6-N ) :   0.4794
B(  0-Ir, 20-C ) :   0.4103 B(  0-Ir, 31-O ) :   0.4920 B(  1-C ,  2-C ) :   1.2395
B(  1-C ,  4-C ) :   1.1759 B(  1-C , 27-H ) :   0.9051 B(  2-C ,  5-C ) :   1.1148
B(  2-C , 28-H ) :   0.9139 B(  3-C ,  4-C ) :   1.1323 B(  3-C ,  5-C ) :   1.2185
B(  3-C , 37-H ) :   0.8921 B(  4-C , 38-H ) :   0.9093 B(  5-C , 29-H ) :   0.9118
B(  6-N ,  7-C ) :   0.8954 B(  6-N , 17-C ) :   1.6412 B(  7-C ,  8-C ) :   0.9731
B(  7-C , 12-C ) :   0.9848 B(  7-C , 13-H ) :   0.8965 B(  8-C ,  9-H ) :   0.9077
B(  8-C , 10-H ) :   0.9172 B(  8-C , 11-H ) :   0.9081 B( 12-C , 14-H ) :   0.9065
B( 12-C , 15-H ) :   0.9108 B( 12-C , 16-H ) :   0.9142 B( 17-C , 18-C ) :   1.1072
B( 17-C , 19-H ) :   0.8741 B( 18-C , 20-C ) :   1.2924 B( 18-C , 22-S ) :   1.1872
B( 20-C , 21-C ) :   1.3484 B( 20-C , 24-H ) :   0.2786 B( 21-C , 23-C ) :   1.5308
B( 21-C , 25-H ) :   0.9082 B( 22-S , 23-C ) :   1.2303 B( 23-C , 26-H ) :   0.8886
B( 24-H , 30-O ) :   0.3690 B( 30-O , 32-C ) :   1.4956 B( 31-O , 32-C ) :   1.4327
B( 32-C , 33-C ) :   0.9499 B( 33-C , 34-H ) :   0.8926 B( 33-C , 35-H ) :   0.8899
B( 33-C , 36-H ) :   0.9041

Dispersion correction           -0.029590166
FINAL SINGLE POINT ENERGY     -1288.364090650619
Dispersion correction            ... done

DIPOLE MOMENT
-------------
                                X             Y             Z
Electronic contribution:     39.42491     -76.81986      87.87339
Nuclear contribution   :    -40.08222      76.35871     -87.44210
                        -----------------------------------------
Total Dipole Moment    :     -0.65731      -0.46115       0.43129
                        -----------------------------------------
Magnitude (a.u.)       :      0.91144
Magnitude (Debye)      :      2.31669

Rotational constants in cm-1:     0.010448     0.008216     0.007641
Rotational constants in MHz :   313.237618   246.321622   229.064568

                             ****ORCA TERMINATED NORMALLY****
TOTAL RUN TIME: 0 days 0 hours 23 minutes 47 seconds 152 msec
