                         Program Version 5.0.3 -  RELEASE  -
|  1> ! EnGrad PBEh-3c
|  2> %output
|  3> xyzfile=True
|  4> end
|  5> %scf
|  6> maxiter 250
|  7> end
|  8> %output
|  9> Print[P_Hirshfeld] = 1
| 10> end
| 11> % maxcore
| 12> 4000
| 13> *xyz 1 1
| 14> Ir   0.61894188  -0.76823453   0.60702088
| 15> C   -0.03026588  -2.88644861   1.34468936
| 16> C    0.40938241  -2.10115284   2.44006798
| 17> C    2.15015505  -2.27319471   0.95702070
| 18> C    0.99455507  -2.88318413   0.35765414
| 19> C    1.77750377  -1.74013357   2.21369696
| 20> N   -1.06657909  -0.10170674  -0.50672591
| 21> C   -2.45962213  -0.06367299   0.02452781
| 22> C   -2.84641397   1.29147714   0.63345640
| 23> H   -3.89752601   1.24263914   0.93900454
| 24> H   -2.76664987   2.09651238  -0.10109123
| 25> H   -2.23180529   1.55000553   1.49995201
| 26> C   -3.48579309  -0.48898355  -1.02750082
| 27> H   -2.48046276  -0.80881722   0.83009455
| 28> H   -4.44517552  -0.62370506  -0.53291568
| 29> H   -3.64501997   0.26535143  -1.80456387
| 30> H   -3.21784842  -1.43544790  -1.50648611
| 31> C   -0.83237790   0.24754016  -1.71303887
| 32> C    0.50528635   0.19595720  -2.22213466
| 33> H   -1.66552368   0.55646917  -2.35451718
| 34> C    1.67067624   0.14019859  -1.48419566
| 35> C    2.74884136  -0.10036582  -2.41715304
| 36> S    0.72173776   0.23112361  -3.92378329
| 37> C    2.39657484  -0.02228923  -3.74452072
| 38> H    1.86673532   1.07933917  -0.41476007
| 39> H    3.79666201  -0.21579142  -2.18466520
| 40> H    3.03463195  -0.03370922  -4.63701814
| 41> H   -0.98555038  -3.41076568   1.26742626
| 42> H   -0.13494054  -1.98266501   3.36490137
| 43> H    2.44294522  -1.27333433   2.94161301
| 44> O    1.98873434   2.00317886   0.27666214
| 45> O    0.37152165   1.11064382   1.50069606
| 46> C    1.11652079   2.08045013   1.19908270
| 47> C    0.90752284   3.38263235   1.92633385
| 48> H    0.86611264   4.21147064   1.22182272
| 49> H    1.73998895   3.61343315   2.58637089
| 50> H    0.00138653   3.46195955   2.54844990
| 51> H    3.10347617  -2.12438220   0.47732347
| 52> H    0.96034592  -3.42438143  -0.57726184
| 53> *
| 54>
| 55>                          ****END OF INPUT****

CARTESIAN COORDINATES (ANGSTROEM)
---------------------------------
  Ir     0.618942   -0.768235    0.607021
  C     -0.030266   -2.886449    1.344689
  C      0.409382   -2.101153    2.440068
  C      2.150155   -2.273195    0.957021
  C      0.994555   -2.883184    0.357654
  C      1.777504   -1.740134    2.213697
  N     -1.066579   -0.101707   -0.506726
  C     -2.459622   -0.063673    0.024528
  C     -2.846414    1.291477    0.633456
  H     -3.897526    1.242639    0.939005
  H     -2.766650    2.096512   -0.101091
  H     -2.231805    1.550006    1.499952
  C     -3.485793   -0.488984   -1.027501
  H     -2.480463   -0.808817    0.830095
  H     -4.445176   -0.623705   -0.532916
  H     -3.645020    0.265351   -1.804564
  H     -3.217848   -1.435448   -1.506486
  C     -0.832378    0.247540   -1.713039
  C      0.505286    0.195957   -2.222135
  H     -1.665524    0.556469   -2.354517
  C      1.670676    0.140199   -1.484196
  C      2.748841   -0.100366   -2.417153
  S      0.721738    0.231124   -3.923783
  C      2.396575   -0.022289   -3.744521
  H      1.866735    1.079339   -0.414760
  H      3.796662   -0.215791   -2.184665
  H      3.034632   -0.033709   -4.637018
  H     -0.985550   -3.410766    1.267426
  H     -0.134941   -1.982665    3.364901
  H      2.442945   -1.273334    2.941613
  O      1.988734    2.003179    0.276662
  O      0.371522    1.110644    1.500696
  C      1.116521    2.080450    1.199083
  C      0.907523    3.382632    1.926334
  H      0.866113    4.211471    1.221823
  H      1.739989    3.613433    2.586371
  H      0.001387    3.461960    2.548450
  H      3.103476   -2.124382    0.477323
  H      0.960346   -3.424381   -0.577262

 Total Charge           Charge          ....    1
 Multiplicity           Mult            ....    1
 Number of Electrons    NEL             ....  164
 Basis Dimension        Dim             ....  358

ORBITAL ENERGIES
----------------

  NO   OCC          E(Eh)            E(eV)
   0   2.0000     -89.742294     -2442.0120
   1   2.0000     -19.646088      -534.5972
   2   2.0000     -19.635349      -534.3050
   3   2.0000     -14.824602      -403.3979
   4   2.0000     -10.714626      -291.5598
   5   2.0000     -10.647033      -289.7205
   6   2.0000     -10.640208      -289.5348
   7   2.0000     -10.627501      -289.1890
   8   2.0000     -10.627225      -289.1815
   9   2.0000     -10.623374      -289.0767
  10   2.0000     -10.615074      -288.8509
  11   2.0000     -10.612697      -288.7862
  12   2.0000     -10.607798      -288.6529
  13   2.0000     -10.599198      -288.4188
  14   2.0000     -10.585022      -288.0331
  15   2.0000     -10.576928      -287.8128
  16   2.0000     -10.555618      -287.2330
  17   2.0000     -10.549541      -287.0676
  18   2.0000     -10.543965      -286.9159
  19   2.0000      -8.382295      -228.0939
  20   2.0000      -6.272165      -170.6743
  21   2.0000      -6.268709      -170.5802
  22   2.0000      -6.267169      -170.5383
  23   2.0000      -4.019230      -109.3688
  24   2.0000      -2.335623       -63.5555
  25   2.0000      -2.303607       -62.6843
  26   2.0000      -2.301727       -62.6332
  27   2.0000      -1.340820       -36.4856
  28   2.0000      -1.241004       -33.7694
  29   2.0000      -1.193921       -32.4882
  30   2.0000      -1.162705       -31.6388
  31   2.0000      -1.108857       -30.1735
  32   2.0000      -1.010482       -27.4966
  33   2.0000      -0.974436       -26.5157
  34   2.0000      -0.967042       -26.3146
  35   2.0000      -0.953436       -25.9443
  36   2.0000      -0.950712       -25.8702
  37   2.0000      -0.940371       -25.5888
  38   2.0000      -0.889872       -24.2147
  39   2.0000      -0.857885       -23.3442
  40   2.0000      -0.795223       -21.6391
  41   2.0000      -0.782556       -21.2944
  42   2.0000      -0.779424       -21.2092
  43   2.0000      -0.777490       -21.1566
  44   2.0000      -0.764483       -20.8026
  45   2.0000      -0.760487       -20.6939
  46   2.0000      -0.740234       -20.1428
  47   2.0000      -0.718929       -19.5631
  48   2.0000      -0.682136       -18.5619
  49   2.0000      -0.675217       -18.3736
  50   2.0000      -0.669936       -18.2299
  51   2.0000      -0.655733       -17.8434
  52   2.0000      -0.645520       -17.5655
  53   2.0000      -0.634671       -17.2703
  54   2.0000      -0.631170       -17.1750
  55   2.0000      -0.626969       -17.0607
  56   2.0000      -0.615812       -16.7571
  57   2.0000      -0.602089       -16.3837
  58   2.0000      -0.598503       -16.2861
  59   2.0000      -0.596606       -16.2345
  60   2.0000      -0.586169       -15.9505
  61   2.0000      -0.582926       -15.8622
  62   2.0000      -0.569451       -15.4956
  63   2.0000      -0.565878       -15.3983
  64   2.0000      -0.561345       -15.2750
  65   2.0000      -0.559093       -15.2137
  66   2.0000      -0.554466       -15.0878
  67   2.0000      -0.537030       -14.6133
  68   2.0000      -0.534742       -14.5511
  69   2.0000      -0.526159       -14.3175
  70   2.0000      -0.522159       -14.2087
  71   2.0000      -0.517005       -14.0684
  72   2.0000      -0.509769       -13.8715
  73   2.0000      -0.496322       -13.5056
  74   2.0000      -0.493454       -13.4276
  75   2.0000      -0.473561       -12.8862
  76   2.0000      -0.463322       -12.6076
  77   2.0000      -0.450055       -12.2466
  78   2.0000      -0.439027       -11.9465
  79   2.0000      -0.419004       -11.4017
  80   2.0000      -0.408446       -11.1144
  81   2.0000      -0.393475       -10.7070
  82   0.0000      -0.200771        -5.4632
  83   0.0000      -0.167347        -4.5537
  84   0.0000      -0.151431        -4.1207
  85   0.0000      -0.085914        -2.3378
  86   0.0000      -0.076540        -2.0828

MULLIKEN ATOMIC CHARGES
-----------------------
   0 Ir:    0.586429
   1 C :   -0.141410
   2 C :   -0.260459
   3 C :   -0.166643
   4 C :   -0.346731
   5 C :   -0.242064
   6 N :   -0.450686
   7 C :   -0.113464
   8 C :   -0.632142
   9 H :    0.246029
  10 H :    0.225067
  11 H :    0.260144
  12 C :   -0.680872
  13 H :    0.247014
  14 H :    0.266063
  15 H :    0.228845
  16 H :    0.247833
  17 C :    0.081128
  18 C :   -0.166822
  19 H :    0.275989
  20 C :   -0.383243
  21 C :   -0.204821
  22 S :    0.302327
  23 C :   -0.392991
  24 H :    0.512530
  25 H :    0.254798
  26 H :    0.295448
  27 H :    0.287844
  28 H :    0.287267
  29 H :    0.289211
  30 O :   -0.535822
  31 O :   -0.484176
  32 C :    0.648089
  33 C :   -0.760147
  34 H :    0.279425
  35 H :    0.283873
  36 H :    0.270777
  37 H :    0.298287
  38 H :    0.288076
Sum of atomic charges:    1.0000000

LOEWDIN ATOMIC CHARGES
----------------------
   0 Ir:   -0.226138
   1 C :   -0.006907
   2 C :   -0.064882
   3 C :   -0.028137
   4 C :   -0.104577
   5 C :   -0.067868
   6 N :   -0.028871
   7 C :   -0.059587
   8 C :   -0.351760
   9 H :    0.146739
  10 H :    0.135078
  11 H :    0.146976
  12 C :   -0.362998
  13 H :    0.139580
  14 H :    0.153398
  15 H :    0.133592
  16 H :    0.140304
  17 C :    0.027780
  18 C :   -0.213651
  19 H :    0.155960
  20 C :   -0.204520
  21 C :   -0.150351
  22 S :    0.458573
  23 C :   -0.263690
  24 H :    0.352351
  25 H :    0.154175
  26 H :    0.169736
  27 H :    0.183400
  28 H :    0.182586
  29 H :    0.187315
  30 O :   -0.268190
  31 O :   -0.159926
  32 C :    0.197070
  33 C :   -0.376790
  34 H :    0.169295
  35 H :    0.173345
  36 H :    0.160074
  37 H :    0.187560
  38 H :    0.183956

  Mayer bond orders larger than 0.100000
B(  0-Ir,  1-C ) :   0.3307 B(  0-Ir,  2-C ) :   0.4134 B(  0-Ir,  3-C ) :   0.4277
B(  0-Ir,  4-C ) :   0.4854 B(  0-Ir,  5-C ) :   0.4400 B(  0-Ir,  6-N ) :   0.4844
B(  0-Ir, 20-C ) :   0.4002 B(  0-Ir, 31-O ) :   0.4951 B(  1-C ,  2-C ) :   1.2337
B(  1-C ,  4-C ) :   1.1875 B(  1-C , 27-H ) :   0.9082 B(  2-C ,  5-C ) :   1.1214
B(  2-C , 28-H ) :   0.9150 B(  3-C ,  4-C ) :   1.1290 B(  3-C ,  5-C ) :   1.2215
B(  3-C , 37-H ) :   0.8971 B(  4-C , 38-H ) :   0.9132 B(  5-C , 29-H ) :   0.9129
B(  6-N ,  7-C ) :   0.8899 B(  6-N , 17-C ) :   1.6414 B(  7-C ,  8-C ) :   0.9746
B(  7-C , 12-C ) :   0.9860 B(  7-C , 13-H ) :   0.8957 B(  8-C ,  9-H ) :   0.9070
B(  8-C , 10-H ) :   0.9174 B(  8-C , 11-H ) :   0.9070 B( 12-C , 14-H ) :   0.9052
B( 12-C , 15-H ) :   0.9110 B( 12-C , 16-H ) :   0.9148 B( 17-C , 18-C ) :   1.1037
B( 17-C , 19-H ) :   0.8758 B( 18-C , 20-C ) :   1.2959 B( 18-C , 22-S ) :   1.1924
B( 20-C , 21-C ) :   1.3210 B( 20-C , 24-H ) :   0.2901 B( 21-C , 23-C ) :   1.5394
B( 21-C , 25-H ) :   0.9071 B( 22-S , 23-C ) :   1.2230 B( 23-C , 26-H ) :   0.8882
B( 24-H , 30-O ) :   0.3646 B( 30-O , 32-C ) :   1.4573 B( 31-O , 32-C ) :   1.4480
B( 32-C , 33-C ) :   0.9494 B( 33-C , 34-H ) :   0.8927 B( 33-C , 35-H ) :   0.8885
B( 33-C , 36-H ) :   0.9055

Dispersion correction           -0.029478565
FINAL SINGLE POINT ENERGY     -1288.369283795220
Dispersion correction            ... done

DIPOLE MOMENT
-------------
                                X             Y             Z
Electronic contribution:     38.03051     -75.37047      88.16337
Nuclear contribution   :    -38.68727      74.82314     -87.82266
                        -----------------------------------------
Total Dipole Moment    :     -0.65676      -0.54734       0.34072
                        -----------------------------------------
Magnitude (a.u.)       :      0.92033
Magnitude (Debye)      :      2.33929

Rotational constants in cm-1:     0.010455     0.008165     0.007606
Rotational constants in MHz :   313.442082   244.770678   228.017511

                             ****ORCA TERMINATED NORMALLY****
TOTAL RUN TIME: 0 days 0 hours 23 minutes 36 seconds 213 msec
