                         Program Version 5.0.3 -  RELEASE  -
|  1> ! EnGrad PBEh-3c
|  2> %output
|  3> xyzfile=True
|  4> end
|  5> %scf
|  6> maxiter 250
|  7> end
|  8> %output
|  9> Print[P_Hirshfeld] = 1
| 10> end
| 11> % maxcore
| 12> 4000
| 13> *xyz 1 1
| 14> Sc   1.64257224  -1.22154965  -1.52713483
| 15> C    0.33847718  -0.57283745   0.20541959
| 16> N   -0.47847421  -1.36041542   0.92918103
| 17> C   -0.78917048  -0.77296416   2.12425028
| 18> C   -0.13809286   0.41508414   2.14531019
| 19> N    0.56773574   0.50946690   0.97934181
| 20> C    1.42661216   1.63444322   0.65891664
| 21> H    1.53146304   2.37206965   1.45213363
| 22> H    1.02323495   2.16766308  -0.19752044
| 23> H    2.43313996   1.29899905   0.41644659
| 24> C   -0.98531797  -2.67109240   0.55067454
| 25> H   -0.60015854  -2.95926699  -0.42479631
| 26> H   -2.07126832  -2.64808697   0.49685214
| 27> H   -0.67247612  -3.42154195   1.27389249
| 28> H   -1.42454277  -1.23129628   2.86391651
| 29> H   -0.13711699   1.15632825   2.92639742
| 30> C   -0.25625162   1.64707345  -2.88472981
| 31> H   -1.00080712   1.70644969  -3.69025018
| 32> H    0.33428075   2.55890641  -2.98502231
| 33> H   -0.82845438   1.67766686  -1.95851135
| 34> H    0.08463973  -0.28508818  -3.35477327
| 35> *
| 36>
| 37>                          ****END OF INPUT****

CARTESIAN COORDINATES (ANGSTROEM)
---------------------------------
  Sc     1.642572   -1.221550   -1.527135
  C      0.338477   -0.572837    0.205420
  N     -0.478474   -1.360415    0.929181
  C     -0.789170   -0.772964    2.124250
  C     -0.138093    0.415084    2.145310
  N      0.567736    0.509467    0.979342
  C      1.426612    1.634443    0.658917
  H      1.531463    2.372070    1.452134
  H      1.023235    2.167663   -0.197520
  H      2.433140    1.298999    0.416447
  C     -0.985318   -2.671092    0.550675
  H     -0.600159   -2.959267   -0.424796
  H     -2.071268   -2.648087    0.496852
  H     -0.672476   -3.421542    1.273892
  H     -1.424543   -1.231296    2.863917
  H     -0.137117    1.156328    2.926397
  C     -0.256252    1.647073   -2.884730
  H     -1.000807    1.706450   -3.690250
  H      0.334281    2.558906   -2.985022
  H     -0.828454    1.677667   -1.958511
  H      0.084640   -0.285088   -3.354773

 Total Charge           Charge          ....    1
 Multiplicity           Mult            ....    1
 Number of Electrons    NEL             ....   82
 Basis Dimension        Dim             ....  175

ORBITAL ENERGIES
----------------

  NO   OCC          E(Eh)            E(eV)
   0   2.0000    -162.901881     -4432.7855
   1   2.0000     -18.209908      -495.5168
   2   2.0000     -15.051691      -409.5773
   3   2.0000     -15.046973      -409.4489
   4   2.0000     -15.036346      -409.1598
   5   2.0000     -14.865398      -404.5080
   6   2.0000     -14.864424      -404.4815
   7   2.0000     -10.645912      -289.6900
   8   2.0000     -10.627618      -289.1922
   9   2.0000     -10.624982      -289.1204
  10   2.0000     -10.623247      -289.0733
  11   2.0000     -10.620172      -288.9896
  12   2.0000     -10.589956      -288.1673
  13   2.0000      -2.419194       -65.8296
  14   2.0000      -1.570222       -42.7279
  15   2.0000      -1.556818       -42.3632
  16   2.0000      -1.552498       -42.2456
  17   2.0000      -1.311522       -35.6883
  18   2.0000      -1.189725       -32.3741
  19   2.0000      -1.023844       -27.8602
  20   2.0000      -0.982065       -26.7233
  21   2.0000      -0.928155       -25.2564
  22   2.0000      -0.877048       -23.8657
  23   2.0000      -0.843823       -22.9616
  24   2.0000      -0.805920       -21.9302
  25   2.0000      -0.753001       -20.4902
  26   2.0000      -0.703962       -19.1558
  27   2.0000      -0.675842       -18.3906
  28   2.0000      -0.661893       -18.0110
  29   2.0000      -0.657839       -17.9007
  30   2.0000      -0.649319       -17.6689
  31   2.0000      -0.600436       -16.3387
  32   2.0000      -0.598904       -16.2970
  33   2.0000      -0.591868       -16.1055
  34   2.0000      -0.578267       -15.7354
  35   2.0000      -0.562846       -15.3158
  36   2.0000      -0.516471       -14.0539
  37   2.0000      -0.488108       -13.2821
  38   2.0000      -0.461019       -12.5450
  39   2.0000      -0.434789       -11.8312
  40   2.0000      -0.317177        -8.6308
  41   0.0000      -0.202402        -5.5076
  42   0.0000      -0.186256        -5.0683
  43   0.0000      -0.180127        -4.9015
  44   0.0000      -0.171498        -4.6667
  45   0.0000      -0.160171        -4.3585

MULLIKEN ATOMIC CHARGES
-----------------------
   0 Sc:    0.534656
   1 C :    0.224963
   2 N :   -0.415624
   3 C :   -0.067166
   4 C :   -0.066031
   5 N :   -0.420167
   6 C :   -0.538512
   7 H :    0.289001
   8 H :    0.274396
   9 H :    0.260025
  10 C :   -0.517827
  11 H :    0.251350
  12 H :    0.283825
  13 H :    0.274161
  14 H :    0.304137
  15 H :    0.303793
  16 C :   -0.785913
  17 H :    0.274763
  18 H :    0.254612
  19 H :    0.234696
  20 H :    0.046862
Sum of atomic charges:    1.0000000

LOEWDIN ATOMIC CHARGES
----------------------
   0 Sc:    0.357259
   1 C :   -0.036920
   2 N :    0.006502
   3 C :   -0.085628
   4 C :   -0.078505
   5 N :    0.003094
   6 C :   -0.243999
   7 H :    0.162693
   8 H :    0.150351
   9 H :    0.148902
  10 C :   -0.237142
  11 H :    0.148623
  12 H :    0.157489
  13 H :    0.153229
  14 H :    0.169039
  15 H :    0.167821
  16 C :   -0.466113
  17 H :    0.152821
  18 H :    0.149855
  19 H :    0.134475
  20 H :    0.086151

  Mayer bond orders larger than 0.100000
B(  0-Sc,  1-C ) :   0.7179 B(  0-Sc, 16-C ) :   0.3199 B(  0-Sc, 20-H ) :   0.3500
B(  1-C ,  2-N ) :   1.2275 B(  1-C ,  5-N ) :   1.2119 B(  2-N ,  3-C ) :   1.1518
B(  2-N , 10-C ) :   0.9104 B(  3-C ,  4-C ) :   1.6339 B(  3-C , 14-H ) :   0.8776
B(  4-C ,  5-N ) :   1.1481 B(  4-C , 15-H ) :   0.8778 B(  5-N ,  6-C ) :   0.9113
B(  6-C ,  7-H ) :   0.9005 B(  6-C ,  8-H ) :   0.8908 B(  6-C ,  9-H ) :   0.8925
B( 10-C , 11-H ) :   0.8972 B( 10-C , 12-H ) :   0.8930 B( 10-C , 13-H ) :   0.8957
B( 16-C , 17-H ) :   0.9045 B( 16-C , 18-H ) :   0.9061 B( 16-C , 19-H ) :   0.9074
B( 16-C , 20-H ) :   0.6339

Dispersion correction           -0.011210784
FINAL SINGLE POINT ENERGY     -1104.305849223820
Dispersion correction            ... done

DIPOLE MOMENT
-------------
                                X             Y             Z
Electronic contribution:     10.06316      -9.58399      -1.72854
Nuclear contribution   :     -9.50812       9.30720       1.86079
                        -----------------------------------------
Total Dipole Moment    :      0.55503      -0.27679       0.13225
                        -----------------------------------------
Magnitude (a.u.)       :      0.63417
Magnitude (Debye)      :      1.61192

Rotational constants in cm-1:     0.042347     0.029369     0.022756
Rotational constants in MHz :  1269.533872   880.470218   682.221237

                             ****ORCA TERMINATED NORMALLY****
TOTAL RUN TIME: 0 days 0 hours 5 minutes 1 seconds 619 msec
