                         Program Version 5.0.3 -  RELEASE  -
|  1> ! EnGrad PBEh-3c
|  2> %output
|  3> xyzfile=True
|  4> end
|  5> %scf
|  6> maxiter 250
|  7> end
|  8> %output
|  9> Print[P_Hirshfeld] = 1
| 10> end
| 11> % maxcore
| 12> 4000
| 13> *xyz 1 1
| 14> Sc   1.57423449  -1.15542980  -1.59278687
| 15> C    0.38783680  -0.58622245   0.20453987
| 16> N   -0.48796909  -1.35363147   0.93059891
| 17> C   -0.77627803  -0.76060493   2.12667029
| 18> C   -0.14534112   0.39049912   2.17940282
| 19> N    0.53826518   0.52694467   1.01747356
| 20> C    1.42902925   1.65045617   0.61624887
| 21> H    1.49052888   2.36066923   1.47187074
| 22> H    1.02832396   2.16514488  -0.20910321
| 23> H    2.43547676   1.29786212   0.43803456
| 24> C   -0.97938930  -2.66308854   0.54498774
| 25> H   -0.60749437  -2.94508447  -0.43300299
| 26> H   -2.06876530  -2.65154440   0.50545246
| 27> H   -0.66059580  -3.41947006   1.26846687
| 28> H   -1.41651364  -1.23798809   2.86568240
| 29> H   -0.11916356   1.15431810   2.93176791
| 30> C   -0.35881947   1.57715294  -2.95120469
| 31> H   -0.95156086   1.68101214  -3.69086756
| 32> H    0.43992341   2.48954943  -2.99137145
| 33> H   -0.79416677   1.65167651  -1.95971440
| 34> H    0.04388784  -0.17056716  -3.27435729
| 35> *
| 36>
| 37>                          ****END OF INPUT****

CARTESIAN COORDINATES (ANGSTROEM)
---------------------------------
  Sc     1.574234   -1.155430   -1.592787
  C      0.387837   -0.586222    0.204540
  N     -0.487969   -1.353631    0.930599
  C     -0.776278   -0.760605    2.126670
  C     -0.145341    0.390499    2.179403
  N      0.538265    0.526945    1.017474
  C      1.429029    1.650456    0.616249
  H      1.490529    2.360669    1.471871
  H      1.028324    2.165145   -0.209103
  H      2.435477    1.297862    0.438035
  C     -0.979389   -2.663089    0.544988
  H     -0.607494   -2.945084   -0.433003
  H     -2.068765   -2.651544    0.505452
  H     -0.660596   -3.419470    1.268467
  H     -1.416514   -1.237988    2.865682
  H     -0.119164    1.154318    2.931768
  C     -0.358819    1.577153   -2.951205
  H     -0.951561    1.681012   -3.690868
  H      0.439923    2.489549   -2.991371
  H     -0.794167    1.651677   -1.959714
  H      0.043888   -0.170567   -3.274357

 Total Charge           Charge          ....    1
 Multiplicity           Mult            ....    1
 Number of Electrons    NEL             ....   82
 Basis Dimension        Dim             ....  175

ORBITAL ENERGIES
----------------

  NO   OCC          E(Eh)            E(eV)
   0   2.0000    -162.893848     -4432.5670
   1   2.0000     -18.202462      -495.3142
   2   2.0000     -15.044177      -409.3729
   3   2.0000     -15.040004      -409.2593
   4   2.0000     -15.028274      -408.9401
   5   2.0000     -14.862338      -404.4248
   6   2.0000     -14.860968      -404.3875
   7   2.0000     -10.648333      -289.7559
   8   2.0000     -10.624388      -289.1043
   9   2.0000     -10.623613      -289.0832
  10   2.0000     -10.620799      -289.0066
  11   2.0000     -10.617435      -288.9151
  12   2.0000     -10.598688      -288.4050
  13   2.0000      -2.413425       -65.6726
  14   2.0000      -1.564012       -42.5589
  15   2.0000      -1.552346       -42.2415
  16   2.0000      -1.546812       -42.0909
  17   2.0000      -1.302924       -35.4544
  18   2.0000      -1.179256       -32.0892
  19   2.0000      -1.027063       -27.9478
  20   2.0000      -0.973320       -26.4854
  21   2.0000      -0.927733       -25.2449
  22   2.0000      -0.895480       -24.3673
  23   2.0000      -0.832525       -22.6542
  24   2.0000      -0.808203       -21.9923
  25   2.0000      -0.749808       -20.4033
  26   2.0000      -0.699611       -19.0374
  27   2.0000      -0.666266       -18.1300
  28   2.0000      -0.658750       -17.9255
  29   2.0000      -0.655504       -17.8372
  30   2.0000      -0.644528       -17.5385
  31   2.0000      -0.619450       -16.8561
  32   2.0000      -0.603974       -16.4350
  33   2.0000      -0.594642       -16.1810
  34   2.0000      -0.590947       -16.0805
  35   2.0000      -0.558397       -15.1948
  36   2.0000      -0.526130       -14.3167
  37   2.0000      -0.490298       -13.3417
  38   2.0000      -0.486206       -13.2303
  39   2.0000      -0.436438       -11.8761
  40   2.0000      -0.315672        -8.5899
  41   0.0000      -0.190950        -5.1960
  42   0.0000      -0.186539        -5.0760
  43   0.0000      -0.175250        -4.7688
  44   0.0000      -0.166947        -4.5428
  45   0.0000      -0.155611        -4.2344

MULLIKEN ATOMIC CHARGES
-----------------------
   0 Sc:    0.526614
   1 C :    0.203434
   2 N :   -0.422581
   3 C :   -0.055706
   4 C :   -0.050365
   5 N :   -0.444435
   6 C :   -0.520608
   7 H :    0.273206
   8 H :    0.274133
   9 H :    0.267312
  10 C :   -0.518918
  11 H :    0.252122
  12 H :    0.280275
  13 H :    0.272285
  14 H :    0.299932
  15 H :    0.299810
  16 C :   -0.765069
  17 H :    0.314406
  18 H :    0.219513
  19 H :    0.241330
  20 H :    0.053311
Sum of atomic charges:    1.0000000

LOEWDIN ATOMIC CHARGES
----------------------
   0 Sc:    0.327768
   1 C :   -0.027062
   2 N :    0.002737
   3 C :   -0.085930
   4 C :   -0.077903
   5 N :   -0.010944
   6 C :   -0.235232
   7 H :    0.158888
   8 H :    0.146142
   9 H :    0.152810
  10 C :   -0.239750
  11 H :    0.148673
  12 H :    0.155959
  13 H :    0.152642
  14 H :    0.169150
  15 H :    0.167093
  16 C :   -0.428420
  17 H :    0.141411
  18 H :    0.149947
  19 H :    0.138413
  20 H :    0.093609

  Mayer bond orders larger than 0.100000
B(  0-Sc,  1-C ) :   0.7176 B(  0-Sc, 16-C ) :   0.2543 B(  0-Sc, 20-H ) :   0.2829
B(  1-C ,  2-N ) :   1.2209 B(  1-C ,  5-N ) :   1.1993 B(  2-N ,  3-C ) :   1.1461
B(  2-N , 10-C ) :   0.9146 B(  3-C ,  4-C ) :   1.6274 B(  3-C , 14-H ) :   0.8804
B(  4-C ,  5-N ) :   1.1504 B(  4-C , 15-H ) :   0.8806 B(  5-N ,  6-C ) :   0.9030
B(  6-C ,  7-H ) :   0.9096 B(  6-C ,  8-H ) :   0.8914 B(  6-C ,  9-H ) :   0.8904
B( 10-C , 11-H ) :   0.8963 B( 10-C , 12-H ) :   0.8940 B( 10-C , 13-H ) :   0.8962
B( 16-C , 17-H ) :   0.8770 B( 16-C , 18-H ) :   0.9292 B( 16-C , 19-H ) :   0.9073
B( 16-C , 20-H ) :   0.7039

Dispersion correction           -0.011271130
FINAL SINGLE POINT ENERGY     -1104.311978470755
Dispersion correction            ... done

DIPOLE MOMENT
-------------
                                X             Y             Z
Electronic contribution:      9.41618      -9.03515      -2.38299
Nuclear contribution   :     -8.96765       8.97686       2.31544
                        -----------------------------------------
Total Dipole Moment    :      0.44853      -0.05829      -0.06755
                        -----------------------------------------
Magnitude (a.u.)       :      0.45732
Magnitude (Debye)      :      1.16241

Rotational constants in cm-1:     0.043391     0.028967     0.022678
Rotational constants in MHz :  1300.819556   868.402277   679.859562

                             ****ORCA TERMINATED NORMALLY****
TOTAL RUN TIME: 0 days 0 hours 4 minutes 32 seconds 698 msec
