                         Program Version 5.0.3 -  RELEASE  -
|  1> ! EnGrad PBEh-3c
|  2> %output
|  3> xyzfile=True
|  4> end
|  5> %scf
|  6> maxiter 250
|  7> end
|  8> %output
|  9> Print[P_Hirshfeld] = 1
| 10> end
| 11> % maxcore
| 12> 4000
| 13> *xyz 1 1
| 14> Sc   1.51112858  -1.09308925  -1.65726124
| 15> C    0.40486102  -0.58227519   0.23882093
| 16> N   -0.47761816  -1.34199334   0.91884395
| 17> C   -0.79164852  -0.79174333   2.13716625
| 18> C   -0.13280979   0.40677456   2.20613173
| 19> N    0.53874579   0.53183837   1.00843123
| 20> C    1.42194745   1.65428187   0.63134849
| 21> H    1.45489640   2.34862703   1.47477300
| 22> H    1.02575121   2.17160408  -0.23669950
| 23> H    2.43992877   1.29636920   0.45637683
| 24> C   -0.97781052  -2.65892212   0.54682096
| 25> H   -0.61333108  -2.93137686  -0.44269784
| 26> H   -2.06511648  -2.65492114   0.51345968
| 27> H   -0.64938343  -3.41583245   1.26048851
| 28> H   -1.40514895  -1.24160971   2.86364703
| 29> H   -0.10528157   1.15105753   2.94231936
| 30> C   -0.32005711   1.52502912  -2.91406164
| 31> H   -0.98534063   1.67042565  -3.77995556
| 32> H    0.50260230   2.38775948  -3.00034212
| 33> H   -0.77355849   1.62742113  -1.96666714
| 34> H   -0.00010126  -0.05626971  -3.20262231
| 35> *
| 36>
| 37>                          ****END OF INPUT****

CARTESIAN COORDINATES (ANGSTROEM)
---------------------------------
  Sc     1.511129   -1.093089   -1.657261
  C      0.404861   -0.582275    0.238821
  N     -0.477618   -1.341993    0.918844
  C     -0.791649   -0.791743    2.137166
  C     -0.132810    0.406775    2.206132
  N      0.538746    0.531838    1.008431
  C      1.421947    1.654282    0.631348
  H      1.454896    2.348627    1.474773
  H      1.025751    2.171604   -0.236699
  H      2.439929    1.296369    0.456377
  C     -0.977811   -2.658922    0.546821
  H     -0.613331   -2.931377   -0.442698
  H     -2.065116   -2.654921    0.513460
  H     -0.649383   -3.415832    1.260489
  H     -1.405149   -1.241610    2.863647
  H     -0.105282    1.151058    2.942319
  C     -0.320057    1.525029   -2.914062
  H     -0.985341    1.670426   -3.779956
  H      0.502602    2.387759   -3.000342
  H     -0.773558    1.627421   -1.966667
  H     -0.000101   -0.056270   -3.202622

 Total Charge           Charge          ....    1
 Multiplicity           Mult            ....    1
 Number of Electrons    NEL             ....   82
 Basis Dimension        Dim             ....  175

ORBITAL ENERGIES
----------------

  NO   OCC          E(Eh)            E(eV)
   0   2.0000    -162.887197     -4432.3860
   1   2.0000     -18.195417      -495.1225
   2   2.0000     -15.037417      -409.1889
   3   2.0000     -15.032626      -409.0585
   4   2.0000     -15.021334      -408.7513
   5   2.0000     -14.861913      -404.4132
   6   2.0000     -14.860204      -404.3667
   7   2.0000     -10.643530      -289.6252
   8   2.0000     -10.627346      -289.1848
   9   2.0000     -10.624852      -289.1169
  10   2.0000     -10.623591      -289.0826
  11   2.0000     -10.617061      -288.9049
  12   2.0000     -10.608298      -288.6665
  13   2.0000      -2.407710       -65.5171
  14   2.0000      -1.559431       -42.4343
  15   2.0000      -1.546027       -42.0695
  16   2.0000      -1.541353       -41.9423
  17   2.0000      -1.302156       -35.4335
  18   2.0000      -1.180085       -32.1117
  19   2.0000      -1.017986       -27.7008
  20   2.0000      -0.977677       -26.6039
  21   2.0000      -0.923232       -25.1224
  22   2.0000      -0.889822       -24.2133
  23   2.0000      -0.841191       -22.8900
  24   2.0000      -0.799881       -21.7659
  25   2.0000      -0.749776       -20.4024
  26   2.0000      -0.697809       -18.9883
  27   2.0000      -0.676659       -18.4128
  28   2.0000      -0.656015       -17.8511
  29   2.0000      -0.653817       -17.7913
  30   2.0000      -0.645492       -17.5647
  31   2.0000      -0.605948       -16.4887
  32   2.0000      -0.599278       -16.3072
  33   2.0000      -0.595965       -16.2170
  34   2.0000      -0.589948       -16.0533
  35   2.0000      -0.567607       -15.4454
  36   2.0000      -0.525801       -14.3078
  37   2.0000      -0.511887       -13.9291
  38   2.0000      -0.485008       -13.1977
  39   2.0000      -0.431522       -11.7423
  40   2.0000      -0.313636        -8.5345
  41   0.0000      -0.184703        -5.0260
  42   0.0000      -0.180178        -4.9029
  43   0.0000      -0.171835        -4.6759
  44   0.0000      -0.160199        -4.3592
  45   0.0000      -0.152247        -4.1429

MULLIKEN ATOMIC CHARGES
-----------------------
   0 Sc:    0.506218
   1 C :    0.215126
   2 N :   -0.422144
   3 C :   -0.062015
   4 C :   -0.068635
   5 N :   -0.436228
   6 C :   -0.517032
   7 H :    0.276090
   8 H :    0.263317
   9 H :    0.267245
  10 C :   -0.519298
  11 H :    0.250646
  12 H :    0.280434
  13 H :    0.274270
  14 H :    0.304954
  15 H :    0.301787
  16 C :   -0.800446
  17 H :    0.294299
  18 H :    0.235372
  19 H :    0.262295
  20 H :    0.093746
Sum of atomic charges:    1.0000000

LOEWDIN ATOMIC CHARGES
----------------------
   0 Sc:    0.311538
   1 C :   -0.036557
   2 N :    0.004264
   3 C :   -0.083104
   4 C :   -0.073259
   5 N :   -0.010457
   6 C :   -0.235711
   7 H :    0.157597
   8 H :    0.145461
   9 H :    0.153786
  10 C :   -0.238539
  11 H :    0.148035
  12 H :    0.155815
  13 H :    0.153043
  14 H :    0.166329
  15 H :    0.163450
  16 C :   -0.460557
  17 H :    0.163417
  18 H :    0.153708
  19 H :    0.138980
  20 H :    0.122762

  Mayer bond orders larger than 0.100000
B(  0-Sc,  1-C ) :   0.7163 B(  0-Sc, 16-C ) :   0.2203 B(  0-Sc, 20-H ) :   0.2403
B(  1-C ,  2-N ) :   1.2244 B(  1-C ,  5-N ) :   1.2081 B(  2-N ,  3-C ) :   1.1486
B(  2-N , 10-C ) :   0.9122 B(  3-C ,  4-C ) :   1.6346 B(  3-C , 14-H ) :   0.8773
B(  4-C ,  5-N ) :   1.1476 B(  4-C , 15-H ) :   0.8791 B(  5-N ,  6-C ) :   0.9044
B(  6-C ,  7-H ) :   0.9066 B(  6-C ,  8-H ) :   0.8965 B(  6-C ,  9-H ) :   0.8907
B( 10-C , 11-H ) :   0.8972 B( 10-C , 12-H ) :   0.8941 B( 10-C , 13-H ) :   0.8954
B( 16-C , 17-H ) :   0.8897 B( 16-C , 18-H ) :   0.9165 B( 16-C , 19-H ) :   0.8910
B( 16-C , 20-H ) :   0.7384

Dispersion correction           -0.011306073
FINAL SINGLE POINT ENERGY     -1104.359558947975
Dispersion correction            ... done

DIPOLE MOMENT
-------------
                                X             Y             Z
Electronic contribution:      9.01505      -8.64609      -2.78595
Nuclear contribution   :     -8.67362       8.65675       2.54820
                        -----------------------------------------
Total Dipole Moment    :      0.34143       0.01066      -0.23775
                        -----------------------------------------
Magnitude (a.u.)       :      0.41619
Magnitude (Debye)      :      1.05787

Rotational constants in cm-1:     0.044863     0.029018     0.022601
Rotational constants in MHz :  1344.949369   869.943595   677.575910

                             ****ORCA TERMINATED NORMALLY****
TOTAL RUN TIME: 0 days 0 hours 4 minutes 6 seconds 961 msec
