                         Program Version 5.0.3 -  RELEASE  -
|  1> ! EnGrad PBEh-3c
|  2> %output
|  3> xyzfile=True
|  4> end
|  5> %scf
|  6> maxiter 250
|  7> end
|  8> %output
|  9> Print[P_Hirshfeld] = 1
| 10> end
| 11> % maxcore
| 12> 4000
| 13> *xyz 1 1
| 14> Sc   1.46544774  -1.04968898  -1.70090621
| 15> C    0.39863959  -0.56939652   0.25504118
| 16> N   -0.47377984  -1.34473544   0.92509204
| 17> C   -0.77540812  -0.77872291   2.13243933
| 18> C   -0.13318078   0.38738206   2.19021661
| 19> N    0.55082581   0.53137462   1.00477654
| 20> C    1.41205183   1.65002207   0.64930203
| 21> H    1.43769697   2.34812457   1.47211947
| 22> H    1.02683656   2.17225398  -0.24765842
| 23> H    2.43917852   1.29943656   0.46826352
| 24> C   -0.97410520  -2.65677027   0.54424203
| 25> H   -0.61760450  -2.92381321  -0.44745559
| 26> H   -2.06289384  -2.65569115   0.51844050
| 27> H   -0.64164889  -3.41312218   1.25497710
| 28> H   -1.40898355  -1.25425274   2.87297844
| 29> H   -0.09882485   1.16002039   2.96280968
| 30> C   -0.27190450   1.50501470  -2.93608276
| 31> H   -0.98331789   1.66091802  -3.79569133
| 32> H    0.51328308   2.31350269  -3.00254340
| 33> H   -0.77939559   1.62018798  -1.95649954
| 34> H   -0.01976216   0.00207866  -3.16567396
| 35> *
| 36>
| 37>                          ****END OF INPUT****

CARTESIAN COORDINATES (ANGSTROEM)
---------------------------------
  Sc     1.465448   -1.049689   -1.700906
  C      0.398640   -0.569397    0.255041
  N     -0.473780   -1.344735    0.925092
  C     -0.775408   -0.778723    2.132439
  C     -0.133181    0.387382    2.190217
  N      0.550826    0.531375    1.004777
  C      1.412052    1.650022    0.649302
  H      1.437697    2.348125    1.472119
  H      1.026837    2.172254   -0.247658
  H      2.439179    1.299437    0.468264
  C     -0.974105   -2.656770    0.544242
  H     -0.617604   -2.923813   -0.447456
  H     -2.062894   -2.655691    0.518440
  H     -0.641649   -3.413122    1.254977
  H     -1.408984   -1.254253    2.872978
  H     -0.098825    1.160020    2.962810
  C     -0.271904    1.505015   -2.936083
  H     -0.983318    1.660918   -3.795691
  H      0.513283    2.313503   -3.002543
  H     -0.779396    1.620188   -1.956500
  H     -0.019762    0.002079   -3.165674

 Total Charge           Charge          ....    1
 Multiplicity           Mult            ....    1
 Number of Electrons    NEL             ....   82
 Basis Dimension        Dim             ....  175

ORBITAL ENERGIES
----------------

  NO   OCC          E(Eh)            E(eV)
   0   2.0000    -162.884067     -4432.3008
   1   2.0000     -18.192022      -495.0301
   2   2.0000     -15.034197      -409.1013
   3   2.0000     -15.028771      -408.9537
   4   2.0000     -15.018269      -408.6679
   5   2.0000     -14.859284      -404.3417
   6   2.0000     -14.859012      -404.3343
   7   2.0000     -10.641264      -289.5635
   8   2.0000     -10.625175      -289.1257
   9   2.0000     -10.624880      -289.1177
  10   2.0000     -10.621002      -289.0122
  11   2.0000     -10.616874      -288.8998
  12   2.0000     -10.608857      -288.6817
  13   2.0000      -2.404978       -65.4428
  14   2.0000      -1.557669       -42.3863
  15   2.0000      -1.542271       -41.9673
  16   2.0000      -1.539006       -41.8785
  17   2.0000      -1.309443       -35.6318
  18   2.0000      -1.184951       -32.2441
  19   2.0000      -1.023616       -27.8540
  20   2.0000      -0.978560       -26.6280
  21   2.0000      -0.923557       -25.1313
  22   2.0000      -0.893265       -24.3070
  23   2.0000      -0.839830       -22.8529
  24   2.0000      -0.801944       -21.8220
  25   2.0000      -0.747437       -20.3388
  26   2.0000      -0.700810       -19.0700
  27   2.0000      -0.670912       -18.2564
  28   2.0000      -0.653906       -17.7937
  29   2.0000      -0.652417       -17.7532
  30   2.0000      -0.649462       -17.6727
  31   2.0000      -0.603009       -16.4087
  32   2.0000      -0.596871       -16.2417
  33   2.0000      -0.592412       -16.1203
  34   2.0000      -0.588475       -16.0132
  35   2.0000      -0.585588       -15.9347
  36   2.0000      -0.537518       -14.6266
  37   2.0000      -0.509821       -13.8729
  38   2.0000      -0.483930       -13.1684
  39   2.0000      -0.435215       -11.8428
  40   2.0000      -0.312307        -8.4983
  41   0.0000      -0.182704        -4.9716
  42   0.0000      -0.176620        -4.8061
  43   0.0000      -0.170476        -4.6389
  44   0.0000      -0.156613        -4.2616
  45   0.0000      -0.151234        -4.1153

MULLIKEN ATOMIC CHARGES
-----------------------
   0 Sc:    0.490339
   1 C :    0.220523
   2 N :   -0.421353
   3 C :   -0.058773
   4 C :   -0.075508
   5 N :   -0.419426
   6 C :   -0.520549
   7 H :    0.280163
   8 H :    0.255989
   9 H :    0.267796
  10 C :   -0.518941
  11 H :    0.252192
  12 H :    0.279041
  13 H :    0.274121
  14 H :    0.301191
  15 H :    0.297426
  16 C :   -0.825775
  17 H :    0.292438
  18 H :    0.258376
  19 H :    0.251383
  20 H :    0.119348
Sum of atomic charges:    1.0000000

LOEWDIN ATOMIC CHARGES
----------------------
   0 Sc:    0.302682
   1 C :   -0.036592
   2 N :    0.002060
   3 C :   -0.086043
   4 C :   -0.080592
   5 N :   -0.004931
   6 C :   -0.237988
   7 H :    0.157667
   8 H :    0.144418
   9 H :    0.154311
  10 C :   -0.238174
  11 H :    0.148771
  12 H :    0.155317
  13 H :    0.152846
  14 H :    0.169537
  15 H :    0.167396
  16 C :   -0.473446
  17 H :    0.166542
  18 H :    0.156052
  19 H :    0.142097
  20 H :    0.138072

  Mayer bond orders larger than 0.100000
B(  0-Sc,  1-C ) :   0.7153 B(  0-Sc, 16-C ) :   0.2078 B(  0-Sc, 20-H ) :   0.2226
B(  1-C ,  2-N ) :   1.2273 B(  1-C ,  5-N ) :   1.2283 B(  2-N ,  3-C ) :   1.1397
B(  2-N , 10-C ) :   0.9127 B(  3-C ,  4-C ) :   1.6554 B(  3-C , 14-H ) :   0.8794
B(  4-C ,  5-N ) :   1.1328 B(  4-C , 15-H ) :   0.8808 B(  5-N ,  6-C ) :   0.9096
B(  6-C ,  7-H ) :   0.9034 B(  6-C ,  8-H ) :   0.8994 B(  6-C ,  9-H ) :   0.8906
B( 10-C , 11-H ) :   0.8965 B( 10-C , 12-H ) :   0.8947 B( 10-C , 13-H ) :   0.8956
B( 16-C , 17-H ) :   0.8910 B( 16-C , 18-H ) :   0.9021 B( 16-C , 19-H ) :   0.8989
B( 16-C , 20-H ) :   0.7495

Dispersion correction           -0.011161594
FINAL SINGLE POINT ENERGY     -1104.380641427699
Dispersion correction            ... done

DIPOLE MOMENT
-------------
                                X             Y             Z
Electronic contribution:      8.78067      -8.37121      -3.12542
Nuclear contribution   :     -8.50083       8.42308       2.82603
                        -----------------------------------------
Total Dipole Moment    :      0.27984       0.05187      -0.29939
                        -----------------------------------------
Magnitude (a.u.)       :      0.41308
Magnitude (Debye)      :      1.04996

Rotational constants in cm-1:     0.046059     0.029029     0.022537
Rotational constants in MHz :  1380.822825   870.281386   675.628240

                             ****ORCA TERMINATED NORMALLY****
TOTAL RUN TIME: 0 days 0 hours 4 minutes 25 seconds 648 msec
