                         Program Version 5.0.3 -  RELEASE  -
|  1> ! EnGrad PBEh-3c
|  2> %output
|  3> xyzfile=True
|  4> end
|  5> %scf
|  6> maxiter 250
|  7> end
|  8> %output
|  9> Print[P_Hirshfeld] = 1
| 10> end
| 11> % maxcore
| 12> 4000
| 13> *xyz 1 1
| 14> Sc   1.36353074  -0.95561717  -1.79261549
| 15> C    0.39808592  -0.55975731   0.26364581
| 16> N   -0.46576132  -1.34683240   0.93293282
| 17> C   -0.76985562  -0.78212783   2.13859554
| 18> C   -0.12515817   0.39245201   2.19049300
| 19> N    0.56232568   0.53001335   1.01068952
| 20> C    1.40086370   1.64733979   0.65665820
| 21> H    1.40677857   2.34721437   1.47473277
| 22> H    1.03116163   2.16833759  -0.25896076
| 23> H    2.43598610   1.30542687   0.48935963
| 24> C   -0.96857799  -2.65210529   0.54072343
| 25> H   -0.62461322  -2.91078060  -0.45633920
| 26> H   -2.05829615  -2.65685217   0.52636776
| 27> H   -0.62864926  -3.40880593   1.24593965
| 28> H   -1.40665862  -1.26762718   2.87892238
| 29> H   -0.08864866   1.16060721   2.98075645
| 30> C   -0.23204114   1.45138826  -2.95998874
| 31> H   -0.95774921   1.63279995  -3.80515698
| 32> H    0.54956215   2.20405396  -3.00579824
| 33> H   -0.77490554   1.60532291  -1.95809916
| 34> H   -0.04321585   0.10150621  -3.09531604
| 35> *
| 36>
| 37>                          ****END OF INPUT****

CARTESIAN COORDINATES (ANGSTROEM)
---------------------------------
  Sc     1.363531   -0.955617   -1.792615
  C      0.398086   -0.559757    0.263646
  N     -0.465761   -1.346832    0.932933
  C     -0.769856   -0.782128    2.138596
  C     -0.125158    0.392452    2.190493
  N      0.562326    0.530013    1.010690
  C      1.400864    1.647340    0.656658
  H      1.406779    2.347214    1.474733
  H      1.031162    2.168338   -0.258961
  H      2.435986    1.305427    0.489360
  C     -0.968578   -2.652105    0.540723
  H     -0.624613   -2.910781   -0.456339
  H     -2.058296   -2.656852    0.526368
  H     -0.628649   -3.408806    1.245940
  H     -1.406659   -1.267627    2.878922
  H     -0.088649    1.160607    2.980756
  C     -0.232041    1.451388   -2.959989
  H     -0.957749    1.632800   -3.805157
  H      0.549562    2.204054   -3.005798
  H     -0.774906    1.605323   -1.958099
  H     -0.043216    0.101506   -3.095316

 Total Charge           Charge          ....    1
 Multiplicity           Mult            ....    1
 Number of Electrons    NEL             ....   82
 Basis Dimension        Dim             ....  175

ORBITAL ENERGIES
----------------

  NO   OCC          E(Eh)            E(eV)
   0   2.0000    -162.875074     -4432.0561
   1   2.0000     -18.182438      -494.7693
   2   2.0000     -15.024863      -408.8473
   3   2.0000     -15.018124      -408.6639
   4   2.0000     -15.009640      -408.4331
   5   2.0000     -14.858730      -404.3266
   6   2.0000     -14.858240      -404.3133
   7   2.0000     -10.638883      -289.4987
   8   2.0000     -10.625268      -289.1282
   9   2.0000     -10.624704      -289.1129
  10   2.0000     -10.621590      -289.0282
  11   2.0000     -10.615628      -288.8659
  12   2.0000     -10.608187      -288.6634
  13   2.0000      -2.397773       -65.2467
  14   2.0000      -1.552552       -42.2471
  15   2.0000      -1.533562       -41.7303
  16   2.0000      -1.532889       -41.7120
  17   2.0000      -1.310978       -35.6735
  18   2.0000      -1.187936       -32.3254
  19   2.0000      -1.023098       -27.8399
  20   2.0000      -0.978503       -26.6264
  21   2.0000      -0.923395       -25.1269
  22   2.0000      -0.909891       -24.7594
  23   2.0000      -0.840564       -22.8729
  24   2.0000      -0.800557       -21.7843
  25   2.0000      -0.746047       -20.3010
  26   2.0000      -0.701533       -19.0897
  27   2.0000      -0.671875       -18.2827
  28   2.0000      -0.653870       -17.7927
  29   2.0000      -0.653361       -17.7789
  30   2.0000      -0.647390       -17.6164
  31   2.0000      -0.613246       -16.6873
  32   2.0000      -0.601708       -16.3733
  33   2.0000      -0.596061       -16.2197
  34   2.0000      -0.589960       -16.0536
  35   2.0000      -0.585392       -15.9293
  36   2.0000      -0.567938       -15.4544
  37   2.0000      -0.506245       -13.7756
  38   2.0000      -0.483442       -13.1551
  39   2.0000      -0.433058       -11.7841
  40   2.0000      -0.308471        -8.3939
  41   0.0000      -0.180318        -4.9067
  42   0.0000      -0.169764        -4.6195
  43   0.0000      -0.166909        -4.5418
  44   0.0000      -0.151520        -4.1231
  45   0.0000      -0.147367        -4.0101

MULLIKEN ATOMIC CHARGES
-----------------------
   0 Sc:    0.466760
   1 C :    0.220600
   2 N :   -0.419412
   3 C :   -0.062084
   4 C :   -0.080794
   5 N :   -0.406418
   6 C :   -0.522119
   7 H :    0.279904
   8 H :    0.249050
   9 H :    0.271408
  10 C :   -0.519350
  11 H :    0.253495
  12 H :    0.277246
  13 H :    0.274063
  14 H :    0.300711
  15 H :    0.297190
  16 C :   -0.864653
  17 H :    0.300673
  18 H :    0.276452
  19 H :    0.247654
  20 H :    0.159624
Sum of atomic charges:    1.0000000

LOEWDIN ATOMIC CHARGES
----------------------
   0 Sc:    0.281016
   1 C :   -0.038891
   2 N :    0.001584
   3 C :   -0.086511
   4 C :   -0.084250
   5 N :   -0.000380
   6 C :   -0.239351
   7 H :    0.157403
   8 H :    0.142155
   9 H :    0.155717
  10 C :   -0.238699
  11 H :    0.149298
  12 H :    0.154511
  13 H :    0.152668
  14 H :    0.169855
  15 H :    0.168103
  16 C :   -0.478454
  17 H :    0.172318
  18 H :    0.158730
  19 H :    0.146701
  20 H :    0.156476

  Mayer bond orders larger than 0.100000
B(  0-Sc,  1-C ) :   0.7095 B(  0-Sc, 16-C ) :   0.1978 B(  0-Sc, 20-H ) :   0.2040
B(  1-C ,  2-N ) :   1.2246 B(  1-C ,  5-N ) :   1.2344 B(  2-N ,  3-C ) :   1.1455
B(  2-N , 10-C ) :   0.9133 B(  3-C ,  4-C ) :   1.6520 B(  3-C , 14-H ) :   0.8795
B(  4-C ,  5-N ) :   1.1351 B(  4-C , 15-H ) :   0.8805 B(  5-N ,  6-C ) :   0.9140
B(  6-C ,  7-H ) :   0.9028 B(  6-C ,  8-H ) :   0.9018 B(  6-C ,  9-H ) :   0.8901
B( 10-C , 11-H ) :   0.8965 B( 10-C , 12-H ) :   0.8956 B( 10-C , 13-H ) :   0.8956
B( 16-C , 17-H ) :   0.8880 B( 16-C , 18-H ) :   0.8904 B( 16-C , 19-H ) :   0.9039
B( 16-C , 20-H ) :   0.7557

Dispersion correction           -0.010950875
FINAL SINGLE POINT ENERGY     -1104.403523749334
Dispersion correction            ... done

DIPOLE MOMENT
-------------
                                X             Y             Z
Electronic contribution:      8.15598      -7.77196      -3.77245
Nuclear contribution   :     -7.98501       7.92060       3.36796
                        -----------------------------------------
Total Dipole Moment    :      0.17097       0.14864      -0.40448
                        -----------------------------------------
Magnitude (a.u.)       :      0.46361
Magnitude (Debye)      :      1.17840

Rotational constants in cm-1:     0.048254     0.028945     0.022331
Rotational constants in MHz :  1446.620647   867.759627   669.462686

                             ****ORCA TERMINATED NORMALLY****
TOTAL RUN TIME: 0 days 0 hours 4 minutes 42 seconds 76 msec
