                         Program Version 5.0.3 -  RELEASE  -
|  1> ! EnGrad PBEh-3c
|  2> %output
|  3> xyzfile=True
|  4> end
|  5> %scf
|  6> maxiter 250
|  7> end
|  8> %output
|  9> Print[P_Hirshfeld] = 1
| 10> end
| 11> % maxcore
| 12> 4000
| 13> *xyz 1 1
| 14> Sc   1.43943823  -1.02568158  -1.72431068
| 15> C    0.39849830  -0.56693656   0.25723710
| 16> N   -0.47173349  -1.34527059   0.92709303
| 17> C   -0.77399110  -0.77959185   2.13401041
| 18> C   -0.13113339   0.38867593   2.19028715
| 19> N    0.55376061   0.53102722   1.00628555
| 20> C    1.40919659   1.64933754   0.65117935
| 21> H    1.42980651   2.34789228   1.47278640
| 22> H    1.02794033   2.17125451  -0.25054281
| 23> H    2.43836381   1.30096531   0.47364731
| 24> C   -0.97269464  -2.65557975   0.54334407
| 25> H   -0.61939314  -2.92048725  -0.44972272
| 26> H   -2.06172050  -2.65598745   0.52046356
| 27> H   -0.63833135  -3.41202066   1.25267072
| 28> H   -1.40839022  -1.25766593   2.87449535
| 29> H   -0.09622786   1.16017015   2.96738975
| 30> C   -0.26173125   1.49132907  -2.94218364
| 31> H   -0.97679269   1.65374221  -3.79810699
| 32> H    0.52254160   2.28557105  -3.00337404
| 33> H   -0.77824972   1.61639437  -1.95690777
| 34> H   -0.02574761   0.02745286  -3.14771841
| 35> *
| 36>
| 37>                          ****END OF INPUT****

CARTESIAN COORDINATES (ANGSTROEM)
---------------------------------
  Sc     1.439438   -1.025682   -1.724311
  C      0.398498   -0.566937    0.257237
  N     -0.471733   -1.345271    0.927093
  C     -0.773991   -0.779592    2.134010
  C     -0.131133    0.388676    2.190287
  N      0.553761    0.531027    1.006286
  C      1.409197    1.649338    0.651179
  H      1.429807    2.347892    1.472786
  H      1.027940    2.171255   -0.250543
  H      2.438364    1.300965    0.473647
  C     -0.972695   -2.655580    0.543344
  H     -0.619393   -2.920487   -0.449723
  H     -2.061720   -2.655987    0.520464
  H     -0.638331   -3.412021    1.252671
  H     -1.408390   -1.257666    2.874495
  H     -0.096228    1.160170    2.967390
  C     -0.261731    1.491329   -2.942184
  H     -0.976793    1.653742   -3.798107
  H      0.522542    2.285571   -3.003374
  H     -0.778250    1.616394   -1.956908
  H     -0.025748    0.027453   -3.147718

 Total Charge           Charge          ....    1
 Multiplicity           Mult            ....    1
 Number of Electrons    NEL             ....   82
 Basis Dimension        Dim             ....  175

ORBITAL ENERGIES
----------------

  NO   OCC          E(Eh)            E(eV)
   0   2.0000    -162.881781     -4432.2386
   1   2.0000     -18.189590      -494.9639
   2   2.0000     -15.031845      -409.0373
   3   2.0000     -15.026119      -408.8815
   4   2.0000     -15.016014      -408.6065
   5   2.0000     -14.858991      -404.3337
   6   2.0000     -14.858882      -404.3307
   7   2.0000     -10.640622      -289.5461
   8   2.0000     -10.625051      -289.1223
   9   2.0000     -10.624943      -289.1194
  10   2.0000     -10.621115      -289.0152
  11   2.0000     -10.616560      -288.8913
  12   2.0000     -10.608591      -288.6744
  13   2.0000      -2.403134       -65.3926
  14   2.0000      -1.556322       -42.3497
  15   2.0000      -1.540009       -41.9058
  16   2.0000      -1.537501       -41.8375
  17   2.0000      -1.309792       -35.6413
  18   2.0000      -1.185693       -32.2643
  19   2.0000      -1.023452       -27.8495
  20   2.0000      -0.978533       -26.6272
  21   2.0000      -0.923508       -25.1299
  22   2.0000      -0.896784       -24.4027
  23   2.0000      -0.839992       -22.8574
  24   2.0000      -0.801581       -21.8121
  25   2.0000      -0.747073       -20.3289
  26   2.0000      -0.700962       -19.0741
  27   2.0000      -0.671119       -18.2621
  28   2.0000      -0.653756       -17.7896
  29   2.0000      -0.652792       -17.7634
  30   2.0000      -0.648955       -17.6590
  31   2.0000      -0.602987       -16.4081
  32   2.0000      -0.596824       -16.2404
  33   2.0000      -0.593565       -16.1517
  34   2.0000      -0.590141       -16.0585
  35   2.0000      -0.586635       -15.9632
  36   2.0000      -0.545403       -14.8412
  37   2.0000      -0.509142       -13.8544
  38   2.0000      -0.483789       -13.1646
  39   2.0000      -0.434661       -11.8277
  40   2.0000      -0.311410        -8.4739
  41   0.0000      -0.182098        -4.9551
  42   0.0000      -0.174869        -4.7584
  43   0.0000      -0.169563        -4.6140
  44   0.0000      -0.155133        -4.2214
  45   0.0000      -0.150314        -4.0903

MULLIKEN ATOMIC CHARGES
-----------------------
   0 Sc:    0.485467
   1 C :    0.220470
   2 N :   -0.420958
   3 C :   -0.059678
   4 C :   -0.076828
   5 N :   -0.416225
   6 C :   -0.521103
   7 H :    0.280160
   8 H :    0.254300
   9 H :    0.268667
  10 C :   -0.518999
  11 H :    0.252390
  12 H :    0.278588
  13 H :    0.274115
  14 H :    0.301055
  15 H :    0.297366
  16 C :   -0.836288
  17 H :    0.294321
  18 H :    0.262922
  19 H :    0.250414
  20 H :    0.129845
Sum of atomic charges:    1.0000000

LOEWDIN ATOMIC CHARGES
----------------------
   0 Sc:    0.297906
   1 C :   -0.037142
   2 N :    0.001895
   3 C :   -0.086182
   4 C :   -0.081517
   5 N :   -0.003789
   6 C :   -0.238382
   7 H :    0.157622
   8 H :    0.143860
   9 H :    0.154644
  10 C :   -0.238286
  11 H :    0.148846
  12 H :    0.155111
  13 H :    0.152802
  14 H :    0.169609
  15 H :    0.167568
  16 C :   -0.475925
  17 H :    0.167768
  18 H :    0.156671
  19 H :    0.143174
  20 H :    0.143749

  Mayer bond orders larger than 0.100000
B(  0-Sc,  1-C ) :   0.7146 B(  0-Sc, 16-C ) :   0.2053 B(  0-Sc, 20-H ) :   0.2182
B(  1-C ,  2-N ) :   1.2265 B(  1-C ,  5-N ) :   1.2297 B(  2-N ,  3-C ) :   1.1411
B(  2-N , 10-C ) :   0.9129 B(  3-C ,  4-C ) :   1.6546 B(  3-C , 14-H ) :   0.8794
B(  4-C ,  5-N ) :   1.1333 B(  4-C , 15-H ) :   0.8807 B(  5-N ,  6-C ) :   0.9107
B(  6-C ,  7-H ) :   0.9033 B(  6-C ,  8-H ) :   0.9000 B(  6-C ,  9-H ) :   0.8904
B( 10-C , 11-H ) :   0.8966 B( 10-C , 12-H ) :   0.8950 B( 10-C , 13-H ) :   0.8956
B( 16-C , 17-H ) :   0.8902 B( 16-C , 18-H ) :   0.8992 B( 16-C , 19-H ) :   0.9001
B( 16-C , 20-H ) :   0.7511

Dispersion correction           -0.011086544
FINAL SINGLE POINT ENERGY     -1104.387412287984
Dispersion correction            ... done

DIPOLE MOMENT
-------------
                                X             Y             Z
Electronic contribution:      8.62482      -8.22142      -3.29213
Nuclear contribution   :     -8.36919       8.29485       2.96434
                        -----------------------------------------
Total Dipole Moment    :      0.25563       0.07343      -0.32779
                        -----------------------------------------
Magnitude (a.u.)       :      0.42212
Magnitude (Debye)      :      1.07294

Rotational constants in cm-1:     0.046618     0.029013     0.022489
Rotational constants in MHz :  1397.558877   869.783816   674.203382

                             ****ORCA TERMINATED NORMALLY****
TOTAL RUN TIME: 0 days 0 hours 4 minutes 27 seconds 291 msec
