                         Program Version 5.0.4 -  RELEASE  -
|  1> %pal nprocs 8 end
|  2>
|  3>  *xyzfile 0 1 cineb-10-peak.xyz
|  4>
|  5>
|  6>                          ****END OF INPUT****
|  1>
|  2>
|  3>   ! PBEh-3c OptTS Freq pal8
|  4>
|  5>   %geom
|  6>    calc_hess true
|  7>    recalc_hess 20
|  8>    maxiter 600
|  9>   end
| 10>
| 11>
| 12>                          ****END OF INPUT****
 Total Charge           Charge          ....    0
 Multiplicity           Mult            ....    1
 Number of Electrons    NEL             ....  106
Dispersion correction           -0.013359657
FINAL SINGLE POINT ENERGY      -737.089990996541
Dispersion correction            ... done
Dispersion correction in the Hessian             ... done   (      0.6 sec)
Dispersion correction           -0.013278362
FINAL SINGLE POINT ENERGY      -737.097939211197
Dispersion correction            ... done
Dispersion correction           -0.013262765
FINAL SINGLE POINT ENERGY      -737.104379481821
FINAL SINGLE POINT ENERGY      -737.110351077627
FINAL SINGLE POINT ENERGY      -737.114491565166
FINAL SINGLE POINT ENERGY      -737.118441430728
FINAL SINGLE POINT ENERGY      -737.121334236765
FINAL SINGLE POINT ENERGY      -737.123435288704
FINAL SINGLE POINT ENERGY      -737.124759170013
FINAL SINGLE POINT ENERGY      -737.125701129143
FINAL SINGLE POINT ENERGY      -737.126797305882
FINAL SINGLE POINT ENERGY      -737.126842999990
FINAL SINGLE POINT ENERGY      -737.126840059558
FINAL SINGLE POINT ENERGY      -737.126780286769
FINAL SINGLE POINT ENERGY      -737.126846501284
FINAL SINGLE POINT ENERGY      -737.126907712586
FINAL SINGLE POINT ENERGY      -737.126938192888
Dispersion correction           -0.013413424
FINAL SINGLE POINT ENERGY      -737.126937384002
Dispersion correction            ... done
                    ***********************HURRAY********************
Dispersion correction           -0.013416113
FINAL SINGLE POINT ENERGY      -737.126939566135
Dispersion correction in the Hessian             ... done   (      0.6 sec)

VIBRATIONAL FREQUENCIES
-----------------------

Scaling factor for frequencies =  1.000000000  (already applied!)

   0:         0.00 cm**-1
   1:         0.00 cm**-1
   2:         0.00 cm**-1
   3:         0.00 cm**-1
   4:         0.00 cm**-1
   5:         0.00 cm**-1
   6:      -625.43 cm**-1 ***imaginary mode***
   7:        40.25 cm**-1
   8:        55.21 cm**-1
   9:        65.30 cm**-1
  10:        94.57 cm**-1
  11:       111.66 cm**-1
  12:       134.70 cm**-1
  13:       158.81 cm**-1
  14:       203.20 cm**-1
  15:       239.70 cm**-1
  16:       256.31 cm**-1
  17:       280.80 cm**-1
  18:       317.30 cm**-1
  19:       321.89 cm**-1
  20:       344.77 cm**-1
  21:       419.57 cm**-1
  22:       442.41 cm**-1
  23:       517.06 cm**-1
  24:       638.79 cm**-1
  25:       697.47 cm**-1
  26:       732.64 cm**-1
  27:       741.80 cm**-1
  28:       777.40 cm**-1
  29:       851.32 cm**-1
  30:       890.41 cm**-1
  31:       946.17 cm**-1
  32:       953.85 cm**-1
  33:      1022.25 cm**-1
  34:      1034.90 cm**-1
  35:      1042.97 cm**-1
  36:      1080.01 cm**-1
  37:      1110.87 cm**-1
  38:      1132.07 cm**-1
  39:      1136.47 cm**-1
  40:      1200.62 cm**-1
  41:      1213.19 cm**-1
  42:      1247.46 cm**-1
  43:      1290.10 cm**-1
  44:      1351.94 cm**-1
  45:      1367.00 cm**-1
  46:      1397.80 cm**-1
  47:      1454.11 cm**-1
  48:      1463.65 cm**-1
  49:      1510.13 cm**-1
  50:      1561.40 cm**-1
  51:      1684.95 cm**-1
  52:      1692.93 cm**-1
  53:      1720.71 cm**-1
  54:      1853.90 cm**-1
  55:      3097.91 cm**-1
  56:      3145.53 cm**-1
  57:      3244.41 cm**-1
  58:      3255.04 cm**-1
  59:      3264.55 cm**-1
  60:      3271.20 cm**-1
  61:      3285.04 cm**-1
  62:      3844.08 cm**-1

IR SPECTRUM
-----------

 Mode   freq       eps      Int      T**2         TX        TY        TZ
       cm**-1   L/(mol*cm) km/mol    a.u.
----------------------------------------------------------------------------
  7:     40.25   0.000142    0.72  0.001101  (-0.011947 -0.030943  0.001053)
  8:     55.21   0.000602    3.04  0.003400  ( 0.027533  0.012109  0.049956)
  9:     65.30   0.000282    1.42  0.001347  ( 0.021043 -0.021413  0.021112)
 10:     94.57   0.000328    1.66  0.001081  (-0.017931 -0.027563 -0.000182)
 11:    111.66   0.001397    7.06  0.003904  ( 0.007652  0.061008  0.011112)
 12:    134.70   0.001346    6.80  0.003119  (-0.006374 -0.050712 -0.022520)
 13:    158.81   0.000588    2.97  0.001155  ( 0.025431 -0.005828 -0.021769)
 14:    203.20   0.001751    8.85  0.002689  ( 0.022740 -0.034528 -0.031296)
 15:    239.70   0.000863    4.36  0.001124  ( 0.029894 -0.004174 -0.014577)
 16:    256.31   0.000323    1.63  0.000393  ( 0.018810  0.005830 -0.002214)
 17:    280.80   0.006001   30.33  0.006669  (-0.060378  0.048292  0.026299)
 18:    317.30   0.004242   21.44  0.004172  (-0.015764 -0.032943 -0.053279)
 19:    321.89   0.006335   32.02  0.006142  (-0.040330 -0.032257  0.058949)
 20:    344.77   0.009670   48.87  0.008753  (-0.080207 -0.040233 -0.026474)
 21:    419.57   0.000016    0.08  0.000012  ( 0.003404 -0.000277  0.000235)
 22:    442.41   0.005274   26.65  0.003720  (-0.057661  0.018615  0.006993)
 23:    517.06   0.003460   17.49  0.002088  ( 0.022483 -0.020477 -0.034112)
 24:    638.79   0.000042    0.21  0.000020  (-0.003644  0.002297 -0.001327)
 25:    697.47   0.000325    1.64  0.000145  (-0.002271 -0.010944 -0.004532)
 26:    732.64   0.006275   31.71  0.002673  ( 0.019435 -0.022337 -0.042383)
 27:    741.80   0.002302   11.63  0.000969  ( 0.015475 -0.025795 -0.007981)
 28:    777.40   0.012893   65.16  0.005176  ( 0.025643 -0.033480 -0.058285)
 29:    851.32   0.020817  105.20  0.007631  (-0.085931  0.002474  0.015506)
 30:    890.41   0.000247    1.25  0.000087  ( 0.000775 -0.000915  0.009233)
 31:    946.17   0.018817   95.09  0.006206  (-0.004949  0.031343 -0.072107)
 32:    953.85   0.001274    6.44  0.000417  ( 0.002801 -0.001486 -0.020171)
 33:   1022.25   0.000045    0.23  0.000014  (-0.000902 -0.003467 -0.000955)
 34:   1034.90   0.000998    5.04  0.000301  (-0.013388 -0.010884 -0.001776)
 35:   1042.97   0.000230    1.16  0.000069  (-0.006922 -0.003897  0.002378)
 36:   1080.01   0.001725    8.72  0.000498  (-0.017390 -0.013641 -0.003152)
 37:   1110.87   0.000016    0.08  0.000004  (-0.000676  0.000046 -0.002002)
 38:   1132.07   0.000754    3.81  0.000208  ( 0.008946 -0.008059  0.007938)
 39:   1136.47   0.000648    3.27  0.000178  ( 0.007566  0.010979  0.000259)
 40:   1200.62   0.023861  120.58  0.006202  ( 0.005050 -0.034236  0.070741)
 41:   1213.19   0.000585    2.96  0.000151  (-0.002455  0.006282 -0.010249)
 42:   1247.46   0.000053    0.27  0.000013  ( 0.003631  0.000053  0.000221)
 43:   1290.10   0.012370   62.51  0.002992  (-0.008915  0.048233 -0.024212)
 44:   1351.94   0.000302    1.53  0.000070  ( 0.002465 -0.005816  0.005459)
 45:   1367.00   0.015843   80.06  0.003617  (-0.042162 -0.042729 -0.003630)
 46:   1397.80   0.000076    0.38  0.000017  (-0.002901 -0.000416  0.002890)
 47:   1454.11   0.001245    6.29  0.000267  ( 0.009132 -0.013542  0.000614)
 48:   1463.65   0.036487  184.39  0.007779  ( 0.086989 -0.000686 -0.014557)
 49:   1510.13   0.001372    6.93  0.000284  ( 0.007386 -0.010456  0.010940)
 50:   1561.40   0.004786   24.19  0.000957  (-0.022713 -0.020750 -0.003187)
 51:   1684.95   0.000790    3.99  0.000146  ( 0.009928 -0.003298  0.006065)
 52:   1692.93   0.004997   25.25  0.000921  (-0.021977 -0.020677 -0.003240)
 53:   1720.71   0.057511  290.64  0.010430  ( 0.040893  0.092325  0.015294)
 54:   1853.90   0.058816  297.23  0.009900  (-0.049942  0.002096  0.086034)
 55:   3097.91   0.023170  117.09  0.002334  ( 0.046465 -0.008695 -0.009971)
 56:   3145.53   0.005795   29.28  0.000575  (-0.012223  0.019822  0.005706)
 57:   3244.41   0.000454    2.30  0.000044  ( 0.001337  0.006439 -0.000680)
 58:   3255.04   0.000156    0.79  0.000015  (-0.002514 -0.002847  0.000725)
 59:   3264.55   0.000608    3.07  0.000058  ( 0.003938 -0.005310  0.003798)
 60:   3271.20   0.002918   14.75  0.000278  (-0.009478  0.010270 -0.009115)
 61:   3285.04   0.003393   17.15  0.000322  ( 0.014434  0.010675 -0.000033)
 62:   3844.08   0.029379  148.47  0.002385  (-0.028960 -0.038063  0.009873)

--------------------------
THERMOCHEMISTRY AT 298.15K
--------------------------

Temperature         ... 298.15 K
Pressure            ... 1.00 atm
Total Mass          ... 274.55 AMU

Throughout the following assumptions are being made:
  (1) The electronic state is orbitally nondegenerate
  (2) There are no thermally accessible electronically excited states
  (3) Hindered rotations indicated by low frequency modes are not
      treated as such but are treated as vibrations and this may
      cause some error
  (4) All equations used are the standard statistical mechanics
      equations for an ideal gas
  (5) All vibrations are strictly harmonic

freq.      40.25  E(vib)   ...       0.54
freq.      55.21  E(vib)   ...       0.52
freq.      65.30  E(vib)   ...       0.50
freq.      94.57  E(vib)   ...       0.47
freq.     111.66  E(vib)   ...       0.45
freq.     134.70  E(vib)   ...       0.42
freq.     158.81  E(vib)   ...       0.39
freq.     203.20  E(vib)   ...       0.35
freq.     239.70  E(vib)   ...       0.31
freq.     256.31  E(vib)   ...       0.30
freq.     280.80  E(vib)   ...       0.28
freq.     317.30  E(vib)   ...       0.25
freq.     321.89  E(vib)   ...       0.25
freq.     344.77  E(vib)   ...       0.23
freq.     419.57  E(vib)   ...       0.18
freq.     442.41  E(vib)   ...       0.17
freq.     517.06  E(vib)   ...       0.13
freq.     638.79  E(vib)   ...       0.09
freq.     697.47  E(vib)   ...       0.07
freq.     732.64  E(vib)   ...       0.06
freq.     741.80  E(vib)   ...       0.06
freq.     777.40  E(vib)   ...       0.05
freq.     851.32  E(vib)   ...       0.04
freq.     890.41  E(vib)   ...       0.04
freq.     946.17  E(vib)   ...       0.03
freq.     953.85  E(vib)   ...       0.03
freq.    1022.25  E(vib)   ...       0.02
freq.    1034.90  E(vib)   ...       0.02
freq.    1042.97  E(vib)   ...       0.02
freq.    1080.01  E(vib)   ...       0.02
freq.    1110.87  E(vib)   ...       0.01
freq.    1132.07  E(vib)   ...       0.01
freq.    1136.47  E(vib)   ...       0.01
freq.    1200.62  E(vib)   ...       0.01
freq.    1213.19  E(vib)   ...       0.01
freq.    1247.46  E(vib)   ...       0.01
freq.    1290.10  E(vib)   ...       0.01
freq.    1351.94  E(vib)   ...       0.01
freq.    1367.00  E(vib)   ...       0.01
freq.    1397.80  E(vib)   ...       0.00
freq.    1454.11  E(vib)   ...       0.00
freq.    1463.65  E(vib)   ...       0.00
freq.    1510.13  E(vib)   ...       0.00
freq.    1561.40  E(vib)   ...       0.00
freq.    1684.95  E(vib)   ...       0.00
freq.    1692.93  E(vib)   ...       0.00
freq.    1720.71  E(vib)   ...       0.00
freq.    1853.90  E(vib)   ...       0.00
freq.    3097.91  E(vib)   ...       0.00
freq.    3145.53  E(vib)   ...       0.00
freq.    3244.41  E(vib)   ...       0.00
freq.    3255.04  E(vib)   ...       0.00
freq.    3264.55  E(vib)   ...       0.00
freq.    3271.20  E(vib)   ...       0.00
freq.    3285.04  E(vib)   ...       0.00
freq.    3844.08  E(vib)   ...       0.00

------------
INNER ENERGY
------------

The inner energy is: U= E(el) + E(ZPE) + E(vib) + E(rot) + E(trans)
    E(el)   - is the total energy from the electronic structure calculation
              = E(kin-el) + E(nuc-el) + E(el-el) + E(nuc-nuc)
    E(ZPE)  - the the zero temperature vibrational energy from the frequency calculation
    E(vib)  - the the finite temperature correction to E(ZPE) due to population
              of excited vibrational states
    E(rot)  - is the rotational thermal energy
    E(trans)- is the translational thermal energy

Summary of contributions to the inner energy U:
Electronic energy                ...   -737.12693957 Eh
Zero point energy                ...      0.15311693 Eh      96.08 kcal/mol
Thermal vibrational correction   ...      0.01019933 Eh       6.40 kcal/mol
Thermal rotational correction    ...      0.00141627 Eh       0.89 kcal/mol
Thermal translational correction ...      0.00141627 Eh       0.89 kcal/mol
-----------------------------------------------------------------------
Total thermal energy                   -736.96079076 Eh

Summary of corrections to the electronic energy:
(perhaps to be used in another calculation)
Total thermal correction                  0.01303187 Eh       8.18 kcal/mol
Non-thermal (ZPE) correction              0.15311693 Eh      96.08 kcal/mol
-----------------------------------------------------------------------
Total correction                          0.16614881 Eh     104.26 kcal/mol

--------
ENTHALPY
--------

The enthalpy is H = U + kB*T
                kB is Boltzmann's constant
Total free energy                 ...   -736.96079076 Eh
Thermal Enthalpy correction       ...      0.00094421 Eh       0.59 kcal/mol
-----------------------------------------------------------------------
Total Enthalpy                    ...   -736.95984655 Eh

Note: Only C1 symmetry has been detected, increase convergence thresholds
      if your molecule has a higher symmetry. Symmetry factor of 1.0 is
      used for the rotational entropy correction.

Note: Rotational entropy computed according to Herzberg
Infrared and Raman Spectra, Chapter V,1, Van Nostrand Reinhold, 1945
Point Group:  C1, Symmetry Number:   1
Rotational constants in cm-1:     0.033699     0.016223     0.012744

Vibrational entropy computed according to the QRRHO of S. Grimme
Chem.Eur.J. 2012 18 9955

-------
ENTROPY
-------

The entropy contributions are T*S = T*(S(el)+S(vib)+S(rot)+S(trans))
     S(el)   - electronic entropy
     S(vib)  - vibrational entropy
     S(rot)  - rotational entropy
     S(trans)- translational entropy
The entropies will be listed as multiplied by the temperature to get
units of energy

Electronic entropy                ...      0.00000000 Eh      0.00 kcal/mol
Vibrational entropy               ...      0.01825409 Eh     11.45 kcal/mol
Rotational entropy                ...      0.01511657 Eh      9.49 kcal/mol
Translational entropy             ...      0.02030161 Eh     12.74 kcal/mol
-----------------------------------------------------------------------
Final entropy term                ...      0.05367227 Eh     33.68 kcal/mol

In case the symmetry of your molecule has not been determined correctly
or in case you have a reason to use a different symmetry number we print
out the resulting rotational entropy values for sn=1,12 :
 --------------------------------------------------------
|  sn= 1 | S(rot)=       0.01511657 Eh      9.49 kcal/mol|
|  sn= 2 | S(rot)=       0.01446211 Eh      9.08 kcal/mol|
|  sn= 3 | S(rot)=       0.01407928 Eh      8.83 kcal/mol|
|  sn= 4 | S(rot)=       0.01380765 Eh      8.66 kcal/mol|
|  sn= 5 | S(rot)=       0.01359697 Eh      8.53 kcal/mol|
|  sn= 6 | S(rot)=       0.01342482 Eh      8.42 kcal/mol|
|  sn= 7 | S(rot)=       0.01327927 Eh      8.33 kcal/mol|

|  1>
|  2>
|  3>   ! PBEh-3c IRC pal8
|  4>   %irc
|  5>     maxiter 600
|  6>     inithess read
|  7>     hess_filename "reaction-0-cineb10_optts_Compound_1.hess"
|  8>   end
|  9>
| 10>
| 11>                          ****END OF INPUT****

CARTESIAN COORDINATES (ANGSTROEM)
---------------------------------
  C     -1.189816    0.160363   -0.996986
  C     -2.288981   -0.692899   -1.003268
  C     -2.233835   -1.912284   -0.346571
  C     -1.066058   -2.281078    0.307184
  C     -0.015009   -0.201037   -0.338095
  C      0.036701   -1.435997    0.308578
  H     -1.257306    1.098007   -1.537206
  H     -3.187256   -0.402034   -1.533553
  H     -3.088745   -2.575539   -0.353785
  H      0.945352   -1.757217    0.803401
  H     -1.006408   -3.238100    0.810456
  Pd     1.542270    0.965780   -0.294220
  O      3.671576    1.634049   -0.475976
  O      2.945067   -0.401342   -0.803086
  O      0.278731    2.521467    0.271486
  C     -0.441605    2.434857    1.237509
  O     -0.299916    1.514000    2.173770
  H     -0.941821    0.792211    2.120174
  C      3.887160    0.447377   -0.770967
  H      4.901583    0.096993   -1.013079
  H     -1.216884    3.191483    1.405444

 Multiplicity           Mult            ....    1
 Number of Electrons    NEL             ....  106
 Basis Dimension        Dim             ....  227

ORBITAL ENERGIES
----------------

  NO   OCC          E(Eh)            E(eV)
   0   2.0000     -19.584883      -532.9318
   1   2.0000     -19.579438      -532.7836
   2   2.0000     -19.495553      -530.5010
   3   2.0000     -19.478528      -530.0377
   4   2.0000     -10.646878      -289.7163
   5   2.0000     -10.554501      -287.2026
   6   2.0000     -10.456570      -284.5377
   7   2.0000     -10.450635      -284.3762
   8   2.0000     -10.449132      -284.3354
   9   2.0000     -10.447790      -284.2988
  10   2.0000     -10.446411      -284.2613
  11   2.0000     -10.444074      -284.1977
  12   2.0000      -3.648935       -99.2926
  13   2.0000      -2.298344       -62.5411
  14   2.0000      -2.292452       -62.3808
  15   2.0000      -2.262036       -61.5531
  16   2.0000      -1.282266       -34.8922
  17   2.0000      -1.199929       -32.6517
  18   2.0000      -1.189611       -32.3710
  19   2.0000      -1.079727       -29.3809
  20   2.0000      -0.954485       -25.9728
  21   2.0000      -0.837272       -22.7833
  22   2.0000      -0.831869       -22.6363
  23   2.0000      -0.780445       -21.2370
  24   2.0000      -0.692518       -18.8444
  25   2.0000      -0.680475       -18.5167
  26   2.0000      -0.670905       -18.2562
  27   2.0000      -0.659938       -17.9578
  28   2.0000      -0.624739       -17.0000
  29   2.0000      -0.590321       -16.0635
  30   2.0000      -0.580164       -15.7871
  31   2.0000      -0.553286       -15.0557
  32   2.0000      -0.523181       -14.2365
  33   2.0000      -0.514240       -13.9932
  34   2.0000      -0.511132       -13.9086
  35   2.0000      -0.493660       -13.4332
  36   2.0000      -0.487640       -13.2693
  37   2.0000      -0.478546       -13.0219
  38   2.0000      -0.456296       -12.4164
  39   2.0000      -0.448541       -12.2054
  40   2.0000      -0.441647       -12.0178
  41   2.0000      -0.425487       -11.5781
  42   2.0000      -0.400107       -10.8875
  43   2.0000      -0.388460       -10.5705
  44   2.0000      -0.378887       -10.3100
  45   2.0000      -0.364275        -9.9124
  46   2.0000      -0.355487        -9.6733
  47   2.0000      -0.334601        -9.1050
  48   2.0000      -0.321835        -8.7576
  49   2.0000      -0.310352        -8.4451
  50   2.0000      -0.297206        -8.0874
  51   2.0000      -0.285860        -7.7786
  52   2.0000      -0.277288        -7.5454
  53   0.0000      -0.048209        -1.3118
  54   0.0000      -0.017531        -0.4770
  55   0.0000       0.017357         0.4723
  56   0.0000       0.020015         0.5446
  57   0.0000       0.050709         1.3799

MULLIKEN ATOMIC CHARGES
-----------------------
   0 C :   -0.282841
   1 C :   -0.221612
   2 C :   -0.235948
   3 C :   -0.225080
   4 C :   -0.137053
   5 C :   -0.251400
   6 H :    0.235384
   7 H :    0.217732
   8 H :    0.218838
   9 H :    0.244435
  10 H :    0.220449
  11 Pd:    0.378806
  12 O :   -0.464496
  13 O :   -0.486428
  14 O :   -0.341852
  15 C :    0.396622
  16 O :   -0.566195
  17 H :    0.497146
  18 C :    0.384055
  19 H :    0.183926
  20 H :    0.235514
Sum of atomic charges:    0.0000000

LOEWDIN ATOMIC CHARGES
----------------------
   0 C :   -0.144124
   1 C :   -0.136282
   2 C :   -0.150623
   3 C :   -0.133532
   4 C :   -0.021692
   5 C :   -0.120789
   6 H :    0.150040
   7 H :    0.135487
   8 H :    0.135369
   9 H :    0.159600
  10 H :    0.136975
  11 Pd:   -0.305431
  12 O :   -0.202060
  13 O :   -0.167516
  14 O :   -0.014214
  15 C :    0.195538
  16 O :   -0.271088
  17 H :    0.374880
  18 C :    0.139298
  19 H :    0.109315
  20 H :    0.130849

  Mayer bond orders larger than 0.100000
B(  0-C ,  1-C ) :   1.4148 B(  0-C ,  4-C ) :   1.3756 B(  0-C ,  6-H ) :   0.9084
B(  1-C ,  2-C ) :   1.4318 B(  1-C ,  7-H ) :   0.9189 B(  2-C ,  3-C ) :   1.4179
B(  2-C ,  8-H ) :   0.9201 B(  3-C ,  5-C ) :   1.4173 B(  3-C , 10-H ) :   0.9185
B(  4-C ,  5-C ) :   1.3768 B(  4-C , 11-Pd) :   0.9299 B(  5-C ,  9-H ) :   0.9080
B( 11-Pd, 12-O ) :   0.3574 B( 11-Pd, 13-O ) :   0.5543 B( 11-Pd, 14-O ) :   0.3628
B( 12-O , 13-O ) :   0.1159 B( 12-O , 18-C ) :   1.6113 B( 13-O , 18-C ) :   1.4131
B( 14-O , 15-C ) :   1.8197 B( 15-C , 16-O ) :   1.1498 B( 15-C , 20-H ) :   0.8682
B( 16-O , 17-H ) :   0.6955 B( 18-C , 19-H ) :   0.8856

Dispersion correction           -0.013416113
FINAL SINGLE POINT ENERGY      -737.126939509042
Dispersion correction            ... done

DIPOLE MOMENT
-------------
                                X             Y             Z
Electronic contribution:     56.76930      36.55167     -12.40301
Nuclear contribution   :    -58.67224     -36.16229      13.53297
                        -----------------------------------------
Total Dipole Moment    :     -1.90294       0.38939       1.12996
                        -----------------------------------------
Magnitude (a.u.)       :      2.24714
Magnitude (Debye)      :      5.71177

Rotational constants in cm-1:     0.033699     0.016223     0.012744
Rotational constants in MHz :  1010.266104   486.351851   382.051639

                      ***********************HURRAY********************
                             ****ORCA TERMINATED NORMALLY****
TOTAL RUN TIME: 0 days 1 hours 55 minutes 27 seconds 882 msec
