                         Program Version 5.0.3 -  RELEASE  -
|  1> ! EnGrad PBEh-3c
|  2> %output
|  3> xyzfile=True
|  4> end
|  5> %scf
|  6> maxiter 250
|  7> end
|  8> %output
|  9> Print[P_Hirshfeld] = 1
| 10> end
| 11> % maxcore
| 12> 4000
| 13> *xyz 0 1
| 14> Lu   0.22873048   0.36656353  -0.22537691
| 15> C    0.36257217   1.00982720   2.42260798
| 16> C    1.33779225   0.02044342   2.25524219
| 17> C    2.26842054   0.45399067   1.30666034
| 18> C    1.94673593   1.77783620   0.99091222
| 19> C    0.72279930   2.08264563   1.60464135
| 20> H    2.48837281   2.41771362   0.31315206
| 21> H    0.20289103   3.02563779   1.57990565
| 22> H   -0.49035666   1.01416091   3.08146555
| 23> H    1.38309736  -0.93689121   2.75034309
| 24> H    3.13885490  -0.09658700   0.99284519
| 25> C    1.03095662  -0.08533822  -2.59382133
| 26> C   -0.28313959  -0.58098582  -2.57993887
| 27> C    1.00272277  -1.96967207  -1.34952475
| 28> C    1.80978312  -0.90547287  -1.76607579
| 29> H    1.35565543   0.81538797  -3.09131038
| 30> C   -0.27295167  -1.80978714  -1.91461507
| 31> H   -1.11380532  -0.22387333  -3.16567988
| 32> H    2.85927426  -0.79739055  -1.54727740
| 33> H    1.33943871  -2.79082757  -0.73450498
| 34> H   -1.13797704  -2.45213605  -1.83925631
| 35> C   -2.56960078  -1.65989647   1.43496360
| 36> H   -2.49142168  -1.44542331   2.47823384
| 37> H   -2.95845826  -2.60938250   1.08566135
| 38> H   -2.66703391  -0.79046168   0.79715971
| 39> C   -1.91927896   1.78170712  -0.72490768
| 40> H   -0.97459847  -1.72627177   1.09211317
| 41> H   -1.46310315   2.56342010  -1.34054347
| 42> H   -2.49956146   2.29353718   0.04656343
| 43> H   -2.63682073   1.25752715  -1.35963610
| 44> *
| 45>
| 46>                          ****END OF INPUT****

CARTESIAN COORDINATES (ANGSTROEM)
---------------------------------
  Lu     0.228730    0.366564   -0.225377
  C      0.362572    1.009827    2.422608
  C      1.337792    0.020443    2.255242
  C      2.268421    0.453991    1.306660
  C      1.946736    1.777836    0.990912
  C      0.722799    2.082646    1.604641
  H      2.488373    2.417714    0.313152
  H      0.202891    3.025638    1.579906
  H     -0.490357    1.014161    3.081466
  H      1.383097   -0.936891    2.750343
  H      3.138855   -0.096587    0.992845
  C      1.030957   -0.085338   -2.593821
  C     -0.283140   -0.580986   -2.579939
  C      1.002723   -1.969672   -1.349525
  C      1.809783   -0.905473   -1.766076
  H      1.355655    0.815388   -3.091310
  C     -0.272952   -1.809787   -1.914615
  H     -1.113805   -0.223873   -3.165680
  H      2.859274   -0.797391   -1.547277
  H      1.339439   -2.790828   -0.734505
  H     -1.137977   -2.452136   -1.839256
  C     -2.569601   -1.659896    1.434964
  H     -2.491422   -1.445423    2.478234
  H     -2.958458   -2.609383    1.085661
  H     -2.667034   -0.790462    0.797160
  C     -1.919279    1.781707   -0.724908
  H     -0.974598   -1.726272    1.092113
  H     -1.463103    2.563420   -1.340543
  H     -2.499561    2.293537    0.046563
  H     -2.636821    1.257527   -1.359636

 Total Charge           Charge          ....    0
 Multiplicity           Mult            ....    1
 Number of Electrons    NEL             ....  132
 Basis Dimension        Dim             ....  295

ORBITAL ENERGIES
----------------

  NO   OCC          E(Eh)            E(eV)
   0   2.0000     -19.262253      -524.1526
   1   2.0000     -12.635021      -343.8164
   2   2.0000     -12.632072      -343.7362
   3   2.0000     -12.631883      -343.7310
   4   2.0000     -10.490675      -285.4658
   5   2.0000     -10.446379      -284.2604
   6   2.0000     -10.446041      -284.2512
   7   2.0000     -10.444842      -284.2186
   8   2.0000     -10.444063      -284.1974
   9   2.0000     -10.443785      -284.1898
  10   2.0000     -10.443729      -284.1883
  11   2.0000     -10.442956      -284.1673
  12   2.0000     -10.442913      -284.1661
  13   2.0000     -10.439237      -284.0661
  14   2.0000     -10.437666      -284.0233
  15   2.0000     -10.362817      -281.9866
  16   2.0000      -5.904036      -160.6570
  17   2.0000      -5.903600      -160.6451
  18   2.0000      -5.903257      -160.6358
  19   2.0000      -5.901499      -160.5880
  20   2.0000      -5.901343      -160.5837
  21   2.0000      -2.445449       -66.5440
  22   2.0000      -1.282875       -34.9088
  23   2.0000      -1.282150       -34.8891
  24   2.0000      -1.270190       -34.5636
  25   2.0000      -0.987286       -26.8654
  26   2.0000      -0.978571       -26.6283
  27   2.0000      -0.798651       -21.7324
  28   2.0000      -0.796730       -21.6801
  29   2.0000      -0.794975       -21.6324
  30   2.0000      -0.793072       -21.5806
  31   2.0000      -0.785664       -21.3790
  32   2.0000      -0.689787       -18.7701
  33   2.0000      -0.617386       -16.7999
  34   2.0000      -0.613277       -16.6881
  35   2.0000      -0.611654       -16.6440
  36   2.0000      -0.610279       -16.6065
  37   2.0000      -0.599630       -16.3168
  38   2.0000      -0.595326       -16.1997
  39   2.0000      -0.571777       -15.5589
  40   2.0000      -0.570433       -15.5223
  41   2.0000      -0.569828       -15.5058
  42   2.0000      -0.568873       -15.4798
  43   2.0000      -0.568725       -15.4758
  44   2.0000      -0.566814       -15.4238
  45   2.0000      -0.565525       -15.3887
  46   2.0000      -0.504834       -13.7372
  47   2.0000      -0.493074       -13.4172
  48   2.0000      -0.470040       -12.7904
  49   2.0000      -0.457151       -12.4397
  50   2.0000      -0.454399       -12.3648
  51   2.0000      -0.449964       -12.2441
  52   2.0000      -0.447970       -12.1899
  53   2.0000      -0.437444       -11.9034
  54   2.0000      -0.434506       -11.8235
  55   2.0000      -0.434065       -11.8115
  56   2.0000      -0.432526       -11.7696
  57   2.0000      -0.430117       -11.7041
  58   2.0000      -0.388438       -10.5699
  59   2.0000      -0.384297       -10.4573
  60   2.0000      -0.370343       -10.0775
  61   2.0000      -0.290745        -7.9116
  62   2.0000      -0.285570        -7.7708
  63   2.0000      -0.275238        -7.4896
  64   2.0000      -0.273975        -7.4552
  65   2.0000      -0.235182        -6.3996
  66   0.0000      -0.042525        -1.1572
  67   0.0000       0.004471         0.1217
  68   0.0000       0.020377         0.5545
  69   0.0000       0.047705         1.2981
  70   0.0000       0.054928         1.4947

MULLIKEN ATOMIC CHARGES
-----------------------
   0 Lu:    0.796927
   1 C :   -0.254544
   2 C :   -0.236001
   3 C :   -0.362760
   4 C :   -0.251320
   5 C :   -0.333618
   6 H :    0.243591
   7 H :    0.249126
   8 H :    0.232357
   9 H :    0.234175
  10 H :    0.240199
  11 C :   -0.257450
  12 C :   -0.357517
  13 C :   -0.299618
  14 C :   -0.336441
  15 H :    0.244987
  16 C :   -0.189694
  17 H :    0.240223
  18 H :    0.242178
  19 H :    0.235165
  20 H :    0.232409
  21 C :   -0.776314
  22 H :    0.266568
  23 H :    0.258332
  24 H :    0.300884
  25 C :   -1.011744
  26 H :    0.054547
  27 H :    0.195168
  28 H :    0.201868
  29 H :    0.198315
Sum of atomic charges:   -0.0000000

LOEWDIN ATOMIC CHARGES
----------------------
   0 Lu:    0.014020
   1 C :   -0.134095
   2 C :   -0.136343
   3 C :   -0.152039
   4 C :   -0.149916
   5 C :   -0.137901
   6 H :    0.157689
   7 H :    0.161226
   8 H :    0.152827
   9 H :    0.149392
  10 H :    0.155159
  11 C :   -0.148861
  12 C :   -0.142687
  13 C :   -0.148311
  14 C :   -0.150475
  15 H :    0.158216
  16 C :   -0.126349
  17 H :    0.158424
  18 H :    0.155785
  19 H :    0.150731
  20 H :    0.150327
  21 C :   -0.402220
  22 H :    0.148811
  23 H :    0.150265
  24 H :    0.168228
  25 C :   -0.659230
  26 H :    0.092016
  27 H :    0.126578
  28 H :    0.119784
  29 H :    0.118950

  Mayer bond orders larger than 0.100000
B(  0-Lu,  1-C ) :   0.2241 B(  0-Lu,  2-C ) :   0.2337 B(  0-Lu,  3-C ) :   0.2840
B(  0-Lu,  4-C ) :   0.2967 B(  0-Lu,  5-C ) :   0.2571 B(  0-Lu, 11-C ) :   0.2934
B(  0-Lu, 12-C ) :   0.2438 B(  0-Lu, 13-C ) :   0.2446 B(  0-Lu, 14-C ) :   0.2866
B(  0-Lu, 16-C ) :   0.2133 B(  0-Lu, 21-C ) :   0.1094 B(  0-Lu, 25-C ) :   0.8176
B(  0-Lu, 26-H ) :   0.1065 B(  1-C ,  2-C ) :   1.3107 B(  1-C ,  5-C ) :   1.3172
B(  1-C ,  8-H ) :   0.9212 B(  2-C ,  3-C ) :   1.3024 B(  2-C ,  9-H ) :   0.9170
B(  3-C ,  4-C ) :   1.2568 B(  3-C , 10-H ) :   0.9159 B(  4-C ,  5-C ) :   1.2682
B(  4-C ,  6-H ) :   0.9071 B(  5-C ,  7-H ) :   0.9164 B( 11-C , 12-C ) :   1.2670
B( 11-C , 14-C ) :   1.2663 B( 11-C , 15-H ) :   0.9077 B( 12-C , 16-C ) :   1.3211
B( 12-C , 17-H ) :   0.9229 B( 13-C , 14-C ) :   1.2918 B( 13-C , 16-C ) :   1.3088
B( 13-C , 19-H ) :   0.9169 B( 14-C , 18-H ) :   0.9130 B( 16-C , 20-H ) :   0.9176
B( 21-C , 22-H ) :   0.8984 B( 21-C , 23-H ) :   0.9059 B( 21-C , 24-H ) :   0.8683
B( 21-C , 26-H ) :   0.8826 B( 25-C , 27-H ) :   0.9057 B( 25-C , 28-H ) :   0.9239
B( 25-C , 29-H ) :   0.9187

Dispersion correction           -0.017516148
FINAL SINGLE POINT ENERGY     -1702.289823159659
Dispersion correction            ... done

DIPOLE MOMENT
-------------
                                X             Y             Z
Electronic contribution:      4.58912      17.31414      -9.59696
Nuclear contribution   :     -4.37433     -18.06522      10.02329
                        -----------------------------------------
Total Dipole Moment    :      0.21478      -0.75108       0.42633
                        -----------------------------------------
Magnitude (a.u.)       :      0.88995
Magnitude (Debye)      :      2.26207

Rotational constants in cm-1:     0.026845     0.018852     0.016427
Rotational constants in MHz :   804.792658   565.178958   492.465944

                             ****ORCA TERMINATED NORMALLY****
TOTAL RUN TIME: 0 days 0 hours 9 minutes 11 seconds 509 msec
