                         Program Version 5.0.3 -  RELEASE  -
|  1> ! EnGrad PBEh-3c
|  2> %output
|  3> xyzfile=True
|  4> end
|  5> %scf
|  6> maxiter 250
|  7> end
|  8> %output
|  9> Print[P_Hirshfeld] = 1
| 10> end
| 11> % maxcore
| 12> 4000
| 13> *xyz 0 1
| 14> Lu   0.08851925   0.27389750  -0.15108646
| 15> C    0.38384612   0.88976817   2.42049701
| 16> C    1.36329630  -0.07456003   2.14653549
| 17> C    2.29218310   0.42363871   1.23144597
| 18> C    1.90987587   1.76221425   0.97769920
| 19> C    0.72311850   2.04098104   1.65108204
| 20> H    2.47881670   2.45492306   0.38126559
| 21> H    0.23374699   2.99389063   1.71070388
| 22> H   -0.36915917   0.80523055   3.15983321
| 23> H    1.37364572  -1.06281959   2.58227406
| 24> H    3.23495307  -0.00782275   0.98324030
| 25> C    0.99037770  -0.09724046  -2.56048673
| 26> C   -0.30641249  -0.62618615  -2.52811637
| 27> C    1.03505724  -1.92588478  -1.22445908
| 28> C    1.83121905  -0.86874136  -1.71009404
| 29> H    1.31567876   0.75364054  -3.11770867
| 30> C   -0.25955239  -1.81468157  -1.75096219
| 31> H   -1.11662605  -0.31551041  -3.16251913
| 32> H    2.87716361  -0.78053218  -1.63200824
| 33> H    1.38656152  -2.76241927  -0.64842609
| 34> H   -1.04788428  -2.51236023  -1.57592331
| 35> C   -2.59999436  -1.52632177   1.27051308
| 36> H   -2.17871478  -1.40297001   2.31793743
| 37> H   -2.05242701  -2.44448204   0.97127687
| 38> H   -3.70985864  -1.45257230   1.23047002
| 39> C   -1.71647935   1.76989857  -0.81459138
| 40> H   -2.23058824  -0.56459159   0.67555571
| 41> H   -1.27862518   2.60636197  -1.38881744
| 42> H   -2.28535623   2.24990627   0.00257639
| 43> H   -2.44244615   1.29826411  -1.49986478
| 44> *
| 45>
| 46>                          ****END OF INPUT****

CARTESIAN COORDINATES (ANGSTROEM)
---------------------------------
  Lu     0.088519    0.273898   -0.151086
  C      0.383846    0.889768    2.420497
  C      1.363296   -0.074560    2.146535
  C      2.292183    0.423639    1.231446
  C      1.909876    1.762214    0.977699
  C      0.723118    2.040981    1.651082
  H      2.478817    2.454923    0.381266
  H      0.233747    2.993891    1.710704
  H     -0.369159    0.805231    3.159833
  H      1.373646   -1.062820    2.582274
  H      3.234953   -0.007823    0.983240
  C      0.990378   -0.097240   -2.560487
  C     -0.306412   -0.626186   -2.528116
  C      1.035057   -1.925885   -1.224459
  C      1.831219   -0.868741   -1.710094
  H      1.315679    0.753641   -3.117709
  C     -0.259552   -1.814682   -1.750962
  H     -1.116626   -0.315510   -3.162519
  H      2.877164   -0.780532   -1.632008
  H      1.386562   -2.762419   -0.648426
  H     -1.047884   -2.512360   -1.575923
  C     -2.599994   -1.526322    1.270513
  H     -2.178715   -1.402970    2.317937
  H     -2.052427   -2.444482    0.971277
  H     -3.709859   -1.452572    1.230470
  C     -1.716479    1.769899   -0.814591
  H     -2.230588   -0.564592    0.675556
  H     -1.278625    2.606362   -1.388817
  H     -2.285356    2.249906    0.002576
  H     -2.442446    1.298264   -1.499865

 Total Charge           Charge          ....    0
 Multiplicity           Mult            ....    1
 Number of Electrons    NEL             ....  132
 Basis Dimension        Dim             ....  295

ORBITAL ENERGIES
----------------

  NO   OCC          E(Eh)            E(eV)
   0   2.0000     -19.252417      -523.8849
   1   2.0000     -12.625075      -343.5458
   2   2.0000     -12.622407      -343.4732
   3   2.0000     -12.621830      -343.4575
   4   2.0000     -10.463993      -284.7397
   5   2.0000     -10.444626      -284.2127
   6   2.0000     -10.443615      -284.1852
   7   2.0000     -10.443265      -284.1757
   8   2.0000     -10.442554      -284.1563
   9   2.0000     -10.442084      -284.1435
  10   2.0000     -10.441964      -284.1403
  11   2.0000     -10.441619      -284.1309
  12   2.0000     -10.440667      -284.1050
  13   2.0000     -10.440389      -284.0974
  14   2.0000     -10.439906      -284.0843
  15   2.0000     -10.362702      -281.9835
  16   2.0000      -5.894116      -160.3870
  17   2.0000      -5.893778      -160.3778
  18   2.0000      -5.893129      -160.3602
  19   2.0000      -5.891611      -160.3189
  20   2.0000      -5.891423      -160.3138
  21   2.0000      -2.435791       -66.2813
  22   2.0000      -1.274279       -34.6749
  23   2.0000      -1.273439       -34.6520
  24   2.0000      -1.261473       -34.3264
  25   2.0000      -0.979757       -26.6605
  26   2.0000      -0.970846       -26.4181
  27   2.0000      -0.794741       -21.6260
  28   2.0000      -0.794149       -21.6099
  29   2.0000      -0.793556       -21.5938
  30   2.0000      -0.789711       -21.4891
  31   2.0000      -0.788523       -21.4568
  32   2.0000      -0.691789       -18.8245
  33   2.0000      -0.615444       -16.7471
  34   2.0000      -0.613751       -16.7010
  35   2.0000      -0.611781       -16.6474
  36   2.0000      -0.609592       -16.5878
  37   2.0000      -0.597535       -16.2598
  38   2.0000      -0.593274       -16.1438
  39   2.0000      -0.561857       -15.2889
  40   2.0000      -0.560602       -15.2548
  41   2.0000      -0.560408       -15.2495
  42   2.0000      -0.559180       -15.2161
  43   2.0000      -0.558575       -15.1996
  44   2.0000      -0.557198       -15.1621
  45   2.0000      -0.555607       -15.1188
  46   2.0000      -0.494955       -13.4684
  47   2.0000      -0.467640       -12.7251
  48   2.0000      -0.458262       -12.4699
  49   2.0000      -0.455616       -12.3979
  50   2.0000      -0.451302       -12.2805
  51   2.0000      -0.450544       -12.2599
  52   2.0000      -0.449950       -12.2437
  53   2.0000      -0.442623       -12.0444
  54   2.0000      -0.433409       -11.7937
  55   2.0000      -0.431964       -11.7543
  56   2.0000      -0.429144       -11.6776
  57   2.0000      -0.428440       -11.6584
  58   2.0000      -0.425407       -11.5759
  59   2.0000      -0.389240       -10.5918
  60   2.0000      -0.384185       -10.4542
  61   2.0000      -0.291105        -7.9214
  62   2.0000      -0.283878        -7.7247
  63   2.0000      -0.278137        -7.5685
  64   2.0000      -0.262607        -7.1459
  65   2.0000      -0.249580        -6.7914
  66   0.0000      -0.017086        -0.4649
  67   0.0000       0.004009         0.1091
  68   0.0000       0.040559         1.1037
  69   0.0000       0.056491         1.5372
  70   0.0000       0.057669         1.5692

MULLIKEN ATOMIC CHARGES
-----------------------
   0 Lu:    0.823733
   1 C :   -0.300358
   2 C :   -0.242131
   3 C :   -0.335405
   4 C :   -0.249510
   5 C :   -0.295155
   6 H :    0.239858
   7 H :    0.239168
   8 H :    0.233836
   9 H :    0.233822
  10 H :    0.227689
  11 C :   -0.232456
  12 C :   -0.331976
  13 C :   -0.298629
  14 C :   -0.313598
  15 H :    0.243098
  16 C :   -0.232071
  17 H :    0.235153
  18 H :    0.230313
  19 H :    0.232066
  20 H :    0.235106
  21 C :   -0.900298
  22 H :    0.237543
  23 H :    0.245183
  24 H :    0.261121
  25 C :   -1.037664
  26 H :    0.223874
  27 H :    0.211209
  28 H :    0.209274
  29 H :    0.207203
Sum of atomic charges:    0.0000000

LOEWDIN ATOMIC CHARGES
----------------------
   0 Lu:   -0.000650
   1 C :   -0.150780
   2 C :   -0.141047
   3 C :   -0.145033
   4 C :   -0.137034
   5 C :   -0.131214
   6 H :    0.153542
   7 H :    0.158155
   8 H :    0.152341
   9 H :    0.148106
  10 H :    0.153137
  11 C :   -0.129877
  12 C :   -0.132907
  13 C :   -0.144999
  14 C :   -0.140943
  15 H :    0.154360
  16 C :   -0.140864
  17 H :    0.158530
  18 H :    0.152101
  19 H :    0.150124
  20 H :    0.151227
  21 C :   -0.485536
  22 H :    0.139197
  23 H :    0.144882
  24 H :    0.153800
  25 C :   -0.644756
  26 H :    0.163763
  27 H :    0.136715
  28 H :    0.127618
  29 H :    0.128041

  Mayer bond orders larger than 0.100000
B(  0-Lu,  1-C ) :   0.2636 B(  0-Lu,  2-C ) :   0.2491 B(  0-Lu,  3-C ) :   0.2641
B(  0-Lu,  4-C ) :   0.2681 B(  0-Lu,  5-C ) :   0.2403 B(  0-Lu, 11-C ) :   0.2664
B(  0-Lu, 12-C ) :   0.2487 B(  0-Lu, 13-C ) :   0.2648 B(  0-Lu, 14-C ) :   0.2736
B(  0-Lu, 16-C ) :   0.2605 B(  0-Lu, 25-C ) :   0.8264 B(  1-C ,  2-C ) :   1.2933
B(  1-C ,  5-C ) :   1.2868 B(  1-C ,  8-H ) :   0.9237 B(  2-C ,  3-C ) :   1.3036
B(  2-C ,  9-H ) :   0.9134 B(  3-C ,  4-C ) :   1.2731 B(  3-C , 10-H ) :   0.9307
B(  4-C ,  5-C ) :   1.3067 B(  4-C ,  6-H ) :   0.9154 B(  5-C ,  7-H ) :   0.9238
B( 11-C , 12-C ) :   1.2963 B( 11-C , 14-C ) :   1.2842 B( 11-C , 15-H ) :   0.9127
B( 12-C , 16-C ) :   1.2823 B( 12-C , 17-H ) :   0.9287 B( 13-C , 14-C ) :   1.2840
B( 13-C , 16-C ) :   1.2937 B( 13-C , 19-H ) :   0.9212 B( 14-C , 18-H ) :   0.9282
B( 16-C , 20-H ) :   0.9162 B( 21-C , 22-H ) :   0.9129 B( 21-C , 23-H ) :   0.9072
B( 21-C , 24-H ) :   0.9140 B( 21-C , 26-H ) :   0.8648 B( 25-C , 27-H ) :   0.9023
B( 25-C , 28-H ) :   0.9112 B( 25-C , 29-H ) :   0.9092

Dispersion correction           -0.017209256
FINAL SINGLE POINT ENERGY     -1702.367476127475
Dispersion correction            ... done

DIPOLE MOMENT
-------------
                                X             Y             Z
Electronic contribution:     -2.57922      12.77670      -5.82255
Nuclear contribution   :      2.77517     -13.57506       6.30192
                        -----------------------------------------
Total Dipole Moment    :      0.19595      -0.79836       0.47937
                        -----------------------------------------
Magnitude (a.u.)       :      0.95162
Magnitude (Debye)      :      2.41881

Rotational constants in cm-1:     0.027601     0.019867     0.017055
Rotational constants in MHz :   827.442324   595.611690   511.302936

                             ****ORCA TERMINATED NORMALLY****
TOTAL RUN TIME: 0 days 0 hours 9 minutes 58 seconds 957 msec
