                         Program Version 5.0.3 -  RELEASE  -
|  1> ! EnGrad PBEh-3c
|  2> %output
|  3> xyzfile=True
|  4> end
|  5> %scf
|  6> maxiter 250
|  7> end
|  8> %output
|  9> Print[P_Hirshfeld] = 1
| 10> end
| 11> % maxcore
| 12> 4000
| 13> *xyz 0 1
| 14> Lu   0.06034755   0.34297615  -0.18743835
| 15> C    0.38224846   0.92907613   2.41509890
| 16> C    1.34641407  -0.07233485   2.16369734
| 17> C    2.30715337   0.43849405   1.26716511
| 18> C    1.93386705   1.77480466   0.96696586
| 19> C    0.74795729   2.08138598   1.67472530
| 20> H    2.50663030   2.46470357   0.37529693
| 21> H    0.22464068   3.01696204   1.66578955
| 22> H   -0.37391387   0.85835218   3.16545566
| 23> H    1.34103861  -1.04981678   2.61441996
| 24> H    3.22757424  -0.03299061   0.99903975
| 25> C    1.01382163  -0.08650743  -2.57831840
| 26> C   -0.28925747  -0.63982216  -2.59271242
| 27> C    1.03107786  -1.94235090  -1.24765899
| 28> C    1.83632057  -0.88564327  -1.73784601
| 29> H    1.33576805   0.77306429  -3.13150347
| 30> C   -0.26755366  -1.79306507  -1.77328677
| 31> H   -1.11446100  -0.28052934  -3.17612156
| 32> H    2.89006828  -0.79998979  -1.62135041
| 33> H    1.35646752  -2.77503276  -0.65326404
| 34> H   -1.04714998  -2.51714108  -1.64093581
| 35> C   -2.53826093  -1.51827076   1.31364946
| 36> H   -2.23421617  -1.48367490   2.35951523
| 37> H   -2.20887542  -2.57193092   1.03747432
| 38> H   -3.61658749  -1.30130992   1.15948619
| 39> C   -1.74415112   1.74899226  -0.78199498
| 40> H   -2.02616612  -0.72829444   0.72291978
| 41> H   -1.34632139   2.58477121  -1.37017117
| 42> H   -2.32080171   2.23855434   0.00734514
| 43> H   -2.47822163   1.28835177  -1.45021452
| 44> *
| 45>
| 46>                          ****END OF INPUT****

CARTESIAN COORDINATES (ANGSTROEM)
---------------------------------
  Lu     0.060348    0.342976   -0.187438
  C      0.382248    0.929076    2.415099
  C      1.346414   -0.072335    2.163697
  C      2.307153    0.438494    1.267165
  C      1.933867    1.774805    0.966966
  C      0.747957    2.081386    1.674725
  H      2.506630    2.464704    0.375297
  H      0.224641    3.016962    1.665790
  H     -0.373914    0.858352    3.165456
  H      1.341039   -1.049817    2.614420
  H      3.227574   -0.032991    0.999040
  C      1.013822   -0.086507   -2.578318
  C     -0.289257   -0.639822   -2.592712
  C      1.031078   -1.942351   -1.247659
  C      1.836321   -0.885643   -1.737846
  H      1.335768    0.773064   -3.131503
  C     -0.267554   -1.793065   -1.773287
  H     -1.114461   -0.280529   -3.176122
  H      2.890068   -0.799990   -1.621350
  H      1.356468   -2.775033   -0.653264
  H     -1.047150   -2.517141   -1.640936
  C     -2.538261   -1.518271    1.313649
  H     -2.234216   -1.483675    2.359515
  H     -2.208875   -2.571931    1.037474
  H     -3.616587   -1.301310    1.159486
  C     -1.744151    1.748992   -0.781995
  H     -2.026166   -0.728294    0.722920
  H     -1.346321    2.584771   -1.370171
  H     -2.320802    2.238554    0.007345
  H     -2.478222    1.288352   -1.450215

 Total Charge           Charge          ....    0
 Multiplicity           Mult            ....    1
 Number of Electrons    NEL             ....  132
 Basis Dimension        Dim             ....  295

ORBITAL ENERGIES
----------------

  NO   OCC          E(Eh)            E(eV)
   0   2.0000     -19.256505      -523.9962
   1   2.0000     -12.629090      -343.6550
   2   2.0000     -12.626580      -343.5867
   3   2.0000     -12.625973      -343.5702
   4   2.0000     -10.455416      -284.5063
   5   2.0000     -10.443718      -284.1880
   6   2.0000     -10.443498      -284.1820
   7   2.0000     -10.443157      -284.1727
   8   2.0000     -10.443141      -284.1723
   9   2.0000     -10.442732      -284.1612
  10   2.0000     -10.442633      -284.1585
  11   2.0000     -10.442464      -284.1539
  12   2.0000     -10.442117      -284.1444
  13   2.0000     -10.441619      -284.1309
  14   2.0000     -10.440878      -284.1107
  15   2.0000     -10.361923      -281.9623
  16   2.0000      -5.898198      -160.4981
  17   2.0000      -5.897891      -160.4898
  18   2.0000      -5.897235      -160.4719
  19   2.0000      -5.895824      -160.4335
  20   2.0000      -5.895607      -160.4276
  21   2.0000      -2.439792       -66.3901
  22   2.0000      -1.277891       -34.7732
  23   2.0000      -1.275230       -34.7008
  24   2.0000      -1.265337       -34.4316
  25   2.0000      -0.972897       -26.4739
  26   2.0000      -0.965916       -26.2839
  27   2.0000      -0.797019       -21.6880
  28   2.0000      -0.790354       -21.5066
  29   2.0000      -0.790254       -21.5039
  30   2.0000      -0.789583       -21.4856
  31   2.0000      -0.786619       -21.4050
  32   2.0000      -0.703247       -19.1363
  33   2.0000      -0.613550       -16.6955
  34   2.0000      -0.611068       -16.6280
  35   2.0000      -0.609489       -16.5850
  36   2.0000      -0.607739       -16.5374
  37   2.0000      -0.594358       -16.1733
  38   2.0000      -0.590212       -16.0605
  39   2.0000      -0.565945       -15.4002
  40   2.0000      -0.564610       -15.3638
  41   2.0000      -0.564452       -15.3595
  42   2.0000      -0.563379       -15.3303
  43   2.0000      -0.562697       -15.3118
  44   2.0000      -0.561406       -15.2766
  45   2.0000      -0.559824       -15.2336
  46   2.0000      -0.493823       -13.4376
  47   2.0000      -0.470043       -12.7905
  48   2.0000      -0.455864       -12.4047
  49   2.0000      -0.453338       -12.3359
  50   2.0000      -0.452461       -12.3121
  51   2.0000      -0.449300       -12.2261
  52   2.0000      -0.447627       -12.1806
  53   2.0000      -0.446423       -12.1478
  54   2.0000      -0.432257       -11.7623
  55   2.0000      -0.430772       -11.7219
  56   2.0000      -0.428406       -11.6575
  57   2.0000      -0.427781       -11.6405
  58   2.0000      -0.423690       -11.5292
  59   2.0000      -0.394856       -10.7446
  60   2.0000      -0.391594       -10.6558
  61   2.0000      -0.288017        -7.8373
  62   2.0000      -0.280395        -7.6299
  63   2.0000      -0.276053        -7.5118
  64   2.0000      -0.262876        -7.1532
  65   2.0000      -0.258516        -7.0346
  66   0.0000      -0.019044        -0.5182
  67   0.0000       0.007660         0.2084
  68   0.0000       0.043203         1.1756
  69   0.0000       0.054728         1.4892
  70   0.0000       0.059212         1.6112

MULLIKEN ATOMIC CHARGES
-----------------------
   0 Lu:    0.861468
   1 C :   -0.322781
   2 C :   -0.258970
   3 C :   -0.285054
   4 C :   -0.318097
   5 C :   -0.253626
   6 H :    0.239389
   7 H :    0.247055
   8 H :    0.231385
   9 H :    0.232492
  10 H :    0.227082
  11 C :   -0.293422
  12 C :   -0.271515
  13 C :   -0.268413
  14 C :   -0.296307
  15 H :    0.242843
  16 C :   -0.296127
  17 H :    0.242489
  18 H :    0.229232
  19 H :    0.230874
  20 H :    0.232107
  21 C :   -0.881811
  22 H :    0.246861
  23 H :    0.230794
  24 H :    0.255899
  25 C :   -1.076304
  26 H :    0.213397
  27 H :    0.218906
  28 H :    0.222051
  29 H :    0.218103
Sum of atomic charges:   -0.0000000

LOEWDIN ATOMIC CHARGES
----------------------
   0 Lu:    0.044849
   1 C :   -0.154266
   2 C :   -0.149789
   3 C :   -0.137267
   4 C :   -0.152774
   5 C :   -0.134856
   6 H :    0.153852
   7 H :    0.158389
   8 H :    0.151342
   9 H :    0.148439
  10 H :    0.150573
  11 C :   -0.146271
  12 C :   -0.134243
  13 C :   -0.146731
  14 C :   -0.139823
  15 H :    0.154878
  16 C :   -0.150974
  17 H :    0.158189
  18 H :    0.150784
  19 H :    0.149356
  20 H :    0.150435
  21 C :   -0.471648
  22 H :    0.141541
  23 H :    0.142425
  24 H :    0.150597
  25 C :   -0.648322
  26 H :    0.151052
  27 H :    0.142417
  28 H :    0.133730
  29 H :    0.134114

  Mayer bond orders larger than 0.100000
B(  0-Lu,  1-C ) :   0.2597 B(  0-Lu,  2-C ) :   0.2436 B(  0-Lu,  3-C ) :   0.2411
B(  0-Lu,  4-C ) :   0.2812 B(  0-Lu,  5-C ) :   0.2346 B(  0-Lu, 11-C ) :   0.2807
B(  0-Lu, 12-C ) :   0.2373 B(  0-Lu, 13-C ) :   0.2466 B(  0-Lu, 14-C ) :   0.2560
B(  0-Lu, 16-C ) :   0.2634 B(  0-Lu, 25-C ) :   0.8334 B(  1-C ,  2-C ) :   1.2825
B(  1-C ,  5-C ) :   1.3038 B(  1-C ,  8-H ) :   0.9252 B(  2-C ,  3-C ) :   1.3180
B(  2-C ,  9-H ) :   0.9160 B(  3-C ,  4-C ) :   1.2842 B(  3-C , 10-H ) :   0.9274
B(  4-C ,  5-C ) :   1.2876 B(  4-C ,  6-H ) :   0.9174 B(  5-C ,  7-H ) :   0.9129
B( 11-C , 12-C ) :   1.2911 B( 11-C , 14-C ) :   1.2845 B( 11-C , 15-H ) :   0.9130
B( 12-C , 16-C ) :   1.2978 B( 12-C , 17-H ) :   0.9178 B( 13-C , 14-C ) :   1.3031
B( 13-C , 16-C ) :   1.2897 B( 13-C , 19-H ) :   0.9206 B( 14-C , 18-H ) :   0.9261
B( 16-C , 20-H ) :   0.9217 B( 21-C , 22-H ) :   0.9128 B( 21-C , 23-H ) :   0.9226
B( 21-C , 24-H ) :   0.9172 B( 21-C , 26-H ) :   0.8667 B( 25-C , 27-H ) :   0.8960
B( 25-C , 28-H ) :   0.9077 B( 25-C , 29-H ) :   0.9047

Dispersion correction           -0.017061464
FINAL SINGLE POINT ENERGY     -1702.377343965489
Dispersion correction            ... done

DIPOLE MOMENT
-------------
                                X             Y             Z
Electronic contribution:     -4.28267      16.23315      -7.67896
Nuclear contribution   :      4.33352     -16.92624       8.10282
                        -----------------------------------------
Total Dipole Moment    :      0.05085      -0.69309       0.42386
                        -----------------------------------------
Magnitude (a.u.)       :      0.81402
Magnitude (Debye)      :      2.06907

Rotational constants in cm-1:     0.027309     0.019438     0.016821
Rotational constants in MHz :   818.701882   582.722101   504.280258

                             ****ORCA TERMINATED NORMALLY****
TOTAL RUN TIME: 0 days 0 hours 9 minutes 57 seconds 297 msec
