                         Program Version 5.0.3 -  RELEASE  -
|  1> ! EnGrad PBEh-3c
|  2> %output
|  3> xyzfile=True
|  4> end
|  5> %scf
|  6> maxiter 250
|  7> end
|  8> %output
|  9> Print[P_Hirshfeld] = 1
| 10> end
| 11> % maxcore
| 12> 4000
| 13> *xyz 0 1
| 14> Lu   0.10222126   0.24376111  -0.13593223
| 15> C    0.39775472   0.87918267   2.40296823
| 16> C    1.36544454  -0.11061460   2.14769522
| 17> C    2.28198371   0.43762261   1.22310163
| 18> C    1.90139364   1.74953181   0.96167911
| 19> C    0.69298133   1.99870361   1.66023346
| 20> H    2.44701690   2.44637525   0.37307420
| 21> H    0.22543775   2.97803728   1.73486905
| 22> H   -0.38959063   0.76771413   3.16031728
| 23> H    1.41359085  -1.06930184   2.57585166
| 24> H    3.23845132  -0.00164947   0.95863584
| 25> C    0.98614957  -0.09968217  -2.52396905
| 26> C   -0.31958804  -0.64714383  -2.49071235
| 27> C    1.04322331  -1.92913830  -1.20590133
| 28> C    1.78759414  -0.86036837  -1.71441652
| 29> H    1.29537712   0.75535400  -3.10438042
| 30> C   -0.25374544  -1.80751732  -1.73534934
| 31> H   -1.13096168  -0.33365035  -3.13997044
| 32> H    2.88640444  -0.75787115  -1.62489839
| 33> H    1.41541010  -2.76129325  -0.64629033
| 34> H   -1.06417277  -2.51570036  -1.53851029
| 35> C   -2.58484067  -1.45866421   1.31180736
| 36> H   -2.18762234  -1.32890151   2.23494335
| 37> H   -1.99784714  -2.36234517   0.90144940
| 38> H   -3.70815954  -1.54589412   1.24050577
| 39> C   -1.68765314   1.77458459  -0.82689023
| 40> H   -2.31149000  -0.53945805   0.67350575
| 41> H   -1.22967863   2.61190705  -1.39442801
| 42> H   -2.27169107   2.26438405  -0.01481205
| 43> H   -2.42132327   1.31729618  -1.53001842
| 44> *
| 45>
| 46>                          ****END OF INPUT****

CARTESIAN COORDINATES (ANGSTROEM)
---------------------------------
  Lu     0.102221    0.243761   -0.135932
  C      0.397755    0.879183    2.402968
  C      1.365445   -0.110615    2.147695
  C      2.281984    0.437623    1.223102
  C      1.901394    1.749532    0.961679
  C      0.692981    1.998704    1.660233
  H      2.447017    2.446375    0.373074
  H      0.225438    2.978037    1.734869
  H     -0.389591    0.767714    3.160317
  H      1.413591   -1.069302    2.575852
  H      3.238451   -0.001649    0.958636
  C      0.986150   -0.099682   -2.523969
  C     -0.319588   -0.647144   -2.490712
  C      1.043223   -1.929138   -1.205901
  C      1.787594   -0.860368   -1.714417
  H      1.295377    0.755354   -3.104380
  C     -0.253745   -1.807517   -1.735349
  H     -1.130962   -0.333650   -3.139970
  H      2.886404   -0.757871   -1.624898
  H      1.415410   -2.761293   -0.646290
  H     -1.064173   -2.515700   -1.538510
  C     -2.584841   -1.458664    1.311807
  H     -2.187622   -1.328902    2.234943
  H     -1.997847   -2.362345    0.901449
  H     -3.708160   -1.545894    1.240506
  C     -1.687653    1.774585   -0.826890
  H     -2.311490   -0.539458    0.673506
  H     -1.229679    2.611907   -1.394428
  H     -2.271691    2.264384   -0.014812
  H     -2.421323    1.317296   -1.530018

 Total Charge           Charge          ....    0
 Multiplicity           Mult            ....    1
 Number of Electrons    NEL             ....  132
 Basis Dimension        Dim             ....  295

ORBITAL ENERGIES
----------------

  NO   OCC          E(Eh)            E(eV)
   0   2.0000     -19.250155      -523.8234
   1   2.0000     -12.622816      -343.4843
   2   2.0000     -12.620110      -343.4107
   3   2.0000     -12.619539      -343.3951
   4   2.0000     -10.451534      -284.4007
   5   2.0000     -10.445494      -284.2363
   6   2.0000     -10.445282      -284.2306
   7   2.0000     -10.443557      -284.1836
   8   2.0000     -10.442730      -284.1611
   9   2.0000     -10.441502      -284.1277
  10   2.0000     -10.440570      -284.1024
  11   2.0000     -10.440315      -284.0954
  12   2.0000     -10.439891      -284.0839
  13   2.0000     -10.439340      -284.0689
  14   2.0000     -10.438146      -284.0364
  15   2.0000     -10.363971      -282.0180
  16   2.0000      -5.891828      -160.3248
  17   2.0000      -5.891483      -160.3154
  18   2.0000      -5.890814      -160.2972
  19   2.0000      -5.889292      -160.2558
  20   2.0000      -5.889102      -160.2506
  21   2.0000      -2.433679       -66.2238
  22   2.0000      -1.273171       -34.6447
  23   2.0000      -1.272579       -34.6286
  24   2.0000      -1.259661       -34.2771
  25   2.0000      -0.987624       -26.8746
  26   2.0000      -0.977725       -26.6053
  27   2.0000      -0.799840       -21.7648
  28   2.0000      -0.797512       -21.7014
  29   2.0000      -0.796936       -21.6857
  30   2.0000      -0.792732       -21.5713
  31   2.0000      -0.791223       -21.5303
  32   2.0000      -0.687406       -18.7053
  33   2.0000      -0.615748       -16.7553
  34   2.0000      -0.612307       -16.6617
  35   2.0000      -0.610105       -16.6018
  36   2.0000      -0.608613       -16.5612
  37   2.0000      -0.598026       -16.2731
  38   2.0000      -0.591463       -16.0945
  39   2.0000      -0.559536       -15.2257
  40   2.0000      -0.558378       -15.1943
  41   2.0000      -0.558141       -15.1878
  42   2.0000      -0.556856       -15.1528
  43   2.0000      -0.556218       -15.1355
  44   2.0000      -0.554853       -15.0983
  45   2.0000      -0.553271       -15.0553
  46   2.0000      -0.491403       -13.3717
  47   2.0000      -0.472837       -12.8665
  48   2.0000      -0.460016       -12.5177
  49   2.0000      -0.456577       -12.4241
  50   2.0000      -0.453333       -12.3358
  51   2.0000      -0.452291       -12.3075
  52   2.0000      -0.451858       -12.2957
  53   2.0000      -0.449906       -12.2426
  54   2.0000      -0.437539       -11.9061
  55   2.0000      -0.432845       -11.7783
  56   2.0000      -0.430042       -11.7020
  57   2.0000      -0.427478       -11.6323
  58   2.0000      -0.425552       -11.5799
  59   2.0000      -0.384326       -10.4580
  60   2.0000      -0.381003       -10.3676
  61   2.0000      -0.295950        -8.0532
  62   2.0000      -0.284754        -7.7485
  63   2.0000      -0.277376        -7.5478
  64   2.0000      -0.268028        -7.2934
  65   2.0000      -0.247373        -6.7314
  66   0.0000      -0.017289        -0.4704
  67   0.0000       0.006296         0.1713
  68   0.0000       0.041569         1.1312
  69   0.0000       0.055964         1.5229
  70   0.0000       0.057756         1.5716

MULLIKEN ATOMIC CHARGES
-----------------------
   0 Lu:    0.813374
   1 C :   -0.271335
   2 C :   -0.266487
   3 C :   -0.327113
   4 C :   -0.247311
   5 C :   -0.302411
   6 H :    0.242406
   7 H :    0.236086
   8 H :    0.232048
   9 H :    0.237874
  10 H :    0.228455
  11 C :   -0.239295
  12 C :   -0.328106
  13 C :   -0.314643
  14 C :   -0.295879
  15 H :    0.243464
  16 C :   -0.219588
  17 H :    0.234102
  18 H :    0.229991
  19 H :    0.233486
  20 H :    0.232184
  21 C :   -0.927654
  22 H :    0.273452
  23 H :    0.222265
  24 H :    0.252991
  25 C :   -1.027804
  26 H :    0.241521
  27 H :    0.207732
  28 H :    0.204807
  29 H :    0.201390
Sum of atomic charges:    0.0000000

LOEWDIN ATOMIC CHARGES
----------------------
   0 Lu:   -0.019746
   1 C :   -0.137753
   2 C :   -0.152592
   3 C :   -0.132575
   4 C :   -0.138668
   5 C :   -0.131589
   6 H :    0.154933
   7 H :    0.159590
   8 H :    0.152709
   9 H :    0.150502
  10 H :    0.152450
  11 C :   -0.132418
  12 C :   -0.130867
  13 C :   -0.154402
  14 C :   -0.130609
  15 H :    0.157127
  16 C :   -0.132229
  17 H :    0.159306
  18 H :    0.153135
  19 H :    0.152831
  20 H :    0.150901
  21 C :   -0.488809
  22 H :    0.138202
  23 H :    0.140082
  24 H :    0.152892
  25 C :   -0.641799
  26 H :    0.164648
  27 H :    0.134582
  28 H :    0.125137
  29 H :    0.125030

  Mayer bond orders larger than 0.100000
B(  0-Lu,  1-C ) :   0.2552 B(  0-Lu,  2-C ) :   0.2644 B(  0-Lu,  3-C ) :   0.2645
B(  0-Lu,  4-C ) :   0.2735 B(  0-Lu,  5-C ) :   0.2428 B(  0-Lu, 11-C ) :   0.2697
B(  0-Lu, 12-C ) :   0.2521 B(  0-Lu, 13-C ) :   0.2797 B(  0-Lu, 14-C ) :   0.2691
B(  0-Lu, 16-C ) :   0.2565 B(  0-Lu, 25-C ) :   0.8197 B(  1-C ,  2-C ) :   1.2794
B(  1-C ,  5-C ) :   1.3120 B(  1-C ,  8-H ) :   0.9205 B(  2-C ,  3-C ) :   1.2933
B(  2-C ,  9-H ) :   0.9147 B(  3-C ,  4-C ) :   1.2956 B(  3-C , 10-H ) :   0.9274
B(  4-C ,  5-C ) :   1.2728 B(  4-C ,  6-H ) :   0.9152 B(  5-C ,  7-H ) :   0.9268
B( 11-C , 12-C ) :   1.2684 B( 11-C , 14-C ) :   1.3056 B( 11-C , 15-H ) :   0.9140
B( 12-C , 16-C ) :   1.3074 B( 12-C , 17-H ) :   0.9286 B( 13-C , 14-C ) :   1.2763
B( 13-C , 16-C ) :   1.2761 B( 13-C , 19-H ) :   0.9221 B( 14-C , 18-H ) :   0.9225
B( 16-C , 20-H ) :   0.9148 B( 21-C , 22-H ) :   0.8896 B( 21-C , 23-H ) :   0.9195
B( 21-C , 24-H ) :   0.9213 B( 21-C , 26-H ) :   0.8668 B( 25-C , 27-H ) :   0.9036
B( 25-C , 28-H ) :   0.9128 B( 25-C , 29-H ) :   0.9116

Dispersion correction           -0.017339947
FINAL SINGLE POINT ENERGY     -1702.366753478966
Dispersion correction            ... done

DIPOLE MOMENT
-------------
                                X             Y             Z
Electronic contribution:     -1.78641      11.29365      -5.18345
Nuclear contribution   :      2.04615     -12.09751       5.66343
                        -----------------------------------------
Total Dipole Moment    :      0.25974      -0.80386       0.47998
                        -----------------------------------------
Magnitude (a.u.)       :      0.97161
Magnitude (Debye)      :      2.46964

Rotational constants in cm-1:     0.028021     0.020168     0.017304
Rotational constants in MHz :   840.036047   604.618293   518.747564

                             ****ORCA TERMINATED NORMALLY****
TOTAL RUN TIME: 0 days 0 hours 10 minutes 3 seconds 505 msec
