                         Program Version 5.0.3 -  RELEASE  -
|  1> ! EnGrad PBEh-3c
|  2> %output
|  3> xyzfile=True
|  4> end
|  5> %scf
|  6> maxiter 250
|  7> end
|  8> %output
|  9> Print[P_Hirshfeld] = 1
| 10> end
| 11> % maxcore
| 12> 4000
| 13> *xyz 0 1
| 14> Lu   0.07326803   0.31236253  -0.17154571
| 15> C    0.38703305   0.91368109   2.41135588
| 16> C    1.35228608  -0.08414638   2.15875975
| 17> C    2.29938706   0.43822516   1.25356896
| 18> C    1.92384711   1.76700651   0.96533459
| 19> C    0.73099401   2.05587365   1.67025373
| 20> H    2.48823609   2.45904821   0.37461109
| 21> H    0.22488662   3.00495149   1.68710460
| 22> H   -0.37875106   0.83038506   3.16387017
| 23> H    1.36342520  -1.05582906   2.60251939
| 24> H    3.23093046  -0.02332004   0.98657279
| 25> C    1.00528319  -0.09057260  -2.56154846
| 26> C   -0.29861622  -0.64208132  -2.56123946
| 27> C    1.03482544  -1.93827404  -1.23477432
| 28> C    1.82128563  -0.87784449  -1.73061665
| 29> H    1.32330510   0.76759963  -3.12313443
| 30> C   -0.26329302  -1.79752443  -1.76158086
| 31> H   -1.11955242  -0.29692026  -3.16496684
| 32> H    2.88893778  -0.78699374  -1.62244517
| 33> H    1.37465474  -2.77079332  -0.65111225
| 34> H   -1.05240250  -2.51669654  -1.60933157
| 35> C   -2.55263350  -1.49987867   1.31308107
| 36> H   -2.21983926  -1.43591829   2.32107755
| 37> H   -2.14376091  -2.50726151   0.99550271
| 38> H   -3.64484280  -1.37677839   1.18448545
| 39> C   -1.72671820   1.75688898  -0.79584778
| 40> H   -2.11420516  -0.67002742   0.70767268
| 41> H   -1.31033031   2.59314420  -1.37765582
| 42> H   -2.30564822   2.24652431   0.00050836
| 43> H   -2.46066517   1.29728281  -1.47483867
| 44> *
| 45>
| 46>                          ****END OF INPUT****

CARTESIAN COORDINATES (ANGSTROEM)
---------------------------------
  Lu     0.073268    0.312363   -0.171546
  C      0.387033    0.913681    2.411356
  C      1.352286   -0.084146    2.158760
  C      2.299387    0.438225    1.253569
  C      1.923847    1.767007    0.965335
  C      0.730994    2.055874    1.670254
  H      2.488236    2.459048    0.374611
  H      0.224887    3.004951    1.687105
  H     -0.378751    0.830385    3.163870
  H      1.363425   -1.055829    2.602519
  H      3.230930   -0.023320    0.986573
  C      1.005283   -0.090573   -2.561548
  C     -0.298616   -0.642081   -2.561239
  C      1.034825   -1.938274   -1.234774
  C      1.821286   -0.877844   -1.730617
  H      1.323305    0.767600   -3.123134
  C     -0.263293   -1.797524   -1.761581
  H     -1.119552   -0.296920   -3.164967
  H      2.888938   -0.786994   -1.622445
  H      1.374655   -2.770793   -0.651112
  H     -1.052402   -2.516697   -1.609332
  C     -2.552634   -1.499879    1.313081
  H     -2.219839   -1.435918    2.321078
  H     -2.143761   -2.507262    0.995503
  H     -3.644843   -1.376778    1.184485
  C     -1.726718    1.756889   -0.795848
  H     -2.114205   -0.670027    0.707673
  H     -1.310330    2.593144   -1.377656
  H     -2.305648    2.246524    0.000508
  H     -2.460665    1.297283   -1.474839

 Total Charge           Charge          ....    0
 Multiplicity           Mult            ....    1
 Number of Electrons    NEL             ....  132
 Basis Dimension        Dim             ....  295

ORBITAL ENERGIES
----------------

  NO   OCC          E(Eh)            E(eV)
   0   2.0000     -19.254455      -523.9403
   1   2.0000     -12.627061      -343.5998
   2   2.0000     -12.624496      -343.5300
   3   2.0000     -12.623899      -343.5138
   4   2.0000     -10.451143      -284.3900
   5   2.0000     -10.443788      -284.1899
   6   2.0000     -10.443504      -284.1822
   7   2.0000     -10.443188      -284.1736
   8   2.0000     -10.443103      -284.1713
   9   2.0000     -10.442532      -284.1557
  10   2.0000     -10.441976      -284.1406
  11   2.0000     -10.441858      -284.1374
  12   2.0000     -10.441562      -284.1294
  13   2.0000     -10.441067      -284.1159
  14   2.0000     -10.439946      -284.0854
  15   2.0000     -10.362316      -281.9729
  16   2.0000      -5.896142      -160.4422
  17   2.0000      -5.895826      -160.4336
  18   2.0000      -5.895164      -160.4156
  19   2.0000      -5.893723      -160.3764
  20   2.0000      -5.893515      -160.3707
  21   2.0000      -2.437800       -66.3359
  22   2.0000      -1.276114       -34.7248
  23   2.0000      -1.274357       -34.6770
  24   2.0000      -1.263428       -34.3796
  25   2.0000      -0.977383       -26.5959
  26   2.0000      -0.969700       -26.3869
  27   2.0000      -0.799290       -21.7498
  28   2.0000      -0.792758       -21.5720
  29   2.0000      -0.792040       -21.5525
  30   2.0000      -0.790714       -21.5164
  31   2.0000      -0.788434       -21.4544
  32   2.0000      -0.698155       -18.9978
  33   2.0000      -0.613503       -16.6943
  34   2.0000      -0.611266       -16.6334
  35   2.0000      -0.609995       -16.5988
  36   2.0000      -0.608373       -16.5547
  37   2.0000      -0.595749       -16.2111
  38   2.0000      -0.590953       -16.0806
  39   2.0000      -0.563875       -15.3438
  40   2.0000      -0.562596       -15.3090
  41   2.0000      -0.562417       -15.3041
  42   2.0000      -0.561286       -15.2734
  43   2.0000      -0.560607       -15.2549
  44   2.0000      -0.559307       -15.2195
  45   2.0000      -0.557714       -15.1762
  46   2.0000      -0.491820       -13.3831
  47   2.0000      -0.471209       -12.8222
  48   2.0000      -0.457721       -12.4552
  49   2.0000      -0.457505       -12.4493
  50   2.0000      -0.452559       -12.3147
  51   2.0000      -0.449566       -12.2333
  52   2.0000      -0.449162       -12.2223
  53   2.0000      -0.448483       -12.2039
  54   2.0000      -0.433427       -11.7942
  55   2.0000      -0.432228       -11.7615
  56   2.0000      -0.429392       -11.6844
  57   2.0000      -0.428148       -11.6505
  58   2.0000      -0.425757       -11.5854
  59   2.0000      -0.391414       -10.6509
  60   2.0000      -0.388189       -10.5632
  61   2.0000      -0.290232        -7.8976
  62   2.0000      -0.281565        -7.6618
  63   2.0000      -0.276652        -7.5281
  64   2.0000      -0.262029        -7.1302
  65   2.0000      -0.257558        -7.0085
  66   0.0000      -0.018018        -0.4903
  67   0.0000       0.007387         0.2010
  68   0.0000       0.043015         1.1705
  69   0.0000       0.055848         1.5197
  70   0.0000       0.058272         1.5857

MULLIKEN ATOMIC CHARGES
-----------------------
   0 Lu:    0.843640
   1 C :   -0.307741
   2 C :   -0.260536
   3 C :   -0.298502
   4 C :   -0.295314
   5 C :   -0.268575
   6 H :    0.240211
   7 H :    0.244203
   8 H :    0.231798
   9 H :    0.234190
  10 H :    0.227428
  11 C :   -0.275341
  12 C :   -0.289994
  13 C :   -0.282102
  14 C :   -0.297187
  15 H :    0.243022
  16 C :   -0.271738
  17 H :    0.240034
  18 H :    0.229752
  19 H :    0.231550
  20 H :    0.232431
  21 C :   -0.900265
  22 H :    0.254571
  23 H :    0.230575
  24 H :    0.256345
  25 C :   -1.061138
  26 H :    0.223765
  27 H :    0.215527
  28 H :    0.216603
  29 H :    0.212788
Sum of atomic charges:    0.0000000

LOEWDIN ATOMIC CHARGES
----------------------
   0 Lu:    0.025594
   1 C :   -0.149171
   2 C :   -0.150680
   3 C :   -0.135707
   4 C :   -0.148639
   5 C :   -0.133718
   6 H :    0.154202
   7 H :    0.158724
   8 H :    0.151863
   9 H :    0.149062
  10 H :    0.151145
  11 C :   -0.142141
  12 C :   -0.133243
  13 C :   -0.149084
  14 C :   -0.136965
  15 H :    0.155580
  16 C :   -0.145131
  17 H :    0.158552
  18 H :    0.151711
  19 H :    0.150346
  20 H :    0.150594
  21 C :   -0.477189
  22 H :    0.141026
  23 H :    0.141680
  24 H :    0.150668
  25 C :   -0.646480
  26 H :    0.155208
  27 H :    0.139929
  28 H :    0.131043
  29 H :    0.131223

  Mayer bond orders larger than 0.100000
B(  0-Lu,  1-C ) :   0.2588 B(  0-Lu,  2-C ) :   0.2501 B(  0-Lu,  3-C ) :   0.2486
B(  0-Lu,  4-C ) :   0.2794 B(  0-Lu,  5-C ) :   0.2370 B(  0-Lu, 11-C ) :   0.2778
B(  0-Lu, 12-C ) :   0.2419 B(  0-Lu, 13-C ) :   0.2568 B(  0-Lu, 14-C ) :   0.2607
B(  0-Lu, 16-C ) :   0.2618 B(  0-Lu, 25-C ) :   0.8298 B(  1-C ,  2-C ) :   1.2813
B(  1-C ,  5-C ) :   1.3078 B(  1-C ,  8-H ) :   0.9237 B(  2-C ,  3-C ) :   1.3104
B(  2-C ,  9-H ) :   0.9157 B(  3-C ,  4-C ) :   1.2881 B(  3-C , 10-H ) :   0.9276
B(  4-C ,  5-C ) :   1.2835 B(  4-C ,  6-H ) :   0.9168 B(  5-C ,  7-H ) :   0.9172
B( 11-C , 12-C ) :   1.2847 B( 11-C , 14-C ) :   1.2905 B( 11-C , 15-H ) :   0.9133
B( 12-C , 16-C ) :   1.3020 B( 12-C , 17-H ) :   0.9213 B( 13-C , 14-C ) :   1.2951
B( 13-C , 16-C ) :   1.2860 B( 13-C , 19-H ) :   0.9212 B( 14-C , 18-H ) :   0.9251
B( 16-C , 20-H ) :   0.9195 B( 21-C , 22-H ) :   0.9072 B( 21-C , 23-H ) :   0.9215
B( 21-C , 24-H ) :   0.9181 B( 21-C , 26-H ) :   0.8662 B( 25-C , 27-H ) :   0.8985
B( 25-C , 28-H ) :   0.9094 B( 25-C , 29-H ) :   0.9070

Dispersion correction           -0.017144897
FINAL SINGLE POINT ENERGY     -1702.380278447759
Dispersion correction            ... done

DIPOLE MOMENT
-------------
                                X             Y             Z
Electronic contribution:     -3.50932      14.70482      -6.90828
Nuclear contribution   :      3.62773     -15.43629       7.35013
                        -----------------------------------------
Total Dipole Moment    :      0.11841      -0.73148       0.44185
                        -----------------------------------------
Magnitude (a.u.)       :      0.86273
Magnitude (Debye)      :      2.19289

Rotational constants in cm-1:     0.027543     0.019665     0.016970
Rotational constants in MHz :   825.708771   589.554401   508.737538

                             ****ORCA TERMINATED NORMALLY****
TOTAL RUN TIME: 0 days 0 hours 10 minutes 0 seconds 171 msec
