                         Program Version 5.0.3 -  RELEASE  -
|  1> ! EnGrad PBEh-3c
|  2> %output
|  3> xyzfile=True
|  4> end
|  5> %scf
|  6> maxiter 250
|  7> end
|  8> %output
|  9> Print[P_Hirshfeld] = 1
| 10> end
| 11> % maxcore
| 12> 4000
| 13> *xyz 0 1
| 14> Lu   0.10990718   0.25689843  -0.14436044
| 15> C    0.39083546   0.87385004   2.41318374
| 16> C    1.36359797  -0.09759328   2.14396614
| 17> C    2.28327866   0.43774200   1.23783883
| 18> C    1.89399248   1.74736217   0.96250612
| 19> C    0.69727380   2.01351952   1.65463180
| 20> H    2.44724425   2.44856325   0.36198882
| 21> H    0.22010426   2.97458884   1.72577341
| 22> H   -0.39803313   0.77993506   3.15062668
| 23> H    1.41850968  -1.07234963   2.59336320
| 24> H    3.23101557  -0.00962228   0.95366727
| 25> C    0.97762140  -0.09223803  -2.52648417
| 26> C   -0.31657934  -0.64264123  -2.50561907
| 27> C    1.03783523  -1.93117728  -1.21416302
| 28> C    1.80415913  -0.86951109  -1.71624599
| 29> H    1.29577122   0.76274744  -3.10134372
| 30> C   -0.25996642  -1.81577137  -1.73491476
| 31> H   -1.13318721  -0.32783284  -3.13312045
| 32> H    2.87734942  -0.75606164  -1.61646786
| 33> H    1.41622689  -2.76669042  -0.64817665
| 34> H   -1.06956960  -2.50998158  -1.55534305
| 35> C   -2.57710072  -1.47394166   1.27445852
| 36> H   -2.20671137  -1.32021774   2.28078564
| 37> H   -2.06672025  -2.35377318   0.90698758
| 38> H   -3.62610933  -1.51059796   1.21402077
| 39> C   -1.69638748   1.77075314  -0.81870983
| 40> H   -2.23422068  -0.61582680   0.70267191
| 41> H   -1.23755897   2.60653443  -1.38982078
| 42> H   -2.28423784   2.26658921  -0.01643601
| 43> H   -2.43035517   1.31861295  -1.51951485
| 44> *
| 45>
| 46>                          ****END OF INPUT****

CARTESIAN COORDINATES (ANGSTROEM)
---------------------------------
  Lu     0.109907    0.256898   -0.144360
  C      0.390835    0.873850    2.413184
  C      1.363598   -0.097593    2.143966
  C      2.283279    0.437742    1.237839
  C      1.893992    1.747362    0.962506
  C      0.697274    2.013520    1.654632
  H      2.447244    2.448563    0.361989
  H      0.220104    2.974589    1.725773
  H     -0.398033    0.779935    3.150627
  H      1.418510   -1.072350    2.593363
  H      3.231016   -0.009622    0.953667
  C      0.977621   -0.092238   -2.526484
  C     -0.316579   -0.642641   -2.505619
  C      1.037835   -1.931177   -1.214163
  C      1.804159   -0.869511   -1.716246
  H      1.295771    0.762747   -3.101344
  C     -0.259966   -1.815771   -1.734915
  H     -1.133187   -0.327833   -3.133120
  H      2.877349   -0.756062   -1.616468
  H      1.416227   -2.766690   -0.648177
  H     -1.069570   -2.509982   -1.555343
  C     -2.577101   -1.473942    1.274459
  H     -2.206711   -1.320218    2.280786
  H     -2.066720   -2.353773    0.906988
  H     -3.626109   -1.510598    1.214021
  C     -1.696387    1.770753   -0.818710
  H     -2.234221   -0.615827    0.702672
  H     -1.237559    2.606534   -1.389821
  H     -2.284238    2.266589   -0.016436
  H     -2.430355    1.318613   -1.519515

 Total Charge           Charge          ....    0
 Multiplicity           Mult            ....    1
 Number of Electrons    NEL             ....  132
 Basis Dimension        Dim             ....  295

ORBITAL ENERGIES
----------------

  NO   OCC          E(Eh)            E(eV)
   0   2.0000     -19.250874      -523.8429
   1   2.0000     -12.623527      -343.5036
   2   2.0000     -12.620825      -343.4301
   3   2.0000     -12.620275      -343.4151
   4   2.0000     -10.446144      -284.2540
   5   2.0000     -10.445149      -284.2270
   6   2.0000     -10.443688      -284.1872
   7   2.0000     -10.443440      -284.1805
   8   2.0000     -10.443045      -284.1697
   9   2.0000     -10.442776      -284.1624
  10   2.0000     -10.441378      -284.1243
  11   2.0000     -10.441165      -284.1186
  12   2.0000     -10.440448      -284.0990
  13   2.0000     -10.439669      -284.0778
  14   2.0000     -10.435666      -283.9689
  15   2.0000     -10.363417      -282.0029
  16   2.0000      -5.892539      -160.3441
  17   2.0000      -5.892195      -160.3348
  18   2.0000      -5.891548      -160.3172
  19   2.0000      -5.890022      -160.2756
  20   2.0000      -5.889830      -160.2704
  21   2.0000      -2.434396       -66.2433
  22   2.0000      -1.273538       -34.6547
  23   2.0000      -1.273325       -34.6489
  24   2.0000      -1.260376       -34.2966
  25   2.0000      -0.985600       -26.8196
  26   2.0000      -0.976293       -26.5663
  27   2.0000      -0.806805       -21.9543
  28   2.0000      -0.796898       -21.6847
  29   2.0000      -0.796379       -21.6706
  30   2.0000      -0.794056       -21.6074
  31   2.0000      -0.792021       -21.5520
  32   2.0000      -0.688299       -18.7296
  33   2.0000      -0.614253       -16.7147
  34   2.0000      -0.613332       -16.6896
  35   2.0000      -0.611850       -16.6493
  36   2.0000      -0.608774       -16.5656
  37   2.0000      -0.598768       -16.2933
  38   2.0000      -0.593446       -16.1485
  39   2.0000      -0.560317       -15.2470
  40   2.0000      -0.559014       -15.2115
  41   2.0000      -0.558844       -15.2069
  42   2.0000      -0.557572       -15.1723
  43   2.0000      -0.556977       -15.1561
  44   2.0000      -0.555587       -15.1183
  45   2.0000      -0.554028       -15.0759
  46   2.0000      -0.489788       -13.3278
  47   2.0000      -0.474983       -12.9250
  48   2.0000      -0.467029       -12.7085
  49   2.0000      -0.463168       -12.6034
  50   2.0000      -0.454781       -12.3752
  51   2.0000      -0.451720       -12.2919
  52   2.0000      -0.450653       -12.2629
  53   2.0000      -0.450224       -12.2512
  54   2.0000      -0.435348       -11.8464
  55   2.0000      -0.433683       -11.8011
  56   2.0000      -0.432667       -11.7735
  57   2.0000      -0.431569       -11.7436
  58   2.0000      -0.428997       -11.6736
  59   2.0000      -0.384314       -10.4577
  60   2.0000      -0.381420       -10.3790
  61   2.0000      -0.293063        -7.9746
  62   2.0000      -0.286190        -7.7876
  63   2.0000      -0.279740        -7.6121
  64   2.0000      -0.267043        -7.2666
  65   2.0000      -0.248487        -6.7617
  66   0.0000      -0.017723        -0.4823
  67   0.0000       0.005935         0.1615
  68   0.0000       0.043035         1.1710
  69   0.0000       0.055449         1.5088
  70   0.0000       0.057648         1.5687

MULLIKEN ATOMIC CHARGES
-----------------------
   0 Lu:    0.814893
   1 C :   -0.273785
   2 C :   -0.272358
   3 C :   -0.307968
   4 C :   -0.264124
   5 C :   -0.296998
   6 H :    0.241968
   7 H :    0.238066
   8 H :    0.233571
   9 H :    0.235902
  10 H :    0.230344
  11 C :   -0.259334
  12 C :   -0.310035
  13 C :   -0.311857
  14 C :   -0.289280
  15 H :    0.243912
  16 C :   -0.232013
  17 H :    0.236757
  18 H :    0.233252
  19 H :    0.232863
  20 H :    0.233618
  21 C :   -0.939907
  22 H :    0.245079
  23 H :    0.238786
  24 H :    0.266769
  25 C :   -1.030453
  26 H :    0.247149
  27 H :    0.206283
  28 H :    0.206226
  29 H :    0.202673
Sum of atomic charges:   -0.0000000

LOEWDIN ATOMIC CHARGES
----------------------
   0 Lu:   -0.009123
   1 C :   -0.140523
   2 C :   -0.148630
   3 C :   -0.135295
   4 C :   -0.140489
   5 C :   -0.129886
   6 H :    0.155541
   7 H :    0.159138
   8 H :    0.152776
   9 H :    0.151046
  10 H :    0.153291
  11 C :   -0.134459
  12 C :   -0.127704
  13 C :   -0.148870
  14 C :   -0.133979
  15 H :    0.157079
  16 C :   -0.136987
  17 H :    0.159113
  18 H :    0.153558
  19 H :    0.152317
  20 H :    0.151316
  21 C :   -0.488545
  22 H :    0.140960
  23 H :    0.140160
  24 H :    0.148086
  25 C :   -0.641936
  26 H :    0.157133
  27 H :    0.134314
  28 H :    0.125422
  29 H :    0.125175

  Mayer bond orders larger than 0.100000
B(  0-Lu,  1-C ) :   0.2575 B(  0-Lu,  2-C ) :   0.2598 B(  0-Lu,  3-C ) :   0.2634
B(  0-Lu,  4-C ) :   0.2776 B(  0-Lu,  5-C ) :   0.2443 B(  0-Lu, 11-C ) :   0.2760
B(  0-Lu, 12-C ) :   0.2484 B(  0-Lu, 13-C ) :   0.2731 B(  0-Lu, 14-C ) :   0.2721
B(  0-Lu, 16-C ) :   0.2590 B(  0-Lu, 25-C ) :   0.8221 B(  1-C ,  2-C ) :   1.2848
B(  1-C ,  5-C ) :   1.3036 B(  1-C ,  8-H ) :   0.9206 B(  2-C ,  3-C ) :   1.2975
B(  2-C ,  9-H ) :   0.9159 B(  3-C ,  4-C ) :   1.2862 B(  3-C , 10-H ) :   0.9250
B(  4-C ,  5-C ) :   1.2824 B(  4-C ,  6-H ) :   0.9149 B(  5-C ,  7-H ) :   0.9259
B( 11-C , 12-C ) :   1.2822 B( 11-C , 14-C ) :   1.2904 B( 11-C , 15-H ) :   0.9141
B( 12-C , 16-C ) :   1.2994 B( 12-C , 17-H ) :   0.9266 B( 13-C , 14-C ) :   1.2815
B( 13-C , 16-C ) :   1.2819 B( 13-C , 19-H ) :   0.9221 B( 14-C , 18-H ) :   0.9220
B( 16-C , 20-H ) :   0.9159 B( 21-C , 22-H ) :   0.9146 B( 21-C , 23-H ) :   0.9143
B( 21-C , 24-H ) :   0.9156 B( 21-C , 26-H ) :   0.8658 B( 25-C , 27-H ) :   0.9030
B( 25-C , 28-H ) :   0.9132 B( 25-C , 29-H ) :   0.9114

Dispersion correction           -0.017327709
FINAL SINGLE POINT ENERGY     -1702.382020126070
Dispersion correction            ... done

DIPOLE MOMENT
-------------
                                X             Y             Z
Electronic contribution:     -1.37542      11.96956      -5.57982
Nuclear contribution   :      1.65540     -12.76204       6.03285
                        -----------------------------------------
Total Dipole Moment    :      0.27999      -0.79247       0.45302
                        -----------------------------------------
Magnitude (a.u.)       :      0.95480
Magnitude (Debye)      :      2.42690

Rotational constants in cm-1:     0.028051     0.020088     0.017286
Rotational constants in MHz :   840.944105   602.219285   518.228602

                             ****ORCA TERMINATED NORMALLY****
TOTAL RUN TIME: 0 days 0 hours 9 minutes 30 seconds 387 msec
