                         Program Version 5.0.3 -  RELEASE  -
|  1> ! EnGrad PBEh-3c
|  2> %output
|  3> xyzfile=True
|  4> end
|  5> %scf
|  6> maxiter 250
|  7> end
|  8> %output
|  9> Print[P_Hirshfeld] = 1
| 10> end
| 11> % maxcore
| 12> 4000
| 13> *xyz 0 1
| 14> Lu   0.17450097   0.39962355  -0.23399227
| 15> C    0.37223324   1.00652893   2.43611183
| 16> C    1.31396640  -0.04805755   2.23899013
| 17> C    2.31759224   0.45715377   1.33720937
| 18> C    1.95377475   1.80129506   0.95331765
| 19> C    0.73366250   2.12809392   1.63266843
| 20> H    2.50243566   2.43565440   0.32577474
| 21> H    0.20437126   3.02348858   1.57967286
| 22> H   -0.46615550   0.99667380   3.11119097
| 23> H    1.36184715  -0.95792547   2.73263602
| 24> H    3.15468680  -0.09431292   0.99723797
| 25> C    1.03681619  -0.04778797  -2.59170180
| 26> C   -0.28531861  -0.60965910  -2.64687028
| 27> C    1.00169996  -1.99639927  -1.30898732
| 28> C    1.84387027  -0.91762872  -1.79316198
| 29> H    1.35518819   0.81320615  -3.10609461
| 30> C   -0.27945593  -1.80015900  -1.87607715
| 31> H   -1.11163945  -0.22302649  -3.16374890
| 32> H    2.87065257  -0.80522494  -1.55804015
| 33> H    1.33091634  -2.79124819  -0.71766751
| 34> H   -1.11604788  -2.47814006  -1.82014576
| 35> C   -2.29721852  -1.66416504   1.34837191
| 36> H   -2.48570765  -1.46901229   2.50998750
| 37> H   -2.89122988  -2.63146415   1.09823365
| 38> H   -2.86921987  -0.86813862   0.86140593
| 39> C   -1.85441358   1.73729367  -0.71433391
| 40> H   -1.29910183  -1.51576764   1.04016058
| 41> H   -1.45831567   2.57049974  -1.34759809
| 42> H   -2.49262648   2.29228088   0.04754254
| 43> H   -2.63121848   1.26160548  -1.37362500
| 44> *
| 45>
| 46>                          ****END OF INPUT****

CARTESIAN COORDINATES (ANGSTROEM)
---------------------------------
  Lu     0.174501    0.399624   -0.233992
  C      0.372233    1.006529    2.436112
  C      1.313966   -0.048058    2.238990
  C      2.317592    0.457154    1.337209
  C      1.953775    1.801295    0.953318
  C      0.733662    2.128094    1.632668
  H      2.502436    2.435654    0.325775
  H      0.204371    3.023489    1.579673
  H     -0.466156    0.996674    3.111191
  H      1.361847   -0.957925    2.732636
  H      3.154687   -0.094313    0.997238
  C      1.036816   -0.047788   -2.591702
  C     -0.285319   -0.609659   -2.646870
  C      1.001700   -1.996399   -1.308987
  C      1.843870   -0.917629   -1.793162
  H      1.355188    0.813206   -3.106095
  C     -0.279456   -1.800159   -1.876077
  H     -1.111639   -0.223026   -3.163749
  H      2.870653   -0.805225   -1.558040
  H      1.330916   -2.791248   -0.717668
  H     -1.116048   -2.478140   -1.820146
  C     -2.297219   -1.664165    1.348372
  H     -2.485708   -1.469012    2.509987
  H     -2.891230   -2.631464    1.098234
  H     -2.869220   -0.868139    0.861406
  C     -1.854414    1.737294   -0.714334
  H     -1.299102   -1.515768    1.040161
  H     -1.458316    2.570500   -1.347598
  H     -2.492626    2.292281    0.047543
  H     -2.631218    1.261605   -1.373625

 Total Charge           Charge          ....    0
 Multiplicity           Mult            ....    1
 Number of Electrons    NEL             ....  132
 Basis Dimension        Dim             ....  295

ORBITAL ENERGIES
----------------

  NO   OCC          E(Eh)            E(eV)
   0   2.0000     -19.266905      -524.2791
   1   2.0000     -12.639649      -343.9423
   2   2.0000     -12.636846      -343.8661
   3   2.0000     -12.636467      -343.8557
   4   2.0000     -10.454725      -284.4875
   5   2.0000     -10.452897      -284.4378
   6   2.0000     -10.452745      -284.4337
   7   2.0000     -10.451469      -284.3989
   8   2.0000     -10.451080      -284.3883
   9   2.0000     -10.450389      -284.3695
  10   2.0000     -10.450355      -284.3686
  11   2.0000     -10.449867      -284.3553
  12   2.0000     -10.448370      -284.3146
  13   2.0000     -10.446637      -284.2674
  14   2.0000     -10.444821      -284.2180
  15   2.0000     -10.374997      -282.3180
  16   2.0000      -5.908705      -160.7840
  17   2.0000      -5.908332      -160.7739
  18   2.0000      -5.907863      -160.7611
  19   2.0000      -5.906200      -160.7159
  20   2.0000      -5.906015      -160.7108
  21   2.0000      -2.450017       -66.6683
  22   2.0000      -1.287892       -35.0453
  23   2.0000      -1.284460       -34.9519
  24   2.0000      -1.274130       -34.6708
  25   2.0000      -0.968776       -26.3617
  26   2.0000      -0.961636       -26.1674
  27   2.0000      -0.796473       -21.6731
  28   2.0000      -0.794917       -21.6308
  29   2.0000      -0.792206       -21.5570
  30   2.0000      -0.789583       -21.4856
  31   2.0000      -0.785129       -21.3644
  32   2.0000      -0.691397       -18.8139
  33   2.0000      -0.624994       -17.0070
  34   2.0000      -0.620954       -16.8970
  35   2.0000      -0.618319       -16.8253
  36   2.0000      -0.614905       -16.7324
  37   2.0000      -0.599836       -16.3224
  38   2.0000      -0.595375       -16.2010
  39   2.0000      -0.576501       -15.6874
  40   2.0000      -0.575017       -15.6470
  41   2.0000      -0.574686       -15.6380
  42   2.0000      -0.573721       -15.6117
  43   2.0000      -0.573313       -15.6006
  44   2.0000      -0.571516       -15.5518
  45   2.0000      -0.570129       -15.5140
  46   2.0000      -0.495408       -13.4807
  47   2.0000      -0.462766       -12.5925
  48   2.0000      -0.460388       -12.5278
  49   2.0000      -0.458459       -12.4753
  50   2.0000      -0.452441       -12.3115
  51   2.0000      -0.451802       -12.2942
  52   2.0000      -0.441477       -12.0132
  53   2.0000      -0.437311       -11.8998
  54   2.0000      -0.436175       -11.8689
  55   2.0000      -0.434162       -11.8142
  56   2.0000      -0.431787       -11.7495
  57   2.0000      -0.430772       -11.7219
  58   2.0000      -0.425224       -11.5709
  59   2.0000      -0.384951       -10.4750
  60   2.0000      -0.376933       -10.2569
  61   2.0000      -0.287744        -7.8299
  62   2.0000      -0.285848        -7.7783
  63   2.0000      -0.280541        -7.6339
  64   2.0000      -0.265641        -7.2285
  65   2.0000      -0.258769        -7.0415
  66   0.0000      -0.031045        -0.8448
  67   0.0000       0.003347         0.0911
  68   0.0000       0.040505         1.1022
  69   0.0000       0.050474         1.3735
  70   0.0000       0.053714         1.4616

MULLIKEN ATOMIC CHARGES
-----------------------
   0 Lu:    0.862506
   1 C :   -0.255746
   2 C :   -0.312350
   3 C :   -0.255924
   4 C :   -0.349953
   5 C :   -0.279736
   6 H :    0.249227
   7 H :    0.256641
   8 H :    0.237257
   9 H :    0.236583
  10 H :    0.237993
  11 C :   -0.362741
  12 C :   -0.255495
  13 C :   -0.300478
  14 C :   -0.269670
  15 H :    0.250573
  16 C :   -0.268450
  17 H :    0.251343
  18 H :    0.238777
  19 H :    0.236527
  20 H :    0.234209
  21 C :   -0.898309
  22 H :    0.218174
  23 H :    0.231093
  24 H :    0.272929
  25 C :   -1.032901
  26 H :    0.224902
  27 H :    0.197631
  28 H :    0.202842
  29 H :    0.202546
Sum of atomic charges:   -0.0000000

LOEWDIN ATOMIC CHARGES
----------------------
   0 Lu:    0.086844
   1 C :   -0.131917
   2 C :   -0.154334
   3 C :   -0.131600
   4 C :   -0.161821
   5 C :   -0.135597
   6 H :    0.157181
   7 H :    0.160530
   8 H :    0.152771
   9 H :    0.150607
  10 H :    0.150806
  11 C :   -0.161786
  12 C :   -0.133777
  13 C :   -0.154221
  14 C :   -0.137551
  15 H :    0.158151
  16 C :   -0.138148
  17 H :    0.158381
  18 H :    0.151695
  19 H :    0.150414
  20 H :    0.151172
  21 C :   -0.493410
  22 H :    0.137969
  23 H :    0.143066
  24 H :    0.153657
  25 C :   -0.647239
  26 H :    0.138986
  27 H :    0.130881
  28 H :    0.124178
  29 H :    0.124112

  Mayer bond orders larger than 0.100000
B(  0-Lu,  1-C ) :   0.2329 B(  0-Lu,  2-C ) :   0.2488 B(  0-Lu,  3-C ) :   0.2581
B(  0-Lu,  4-C ) :   0.3099 B(  0-Lu,  5-C ) :   0.2499 B(  0-Lu, 11-C ) :   0.3076
B(  0-Lu, 12-C ) :   0.2329 B(  0-Lu, 13-C ) :   0.2481 B(  0-Lu, 14-C ) :   0.2667
B(  0-Lu, 16-C ) :   0.2300 B(  0-Lu, 25-C ) :   0.8208 B(  1-C ,  2-C ) :   1.2903
B(  1-C ,  5-C ) :   1.3240 B(  1-C ,  8-H ) :   0.9190 B(  2-C ,  3-C ) :   1.3043
B(  2-C ,  9-H ) :   0.9235 B(  3-C ,  4-C ) :   1.2746 B(  3-C , 10-H ) :   0.9140
B(  4-C ,  5-C ) :   1.2568 B(  4-C ,  6-H ) :   0.9117 B(  5-C ,  7-H ) :   0.9101
B( 11-C , 12-C ) :   1.2676 B( 11-C , 14-C ) :   1.2740 B( 11-C , 15-H ) :   0.9111
B( 12-C , 16-C ) :   1.3274 B( 12-C , 17-H ) :   0.9115 B( 13-C , 14-C ) :   1.2933
B( 13-C , 16-C ) :   1.2980 B( 13-C , 19-H ) :   0.9201 B( 14-C , 18-H ) :   0.9137
B( 16-C , 20-H ) :   0.9211 B( 21-C , 22-H ) :   0.9305 B( 21-C , 23-H ) :   0.9254
B( 21-C , 24-H ) :   0.8934 B( 21-C , 26-H ) :   0.8845 B( 25-C , 27-H ) :   0.8958
B( 25-C , 28-H ) :   0.9196 B( 25-C , 29-H ) :   0.9126

Dispersion correction           -0.016908884
FINAL SINGLE POINT ENERGY     -1702.349021246634
Dispersion correction            ... done

DIPOLE MOMENT
-------------
                                X             Y             Z
Electronic contribution:      1.45499      19.25746     -10.08197
Nuclear contribution   :     -1.15006     -19.79030      10.35882
                        -----------------------------------------
Total Dipole Moment    :      0.30493      -0.53283       0.27686
                        -----------------------------------------
Magnitude (a.u.)       :      0.67345
Magnitude (Debye)      :      1.71178

Rotational constants in cm-1:     0.027327     0.018653     0.016672
Rotational constants in MHz :   819.238621   559.197249   499.816579

                             ****ORCA TERMINATED NORMALLY****
TOTAL RUN TIME: 0 days 0 hours 9 minutes 5 seconds 835 msec
