                         Program Version 5.0.3 -  RELEASE  -
|  1> ! EnGrad PBEh-3c
|  2> %output
|  3> xyzfile=True
|  4> end
|  5> %scf
|  6> maxiter 250
|  7> end
|  8> %output
|  9> Print[P_Hirshfeld] = 1
| 10> end
| 11> % maxcore
| 12> 4000
| 13> *xyz 0 1
| 14> Lu   0.12244275   0.42631934  -0.24123788
| 15> C    0.38997280   1.00319436   2.43149339
| 16> C    1.30548304  -0.04310680   2.19181405
| 17> C    2.32157020   0.47797890   1.36824644
| 18> C    1.93820837   1.78246770   0.95493258
| 19> C    0.77019256   2.11783500   1.66389535
| 20> H    2.52816283   2.46684739   0.32314674
| 21> H    0.19188031   3.04600176   1.58098564
| 22> H   -0.44556903   0.97828781   3.13954677
| 23> H    1.34330116  -1.00859687   2.73030800
| 24> H    3.18330704  -0.09775375   0.99658309
| 25> C    1.02703826  -0.05684054  -2.57330436
| 26> C   -0.24974827  -0.64603941  -2.67680845
| 27> C    1.00536915  -1.96612654  -1.30848696
| 28> C    1.83209737  -0.93753826  -1.81003517
| 29> H    1.36146731   0.82761574  -3.13003083
| 30> C   -0.28108937  -1.78236196  -1.84537848
| 31> H   -1.12723259  -0.21672466  -3.17416711
| 32> H    2.89574593  -0.80984202  -1.56695919
| 33> H    1.33157697  -2.81264830  -0.68597434
| 34> H   -1.09806409  -2.50218642  -1.79831550
| 35> C   -2.17485972  -1.66508041   1.32784543
| 36> H   -2.45693010  -1.49997139   2.48414220
| 37> H   -2.78615541  -2.62796913   1.11255497
| 38> H   -3.05271105  -0.94480056   0.92195437
| 39> C   -1.81359633   1.71216116  -0.70868002
| 40> H   -1.54698886  -1.32896701   0.98115771
| 41> H   -1.45417723   2.57000880  -1.34928564
| 42> H   -2.46902524   2.27930390   0.03580489
| 43> H   -2.61098457   1.26983156  -1.37955425
| 44> *
| 45>
| 46>                          ****END OF INPUT****

CARTESIAN COORDINATES (ANGSTROEM)
---------------------------------
  Lu     0.122443    0.426319   -0.241238
  C      0.389973    1.003194    2.431493
  C      1.305483   -0.043107    2.191814
  C      2.321570    0.477979    1.368246
  C      1.938208    1.782468    0.954933
  C      0.770193    2.117835    1.663895
  H      2.528163    2.466847    0.323147
  H      0.191880    3.046002    1.580986
  H     -0.445569    0.978288    3.139547
  H      1.343301   -1.008597    2.730308
  H      3.183307   -0.097754    0.996583
  C      1.027038   -0.056841   -2.573304
  C     -0.249748   -0.646039   -2.676808
  C      1.005369   -1.966127   -1.308487
  C      1.832097   -0.937538   -1.810035
  H      1.361467    0.827616   -3.130031
  C     -0.281089   -1.782362   -1.845378
  H     -1.127233   -0.216725   -3.174167
  H      2.895746   -0.809842   -1.566959
  H      1.331577   -2.812648   -0.685974
  H     -1.098064   -2.502186   -1.798315
  C     -2.174860   -1.665080    1.327845
  H     -2.456930   -1.499971    2.484142
  H     -2.786155   -2.627969    1.112555
  H     -3.052711   -0.944801    0.921954
  C     -1.813596    1.712161   -0.708680
  H     -1.546989   -1.328967    0.981158
  H     -1.454177    2.570009   -1.349286
  H     -2.469025    2.279304    0.035805
  H     -2.610985    1.269832   -1.379554

 Total Charge           Charge          ....    0
 Multiplicity           Mult            ....    1
 Number of Electrons    NEL             ....  132
 Basis Dimension        Dim             ....  295

ORBITAL ENERGIES
----------------

  NO   OCC          E(Eh)            E(eV)
   0   2.0000     -19.268034      -524.3099
   1   2.0000     -12.640601      -343.9682
   2   2.0000     -12.638093      -343.9000
   3   2.0000     -12.637652      -343.8880
   4   2.0000     -10.451792      -284.4077
   5   2.0000     -10.449880      -284.3557
   6   2.0000     -10.448394      -284.3153
   7   2.0000     -10.447563      -284.2926
   8   2.0000     -10.447289      -284.2852
   9   2.0000     -10.447118      -284.2805
  10   2.0000     -10.445660      -284.2408
  11   2.0000     -10.445338      -284.2321
  12   2.0000     -10.445131      -284.2265
  13   2.0000     -10.444752      -284.2162
  14   2.0000     -10.442992      -284.1683
  15   2.0000     -10.379581      -282.4428
  16   2.0000      -5.909731      -160.8120
  17   2.0000      -5.909431      -160.8038
  18   2.0000      -5.908916      -160.7898
  19   2.0000      -5.907460      -160.7502
  20   2.0000      -5.907242      -160.7442
  21   2.0000      -2.451240       -66.7016
  22   2.0000      -1.288975       -35.0748
  23   2.0000      -1.285234       -34.9730
  24   2.0000      -1.276125       -34.7251
  25   2.0000      -0.978679       -26.6312
  26   2.0000      -0.972258       -26.4565
  27   2.0000      -0.823080       -22.3971
  28   2.0000      -0.792357       -21.5611
  29   2.0000      -0.791085       -21.5265
  30   2.0000      -0.789658       -21.4877
  31   2.0000      -0.787419       -21.4268
  32   2.0000      -0.699548       -19.0357
  33   2.0000      -0.611020       -16.6267
  34   2.0000      -0.607910       -16.5421
  35   2.0000      -0.606253       -16.4970
  36   2.0000      -0.604715       -16.4551
  37   2.0000      -0.591321       -16.0907
  38   2.0000      -0.587435       -15.9849
  39   2.0000      -0.577580       -15.7168
  40   2.0000      -0.575995       -15.6736
  41   2.0000      -0.575380       -15.6569
  42   2.0000      -0.574809       -15.6413
  43   2.0000      -0.574291       -15.6272
  44   2.0000      -0.572806       -15.5868
  45   2.0000      -0.571176       -15.5425
  46   2.0000      -0.558441       -15.1960
  47   2.0000      -0.464022       -12.6267
  48   2.0000      -0.450335       -12.2542
  49   2.0000      -0.449297       -12.2260
  50   2.0000      -0.447024       -12.1641
  51   2.0000      -0.444336       -12.0910
  52   2.0000      -0.436410       -11.8753
  53   2.0000      -0.430600       -11.7172
  54   2.0000      -0.430505       -11.7146
  55   2.0000      -0.429159       -11.6780
  56   2.0000      -0.427007       -11.6194
  57   2.0000      -0.424863       -11.5611
  58   2.0000      -0.405192       -11.0258
  59   2.0000      -0.386195       -10.5089
  60   2.0000      -0.380346       -10.3497
  61   2.0000      -0.287808        -7.8317
  62   2.0000      -0.286869        -7.8061
  63   2.0000      -0.280604        -7.6356
  64   2.0000      -0.275174        -7.4879
  65   2.0000      -0.262625        -7.1464
  66   0.0000      -0.028185        -0.7670
  67   0.0000       0.007602         0.2069
  68   0.0000       0.042115         1.1460
  69   0.0000       0.050351         1.3701
  70   0.0000       0.055798         1.5183

MULLIKEN ATOMIC CHARGES
-----------------------
   0 Lu:    0.912664
   1 C :   -0.265668
   2 C :   -0.355520
   3 C :   -0.179084
   4 C :   -0.421674
   5 C :   -0.239807
   6 H :    0.246107
   7 H :    0.254570
   8 H :    0.235379
   9 H :    0.232047
  10 H :    0.231212
  11 C :   -0.434057
  12 C :   -0.186783
  13 C :   -0.291728
  14 C :   -0.220135
  15 H :    0.248873
  16 C :   -0.331247
  17 H :    0.249367
  18 H :    0.232151
  19 H :    0.233053
  20 H :    0.231497
  21 C :   -1.001255
  22 H :    0.225503
  23 H :    0.247189
  24 H :    0.228773
  25 C :   -1.070569
  26 H :    0.353952
  27 H :    0.206425
  28 H :    0.215109
  29 H :    0.213657
Sum of atomic charges:   -0.0000000

LOEWDIN ATOMIC CHARGES
----------------------
   0 Lu:    0.117817
   1 C :   -0.141965
   2 C :   -0.163583
   3 C :   -0.124797
   4 C :   -0.175219
   5 C :   -0.137859
   6 H :    0.159385
   7 H :    0.162392
   8 H :    0.153149
   9 H :    0.153473
  10 H :    0.150448
  11 C :   -0.176687
  12 C :   -0.127307
  13 C :   -0.152209
  14 C :   -0.135057
  15 H :    0.160245
  16 C :   -0.157690
  17 H :    0.159193
  18 H :    0.151433
  19 H :    0.151829
  20 H :    0.152206
  21 C :   -0.502556
  22 H :    0.148012
  23 H :    0.156563
  24 H :    0.153067
  25 C :   -0.642055
  26 H :    0.106047
  27 H :    0.138766
  28 H :    0.131324
  29 H :    0.131634

  Mayer bond orders larger than 0.100000
B(  0-Lu,  1-C ) :   0.2341 B(  0-Lu,  2-C ) :   0.2467 B(  0-Lu,  3-C ) :   0.2280
B(  0-Lu,  4-C ) :   0.3089 B(  0-Lu,  5-C ) :   0.2374 B(  0-Lu, 11-C ) :   0.3109
B(  0-Lu, 12-C ) :   0.2190 B(  0-Lu, 13-C ) :   0.2339 B(  0-Lu, 14-C ) :   0.2403
B(  0-Lu, 16-C ) :   0.2430 B(  0-Lu, 25-C ) :   0.8220 B(  1-C ,  2-C ) :   1.2775
B(  1-C ,  5-C ) :   1.3306 B(  1-C ,  8-H ) :   0.9188 B(  2-C ,  3-C ) :   1.3165
B(  2-C ,  9-H ) :   0.9223 B(  3-C ,  4-C ) :   1.2737 B(  3-C , 10-H ) :   0.9130
B(  4-C ,  5-C ) :   1.2527 B(  4-C ,  6-H ) :   0.9120 B(  5-C ,  7-H ) :   0.9034
B( 11-C , 12-C ) :   1.2719 B( 11-C , 14-C ) :   1.2577 B( 11-C , 15-H ) :   0.9101
B( 12-C , 16-C ) :   1.3210 B( 12-C , 17-H ) :   0.9041 B( 13-C , 14-C ) :   1.3238
B( 13-C , 16-C ) :   1.2839 B( 13-C , 19-H ) :   0.9185 B( 14-C , 18-H ) :   0.9141
B( 16-C , 20-H ) :   0.9241 B( 21-C , 22-H ) :   0.9316 B( 21-C , 23-H ) :   0.9202
B( 21-C , 24-H ) :   0.9326 B( 21-C , 26-H ) :   0.8075 B( 25-C , 27-H ) :   0.8891
B( 25-C , 28-H ) :   0.9130 B( 25-C , 29-H ) :   0.9062

Dispersion correction           -0.016897748
FINAL SINGLE POINT ENERGY     -1702.221540103619
Dispersion correction            ... done

DIPOLE MOMENT
-------------
                                X             Y             Z
Electronic contribution:     -1.64193      20.74720     -10.46315
Nuclear contribution   :      1.69972     -21.17411      10.71624
                        -----------------------------------------
Total Dipole Moment    :      0.05779      -0.42691       0.25309
                        -----------------------------------------
Magnitude (a.u.)       :      0.49964
Magnitude (Debye)      :      1.26999

Rotational constants in cm-1:     0.027757     0.018647     0.016810
Rotational constants in MHz :   832.134158   559.034134   503.956425

                             ****ORCA TERMINATED NORMALLY****
TOTAL RUN TIME: 0 days 0 hours 9 minutes 6 seconds 655 msec
