                         Program Version 5.0.3 -  RELEASE  -
|  1> ! EnGrad PBEh-3c
|  2> %output
|  3> xyzfile=True
|  4> end
|  5> %scf
|  6> maxiter 250
|  7> end
|  8> %output
|  9> Print[P_Hirshfeld] = 1
| 10> end
| 11> % maxcore
| 12> 4000
| 13> *xyz 0 1
| 14> Lu   0.15571435   0.40925745  -0.23660704
| 15> C    0.37863504   1.00532556   2.43444514
| 16> C    1.31090495  -0.04627094   2.22196536
| 17> C    2.31902780   0.46466908   1.34840994
| 18> C    1.94815720   1.79450069   0.95390045
| 19> C    0.74684536   2.12439171   1.64393751
| 20> H    2.51172001   2.44691123   0.32482636
| 21> H    0.19986356   3.03161307   1.58014661
| 22> H   -0.45872632   0.99003872   3.12142393
| 23> H    1.35515433  -0.97621162   2.73179589
| 24> H    3.16501519  -0.09555464   0.99700164
| 25> C    1.03328756  -0.05105483  -2.58506259
| 26> C   -0.27248209  -0.62278792  -2.65767428
| 27> C    1.00302409  -1.98547453  -1.30880675
| 28> C    1.83962170  -0.92481362  -1.79925113
| 29> H    1.35745418   0.81840624  -3.11473264
| 30> C   -0.28004540  -1.79373646  -1.86499870
| 31> H   -1.11726665  -0.22075230  -3.16750859
| 32> H    2.87970819  -0.80689114  -1.56125883
| 33> H    1.33115475  -2.79897100  -0.70623017
| 34> H   -1.10955794  -2.48681784  -1.81226772
| 35> C   -2.25306204  -1.66449538   1.34096437
| 36> H   -2.47532249  -1.48018472   2.50066052
| 37> H   -2.85331091  -2.63020288   1.10340188
| 38> H   -2.93543764  -0.89580416   0.88325648
| 39> C   -1.83968357   1.72822392  -0.71229355
| 40> H   -1.38855858  -1.44835558   1.01886780
| 41> H   -1.45682220   2.57032257  -1.34820709
| 42> H   -2.48410933   2.28759778   0.04330669
| 43> H   -2.62391652   1.26457409  -1.37576473
| 44> *
| 45>
| 46>                          ****END OF INPUT****

CARTESIAN COORDINATES (ANGSTROEM)
---------------------------------
  Lu     0.155714    0.409257   -0.236607
  C      0.378635    1.005326    2.434445
  C      1.310905   -0.046271    2.221965
  C      2.319028    0.464669    1.348410
  C      1.948157    1.794501    0.953900
  C      0.746845    2.124392    1.643938
  H      2.511720    2.446911    0.324826
  H      0.199864    3.031613    1.580147
  H     -0.458726    0.990039    3.121424
  H      1.355154   -0.976212    2.731796
  H      3.165015   -0.095555    0.997002
  C      1.033288   -0.051055   -2.585063
  C     -0.272482   -0.622788   -2.657674
  C      1.003024   -1.985475   -1.308807
  C      1.839622   -0.924814   -1.799251
  H      1.357454    0.818406   -3.114733
  C     -0.280045   -1.793736   -1.864999
  H     -1.117267   -0.220752   -3.167509
  H      2.879708   -0.806891   -1.561259
  H      1.331155   -2.798971   -0.706230
  H     -1.109558   -2.486818   -1.812268
  C     -2.253062   -1.664495    1.340964
  H     -2.475322   -1.480185    2.500661
  H     -2.853311   -2.630203    1.103402
  H     -2.935438   -0.895804    0.883256
  C     -1.839684    1.728224   -0.712294
  H     -1.388559   -1.448356    1.018868
  H     -1.456822    2.570323   -1.348207
  H     -2.484109    2.287598    0.043307
  H     -2.623917    1.264574   -1.375765

 Total Charge           Charge          ....    0
 Multiplicity           Mult            ....    1
 Number of Electrons    NEL             ....  132
 Basis Dimension        Dim             ....  295

ORBITAL ENERGIES
----------------

  NO   OCC          E(Eh)            E(eV)
   0   2.0000     -19.267593      -524.2979
   1   2.0000     -12.640281      -343.9595
   2   2.0000     -12.637576      -343.8859
   3   2.0000     -12.637171      -343.8749
   4   2.0000     -10.453850      -284.4637
   5   2.0000     -10.452007      -284.4136
   6   2.0000     -10.450955      -284.3850
   7   2.0000     -10.450339      -284.3682
   8   2.0000     -10.449447      -284.3439
   9   2.0000     -10.449380      -284.3421
  10   2.0000     -10.448783      -284.3259
  11   2.0000     -10.447346      -284.2867
  12   2.0000     -10.446256      -284.2571
  13   2.0000     -10.445000      -284.2229
  14   2.0000     -10.442980      -284.1679
  15   2.0000     -10.376532      -282.3598
  16   2.0000      -5.909362      -160.8019
  17   2.0000      -5.909014      -160.7925
  18   2.0000      -5.908527      -160.7792
  19   2.0000      -5.906933      -160.7358
  20   2.0000      -5.906736      -160.7305
  21   2.0000      -2.450732       -66.6878
  22   2.0000      -1.288585       -35.0642
  23   2.0000      -1.284997       -34.9665
  24   2.0000      -1.275023       -34.6951
  25   2.0000      -0.972436       -26.4613
  26   2.0000      -0.965623       -26.2759
  27   2.0000      -0.797990       -21.7144
  28   2.0000      -0.794906       -21.6305
  29   2.0000      -0.793125       -21.5820
  30   2.0000      -0.791188       -21.5293
  31   2.0000      -0.788903       -21.4671
  32   2.0000      -0.694199       -18.8901
  33   2.0000      -0.619834       -16.8665
  34   2.0000      -0.616221       -16.7682
  35   2.0000      -0.613566       -16.6960
  36   2.0000      -0.611388       -16.6367
  37   2.0000      -0.597113       -16.2483
  38   2.0000      -0.592853       -16.1324
  39   2.0000      -0.577163       -15.7054
  40   2.0000      -0.575656       -15.6644
  41   2.0000      -0.575267       -15.6538
  42   2.0000      -0.574394       -15.6301
  43   2.0000      -0.573948       -15.6179
  44   2.0000      -0.572255       -15.5718
  45   2.0000      -0.570797       -15.5322
  46   2.0000      -0.520173       -14.1546
  47   2.0000      -0.460802       -12.5391
  48   2.0000      -0.458134       -12.4665
  49   2.0000      -0.456062       -12.4101
  50   2.0000      -0.451371       -12.2824
  51   2.0000      -0.449175       -12.2227
  52   2.0000      -0.435916       -11.8619
  53   2.0000      -0.434410       -11.8209
  54   2.0000      -0.432323       -11.7641
  55   2.0000      -0.432004       -11.7554
  56   2.0000      -0.430980       -11.7276
  57   2.0000      -0.428888       -11.6706
  58   2.0000      -0.425790       -11.5863
  59   2.0000      -0.385455       -10.4888
  60   2.0000      -0.378023       -10.2865
  61   2.0000      -0.287902        -7.8342
  62   2.0000      -0.286161        -7.7868
  63   2.0000      -0.280821        -7.6415
  64   2.0000      -0.265780        -7.2322
  65   2.0000      -0.263845        -7.1796
  66   0.0000      -0.030001        -0.8164
  67   0.0000       0.004751         0.1293
  68   0.0000       0.041404         1.1267
  69   0.0000       0.051437         1.3997
  70   0.0000       0.054321         1.4782

MULLIKEN ATOMIC CHARGES
-----------------------
   0 Lu:    0.881422
   1 C :   -0.259205
   2 C :   -0.330545
   3 C :   -0.225937
   4 C :   -0.378481
   5 C :   -0.264907
   6 H :    0.248738
   7 H :    0.257146
   8 H :    0.236870
   9 H :    0.235717
  10 H :    0.236074
  11 C :   -0.391157
  12 C :   -0.228578
  13 C :   -0.297709
  14 C :   -0.250808
  15 H :    0.250417
  16 C :   -0.293143
  17 H :    0.252176
  18 H :    0.236715
  19 H :    0.235799
  20 H :    0.233476
  21 C :   -0.925544
  22 H :    0.218730
  23 H :    0.234151
  24 H :    0.259690
  25 C :   -1.045210
  26 H :    0.260521
  27 H :    0.200325
  28 H :    0.207028
  29 H :    0.206231
Sum of atomic charges:    0.0000000

LOEWDIN ATOMIC CHARGES
----------------------
   0 Lu:    0.100269
   1 C :   -0.135656
   2 C :   -0.158276
   3 C :   -0.129101
   4 C :   -0.166904
   5 C :   -0.136631
   6 H :    0.158310
   7 H :    0.161594
   8 H :    0.153037
   9 H :    0.152088
  10 H :    0.150883
  11 C :   -0.167425
  12 C :   -0.131554
  13 C :   -0.153781
  14 C :   -0.136633
  15 H :    0.159160
  16 C :   -0.145458
  17 H :    0.159069
  18 H :    0.151759
  19 H :    0.151218
  20 H :    0.151630
  21 C :   -0.498435
  22 H :    0.140119
  23 H :    0.145955
  24 H :    0.153933
  25 C :   -0.645417
  26 H :    0.129604
  27 H :    0.133386
  28 H :    0.126615
  29 H :    0.126641

  Mayer bond orders larger than 0.100000
B(  0-Lu,  1-C ) :   0.2339 B(  0-Lu,  2-C ) :   0.2490 B(  0-Lu,  3-C ) :   0.2469
B(  0-Lu,  4-C ) :   0.3101 B(  0-Lu,  5-C ) :   0.2452 B(  0-Lu, 11-C ) :   0.3093
B(  0-Lu, 12-C ) :   0.2275 B(  0-Lu, 13-C ) :   0.2439 B(  0-Lu, 14-C ) :   0.2571
B(  0-Lu, 16-C ) :   0.2353 B(  0-Lu, 25-C ) :   0.8222 B(  1-C ,  2-C ) :   1.2853
B(  1-C ,  5-C ) :   1.3265 B(  1-C ,  8-H ) :   0.9189 B(  2-C ,  3-C ) :   1.3091
B(  2-C ,  9-H ) :   0.9231 B(  3-C ,  4-C ) :   1.2755 B(  3-C , 10-H ) :   0.9133
B(  4-C ,  5-C ) :   1.2560 B(  4-C ,  6-H ) :   0.9120 B(  5-C ,  7-H ) :   0.9068
B( 11-C , 12-C ) :   1.2700 B( 11-C , 14-C ) :   1.2690 B( 11-C , 15-H ) :   0.9109
B( 12-C , 16-C ) :   1.3263 B( 12-C , 17-H ) :   0.9078 B( 13-C , 14-C ) :   1.3037
B( 13-C , 16-C ) :   1.2928 B( 13-C , 19-H ) :   0.9194 B( 14-C , 18-H ) :   0.9137
B( 16-C , 20-H ) :   0.9222 B( 21-C , 22-H ) :   0.9330 B( 21-C , 23-H ) :   0.9261
B( 21-C , 24-H ) :   0.9067 B( 21-C , 26-H ) :   0.8682 B( 25-C , 27-H ) :   0.8934
B( 25-C , 28-H ) :   0.9175 B( 25-C , 29-H ) :   0.9105

Dispersion correction           -0.016903689
FINAL SINGLE POINT ENERGY     -1702.335181552711
Dispersion correction            ... done

DIPOLE MOMENT
-------------
                                X             Y             Z
Electronic contribution:      0.35675      19.80057     -10.22649
Nuclear contribution   :     -0.12164     -20.28968      10.48781
                        -----------------------------------------
Total Dipole Moment    :      0.23511      -0.48911       0.26132
                        -----------------------------------------
Magnitude (a.u.)       :      0.60232
Magnitude (Debye)      :      1.53098

Rotational constants in cm-1:     0.027490     0.018652     0.016724
Rotational constants in MHz :   824.117912   559.186333   501.386766

                             ****ORCA TERMINATED NORMALLY****
TOTAL RUN TIME: 0 days 0 hours 9 minutes 6 seconds 142 msec
