                         Program Version 5.0.3 -  RELEASE  -
|  1> ! EnGrad PBEh-3c
|  2> %output
|  3> xyzfile=True
|  4> end
|  5> %scf
|  6> maxiter 250
|  7> end
|  8> %output
|  9> Print[P_Hirshfeld] = 1
| 10> end
| 11> % maxcore
| 12> 4000
| 13> *xyz 0 1
| 14> Lu   0.12046029   0.42175762  -0.23942728
| 15> C    0.38488914   1.00305170   2.42617749
| 16> C    1.31492584  -0.02833846   2.18872544
| 17> C    2.30965122   0.47812858   1.35897847
| 18> C    1.93889851   1.77189824   0.96267225
| 19> C    0.77047821   2.10651930   1.66581187
| 20> H    2.52803958   2.46667297   0.32333570
| 21> H    0.19162814   3.04862243   1.58300934
| 22> H   -0.44308528   0.97603455   3.13607593
| 23> H    1.34293785  -1.01016623   2.72845622
| 24> H    3.18368407  -0.09493276   0.99738817
| 25> C    1.02511207  -0.06814499  -2.57357615
| 26> C   -0.24718244  -0.64379808  -2.66401069
| 27> C    1.01382418  -1.95258591  -1.31644113
| 28> C    1.82232816  -0.93734774  -1.79895926
| 29> H    1.36217992   0.82768903  -3.13053530
| 30> C   -0.28357004  -1.78086702  -1.84846555
| 31> H   -1.12780380  -0.21775504  -3.17615608
| 32> H    2.89487604  -0.80915784  -1.56884031
| 33> H    1.33232656  -2.81319538  -0.68493392
| 34> H   -1.09722729  -2.49947064  -1.79415850
| 35> C   -2.40444621  -1.68036830   1.40727655
| 36> H   -2.43409831  -1.50554916   2.44580034
| 37> H   -2.74923197  -2.61158340   1.11249540
| 38> H   -3.03960042  -0.95896040   0.92952415
| 39> C   -1.82868394   1.72524245  -0.71365844
| 40> H   -1.39551555  -1.30606601   0.93024879
| 41> H   -1.45383408   2.56391939  -1.34531509
| 42> H   -2.45438311   2.26931266   0.02765203
| 43> H   -2.59823393   1.27224657  -1.37386408
| 44> *
| 45>
| 46>                          ****END OF INPUT****

CARTESIAN COORDINATES (ANGSTROEM)
---------------------------------
  Lu     0.120460    0.421758   -0.239427
  C      0.384889    1.003052    2.426177
  C      1.314926   -0.028338    2.188725
  C      2.309651    0.478129    1.358978
  C      1.938899    1.771898    0.962672
  C      0.770478    2.106519    1.665812
  H      2.528040    2.466673    0.323336
  H      0.191628    3.048622    1.583009
  H     -0.443085    0.976035    3.136076
  H      1.342938   -1.010166    2.728456
  H      3.183684   -0.094933    0.997388
  C      1.025112   -0.068145   -2.573576
  C     -0.247182   -0.643798   -2.664011
  C      1.013824   -1.952586   -1.316441
  C      1.822328   -0.937348   -1.798959
  H      1.362180    0.827689   -3.130535
  C     -0.283570   -1.780867   -1.848466
  H     -1.127804   -0.217755   -3.176156
  H      2.894876   -0.809158   -1.568840
  H      1.332327   -2.813195   -0.684934
  H     -1.097227   -2.499471   -1.794158
  C     -2.404446   -1.680368    1.407277
  H     -2.434098   -1.505549    2.445800
  H     -2.749232   -2.611583    1.112495
  H     -3.039600   -0.958960    0.929524
  C     -1.828684    1.725242   -0.713658
  H     -1.395516   -1.306066    0.930249
  H     -1.453834    2.563919   -1.345315
  H     -2.454383    2.269313    0.027652
  H     -2.598234    1.272247   -1.373864

 Total Charge           Charge          ....    0
 Multiplicity           Mult            ....    1
 Number of Electrons    NEL             ....  132
 Basis Dimension        Dim             ....  295

ORBITAL ENERGIES
----------------

  NO   OCC          E(Eh)            E(eV)
   0   2.0000     -19.266134      -524.2582
   1   2.0000     -12.638625      -343.9145
   2   2.0000     -12.636220      -343.8490
   3   2.0000     -12.635799      -343.8376
   4   2.0000     -10.448177      -284.3093
   5   2.0000     -10.446805      -284.2720
   6   2.0000     -10.446435      -284.2620
   7   2.0000     -10.445710      -284.2422
   8   2.0000     -10.444913      -284.2205
   9   2.0000     -10.444296      -284.2037
  10   2.0000     -10.443852      -284.1917
  11   2.0000     -10.443492      -284.1819
  12   2.0000     -10.443158      -284.1728
  13   2.0000     -10.442824      -284.1637
  14   2.0000     -10.439758      -284.0803
  15   2.0000     -10.371800      -282.2310
  16   2.0000      -5.907774      -160.7587
  17   2.0000      -5.907493      -160.7511
  18   2.0000      -5.906993      -160.7375
  19   2.0000      -5.905614      -160.6999
  20   2.0000      -5.905397      -160.6940
  21   2.0000      -2.449298       -66.6488
  22   2.0000      -1.286772       -35.0148
  23   2.0000      -1.283701       -34.9313
  24   2.0000      -1.274208       -34.6730
  25   2.0000      -0.983630       -26.7659
  26   2.0000      -0.977039       -26.5866
  27   2.0000      -0.803080       -21.8529
  28   2.0000      -0.793357       -21.5883
  29   2.0000      -0.790580       -21.5128
  30   2.0000      -0.789869       -21.4934
  31   2.0000      -0.788934       -21.4680
  32   2.0000      -0.703078       -19.1317
  33   2.0000      -0.608366       -16.5545
  34   2.0000      -0.606378       -16.5004
  35   2.0000      -0.605154       -16.4671
  36   2.0000      -0.603406       -16.4195
  37   2.0000      -0.590503       -16.0684
  38   2.0000      -0.586887       -15.9700
  39   2.0000      -0.575542       -15.6613
  40   2.0000      -0.574037       -15.6203
  41   2.0000      -0.573462       -15.6047
  42   2.0000      -0.572903       -15.5895
  43   2.0000      -0.572374       -15.5751
  44   2.0000      -0.571040       -15.5388
  45   2.0000      -0.569418       -15.4947
  46   2.0000      -0.492182       -13.3930
  47   2.0000      -0.482997       -13.1430
  48   2.0000      -0.465768       -12.6742
  49   2.0000      -0.449104       -12.2207
  50   2.0000      -0.446908       -12.1610
  51   2.0000      -0.446345       -12.1457
  52   2.0000      -0.445257       -12.1161
  53   2.0000      -0.438127       -11.9220
  54   2.0000      -0.437487       -11.9046
  55   2.0000      -0.431040       -11.7292
  56   2.0000      -0.428248       -11.6532
  57   2.0000      -0.426861       -11.6155
  58   2.0000      -0.424424       -11.5492
  59   2.0000      -0.390202       -10.6179
  60   2.0000      -0.386358       -10.5133
  61   2.0000      -0.288587        -7.8528
  62   2.0000      -0.285434        -7.7670
  63   2.0000      -0.277739        -7.5577
  64   2.0000      -0.270134        -7.3507
  65   2.0000      -0.265286        -7.2188
  66   0.0000      -0.030482        -0.8295
  67   0.0000       0.008727         0.2375
  68   0.0000       0.041849         1.1388
  69   0.0000       0.053274         1.4497
  70   0.0000       0.055639         1.5140

MULLIKEN ATOMIC CHARGES
-----------------------
   0 Lu:    0.902192
   1 C :   -0.270887
   2 C :   -0.339894
   3 C :   -0.189765
   4 C :   -0.408727
   5 C :   -0.243744
   6 H :    0.244139
   7 H :    0.252036
   8 H :    0.232793
   9 H :    0.228499
  10 H :    0.230920
  11 C :   -0.416814
  12 C :   -0.198623
  13 C :   -0.285019
  14 C :   -0.229833
  15 H :    0.246975
  16 C :   -0.324402
  17 H :    0.247705
  18 H :    0.231835
  19 H :    0.230014
  20 H :    0.229727
  21 C :   -0.881697
  22 H :    0.252591
  23 H :    0.256205
  24 H :    0.268507
  25 C :   -1.073417
  26 H :    0.166088
  27 H :    0.207593
  28 H :    0.219820
  29 H :    0.215189
Sum of atomic charges:   -0.0000000

LOEWDIN ATOMIC CHARGES
----------------------
   0 Lu:    0.084771
   1 C :   -0.144618
   2 C :   -0.160801
   3 C :   -0.127563
   4 C :   -0.174403
   5 C :   -0.137473
   6 H :    0.159176
   7 H :    0.161909
   8 H :    0.152487
   9 H :    0.151665
  10 H :    0.151163
  11 C :   -0.175827
  12 C :   -0.127028
  13 C :   -0.149974
  14 C :   -0.137045
  15 H :    0.160123
  16 C :   -0.158709
  17 H :    0.158972
  18 H :    0.152080
  19 H :    0.150831
  20 H :    0.151278
  21 C :   -0.467710
  22 H :    0.141982
  23 H :    0.141145
  24 H :    0.150752
  25 C :   -0.648826
  26 H :    0.140481
  27 H :    0.138437
  28 H :    0.131446
  29 H :    0.131279

  Mayer bond orders larger than 0.100000
B(  0-Lu,  1-C ) :   0.2340 B(  0-Lu,  2-C ) :   0.2455 B(  0-Lu,  3-C ) :   0.2274
B(  0-Lu,  4-C ) :   0.3071 B(  0-Lu,  5-C ) :   0.2367 B(  0-Lu, 11-C ) :   0.3101
B(  0-Lu, 12-C ) :   0.2182 B(  0-Lu, 13-C ) :   0.2328 B(  0-Lu, 14-C ) :   0.2392
B(  0-Lu, 16-C ) :   0.2456 B(  0-Lu, 25-C ) :   0.8259 B(  1-C ,  2-C ) :   1.2767
B(  1-C ,  5-C ) :   1.3346 B(  1-C ,  8-H ) :   0.9205 B(  2-C ,  3-C ) :   1.3235
B(  2-C ,  9-H ) :   0.9211 B(  3-C ,  4-C ) :   1.2747 B(  3-C , 10-H ) :   0.9144
B(  4-C ,  5-C ) :   1.2568 B(  4-C ,  6-H ) :   0.9114 B(  5-C ,  7-H ) :   0.9040
B( 11-C , 12-C ) :   1.2792 B( 11-C , 14-C ) :   1.2544 B( 11-C , 15-H ) :   0.9094
B( 12-C , 16-C ) :   1.3251 B( 12-C , 17-H ) :   0.9056 B( 13-C , 14-C ) :   1.3352
B( 13-C , 16-C ) :   1.2780 B( 13-C , 19-H ) :   0.9182 B( 14-C , 18-H ) :   0.9151
B( 16-C , 20-H ) :   0.9244 B( 21-C , 22-H ) :   0.9152 B( 21-C , 23-H ) :   0.9144
B( 21-C , 24-H ) :   0.9043 B( 21-C , 26-H ) :   0.8982 B( 25-C , 27-H ) :   0.8917
B( 25-C , 28-H ) :   0.9132 B( 25-C , 29-H ) :   0.9074

Dispersion correction           -0.016860066
FINAL SINGLE POINT ENERGY     -1702.358656195817
Dispersion correction            ... done

DIPOLE MOMENT
-------------
                                X             Y             Z
Electronic contribution:     -1.39969      20.44335     -10.43069
Nuclear contribution   :      1.46957     -20.94978      10.72681
                        -----------------------------------------
Total Dipole Moment    :      0.06988      -0.50643       0.29612
                        -----------------------------------------
Magnitude (a.u.)       :      0.59079
Magnitude (Debye)      :      1.50168

Rotational constants in cm-1:     0.027098     0.018712     0.016565
Rotational constants in MHz :   812.371416   560.972242   496.592819

                             ****ORCA TERMINATED NORMALLY****
TOTAL RUN TIME: 0 days 0 hours 9 minutes 7 seconds 655 msec
