                         Program Version 5.0.3 -  RELEASE  -
|  1> ! EnGrad PBEh-3c
|  2> %output
|  3> xyzfile=True
|  4> end
|  5> %scf
|  6> maxiter 250
|  7> end
|  8> %output
|  9> Print[P_Hirshfeld] = 1
| 10> end
| 11> % maxcore
| 12> 4000
| 13> *xyz 0 1
| 14> Lu   0.09808653   0.42655169  -0.23947912
| 15> C    0.38144295   0.99810010   2.42559288
| 16> C    1.31450040  -0.04064073   2.18488805
| 17> C    2.31996315   0.47402562   1.35315986
| 18> C    1.94431144   1.77443065   0.95560049
| 19> C    0.77103967   2.11482811   1.67722042
| 20> H    2.53138685   2.47095257   0.33032896
| 21> H    0.19414843   3.04863262   1.58737723
| 22> H   -0.43010016   0.96533769   3.14312638
| 23> H    1.33519761  -1.01858409   2.71635334
| 24> H    3.18886797  -0.08845037   1.00103677
| 25> C    1.02789495  -0.06409990  -2.57657210
| 26> C   -0.25269638  -0.64977492  -2.67301646
| 27> C    1.01773451  -1.95623325  -1.30564455
| 28> C    1.83227420  -0.93422384  -1.79510809
| 29> H    1.36172457   0.82378827  -3.13504420
| 30> C   -0.28609149  -1.77682814  -1.83604187
| 31> H   -1.12541378  -0.22088750  -3.17769877
| 32> H    2.89546695  -0.81170361  -1.57635561
| 33> H    1.33045521  -2.81064049  -0.67860554
| 34> H   -1.08756470  -2.50573481  -1.77988030
| 35> C   -2.40404963  -1.64414798   1.39914561
| 36> H   -2.41042674  -1.51958200   2.43680663
| 37> H   -2.68840507  -2.62973285   1.11195528
| 38> H   -3.12718109  -0.99534642   0.95919646
| 39> C   -1.82043833   1.72499007  -0.71773622
| 40> H   -1.47531490  -1.23129823   0.90107913
| 41> H   -1.44995382   2.55975474  -1.34357272
| 42> H   -2.43341541   2.25750566   0.01914825
| 43> H   -2.57982931   1.27635949  -1.37399641
| 44> *
| 45>
| 46>                          ****END OF INPUT****

CARTESIAN COORDINATES (ANGSTROEM)
---------------------------------
  Lu     0.098087    0.426552   -0.239479
  C      0.381443    0.998100    2.425593
  C      1.314500   -0.040641    2.184888
  C      2.319963    0.474026    1.353160
  C      1.944311    1.774431    0.955600
  C      0.771040    2.114828    1.677220
  H      2.531387    2.470953    0.330329
  H      0.194148    3.048633    1.587377
  H     -0.430100    0.965338    3.143126
  H      1.335198   -1.018584    2.716353
  H      3.188868   -0.088450    1.001037
  C      1.027895   -0.064100   -2.576572
  C     -0.252696   -0.649775   -2.673016
  C      1.017735   -1.956233   -1.305645
  C      1.832274   -0.934224   -1.795108
  H      1.361725    0.823788   -3.135044
  C     -0.286091   -1.776828   -1.836042
  H     -1.125414   -0.220887   -3.177699
  H      2.895467   -0.811704   -1.576356
  H      1.330455   -2.810640   -0.678606
  H     -1.087565   -2.505735   -1.779880
  C     -2.404050   -1.644148    1.399146
  H     -2.410427   -1.519582    2.436807
  H     -2.688405   -2.629733    1.111955
  H     -3.127181   -0.995346    0.959196
  C     -1.820438    1.724990   -0.717736
  H     -1.475315   -1.231298    0.901079
  H     -1.449954    2.559755   -1.343573
  H     -2.433415    2.257506    0.019148
  H     -2.579829    1.276359   -1.373996

 Total Charge           Charge          ....    0
 Multiplicity           Mult            ....    1
 Number of Electrons    NEL             ....  132
 Basis Dimension        Dim             ....  295

ORBITAL ENERGIES
----------------

  NO   OCC          E(Eh)            E(eV)
   0   2.0000     -19.265125      -524.2307
   1   2.0000     -12.637584      -343.8861
   2   2.0000     -12.635245      -343.8225
   3   2.0000     -12.634776      -343.8097
   4   2.0000     -10.448717      -284.3240
   5   2.0000     -10.447269      -284.2846
   6   2.0000     -10.446805      -284.2720
   7   2.0000     -10.446058      -284.2517
   8   2.0000     -10.445546      -284.2378
   9   2.0000     -10.444864      -284.2192
  10   2.0000     -10.444759      -284.2164
  11   2.0000     -10.444184      -284.2007
  12   2.0000     -10.443980      -284.1951
  13   2.0000     -10.443370      -284.1785
  14   2.0000     -10.436946      -284.0037
  15   2.0000     -10.368091      -282.1301
  16   2.0000      -5.906751      -160.7309
  17   2.0000      -5.906485      -160.7236
  18   2.0000      -5.905953      -160.7092
  19   2.0000      -5.904623      -160.6730
  20   2.0000      -5.904395      -160.6668
  21   2.0000      -2.448288       -66.6213
  22   2.0000      -1.285755       -34.9872
  23   2.0000      -1.282310       -34.8934
  24   2.0000      -1.273334       -34.6492
  25   2.0000      -0.977176       -26.5903
  26   2.0000      -0.971003       -26.4223
  27   2.0000      -0.805010       -21.9054
  28   2.0000      -0.791934       -21.5496
  29   2.0000      -0.789002       -21.4698
  30   2.0000      -0.787259       -21.4224
  31   2.0000      -0.786900       -21.4126
  32   2.0000      -0.708215       -19.2715
  33   2.0000      -0.609508       -16.5855
  34   2.0000      -0.606654       -16.5079
  35   2.0000      -0.605579       -16.4786
  36   2.0000      -0.603718       -16.4280
  37   2.0000      -0.589853       -16.0507
  38   2.0000      -0.586350       -15.9554
  39   2.0000      -0.574525       -15.6336
  40   2.0000      -0.573001       -15.5922
  41   2.0000      -0.572529       -15.5793
  42   2.0000      -0.571963       -15.5639
  43   2.0000      -0.571367       -15.5477
  44   2.0000      -0.570101       -15.5132
  45   2.0000      -0.568484       -15.4692
  46   2.0000      -0.491270       -13.3681
  47   2.0000      -0.481140       -13.0925
  48   2.0000      -0.462648       -12.5893
  49   2.0000      -0.450214       -12.2510
  50   2.0000      -0.447599       -12.1798
  51   2.0000      -0.446526       -12.1506
  52   2.0000      -0.445607       -12.1256
  53   2.0000      -0.442769       -12.0483
  54   2.0000      -0.435426       -11.8485
  55   2.0000      -0.429657       -11.6916
  56   2.0000      -0.427223       -11.6253
  57   2.0000      -0.426267       -11.5993
  58   2.0000      -0.424367       -11.5476
  59   2.0000      -0.393198       -10.6995
  60   2.0000      -0.391303       -10.6479
  61   2.0000      -0.287574        -7.8253
  62   2.0000      -0.283120        -7.7041
  63   2.0000      -0.276778        -7.5315
  64   2.0000      -0.271867        -7.3979
  65   2.0000      -0.262839        -7.1522
  66   0.0000      -0.028839        -0.7847
  67   0.0000       0.009486         0.2581
  68   0.0000       0.042919         1.1679
  69   0.0000       0.052869         1.4386
  70   0.0000       0.056791         1.5454

MULLIKEN ATOMIC CHARGES
-----------------------
   0 Lu:    0.913935
   1 C :   -0.283236
   2 C :   -0.339676
   3 C :   -0.182381
   4 C :   -0.420066
   5 C :   -0.233168
   6 H :    0.243372
   7 H :    0.251983
   8 H :    0.232721
   9 H :    0.228506
  10 H :    0.230991
  11 C :   -0.422671
  12 C :   -0.188574
  13 C :   -0.278193
  14 C :   -0.228542
  15 H :    0.246467
  16 C :   -0.341205
  17 H :    0.248262
  18 H :    0.231837
  19 H :    0.230427
  20 H :    0.229210
  21 C :   -0.883737
  22 H :    0.252927
  23 H :    0.247698
  24 H :    0.266773
  25 C :   -1.088870
  26 H :    0.175475
  27 H :    0.212251
  28 H :    0.226799
  29 H :    0.220685
Sum of atomic charges:   -0.0000000

LOEWDIN ATOMIC CHARGES
----------------------
   0 Lu:    0.091095
   1 C :   -0.146787
   2 C :   -0.162454
   3 C :   -0.125307
   4 C :   -0.175857
   5 C :   -0.137460
   6 H :    0.158212
   7 H :    0.161247
   8 H :    0.151940
   9 H :    0.151230
  10 H :    0.150257
  11 C :   -0.176091
  12 C :   -0.126752
  13 C :   -0.149848
  14 C :   -0.135719
  15 H :    0.159190
  16 C :   -0.161399
  17 H :    0.158685
  18 H :    0.151271
  19 H :    0.150544
  20 H :    0.150884
  21 C :   -0.468166
  22 H :    0.141408
  23 H :    0.141516
  24 H :    0.149429
  25 C :   -0.650654
  26 H :    0.140156
  27 H :    0.141241
  28 H :    0.134109
  29 H :    0.134080

  Mayer bond orders larger than 0.100000
B(  0-Lu,  1-C ) :   0.2357 B(  0-Lu,  2-C ) :   0.2447 B(  0-Lu,  3-C ) :   0.2208
B(  0-Lu,  4-C ) :   0.3061 B(  0-Lu,  5-C ) :   0.2346 B(  0-Lu, 11-C ) :   0.3096
B(  0-Lu, 12-C ) :   0.2173 B(  0-Lu, 13-C ) :   0.2298 B(  0-Lu, 14-C ) :   0.2341
B(  0-Lu, 16-C ) :   0.2495 B(  0-Lu, 25-C ) :   0.8293 B(  1-C ,  2-C ) :   1.2743
B(  1-C ,  5-C ) :   1.3348 B(  1-C ,  8-H ) :   0.9216 B(  2-C ,  3-C ) :   1.3250
B(  2-C ,  9-H ) :   0.9214 B(  3-C ,  4-C ) :   1.2772 B(  3-C , 10-H ) :   0.9153
B(  4-C ,  5-C ) :   1.2527 B(  4-C ,  6-H ) :   0.9134 B(  5-C ,  7-H ) :   0.9033
B( 11-C , 12-C ) :   1.2760 B( 11-C , 14-C ) :   1.2564 B( 11-C , 15-H ) :   0.9106
B( 12-C , 16-C ) :   1.3212 B( 12-C , 17-H ) :   0.9048 B( 13-C , 14-C ) :   1.3377
B( 13-C , 16-C ) :   1.2758 B( 13-C , 19-H ) :   0.9186 B( 14-C , 18-H ) :   0.9164
B( 16-C , 20-H ) :   0.9254 B( 21-C , 22-H ) :   0.9161 B( 21-C , 23-H ) :   0.9203
B( 21-C , 24-H ) :   0.9072 B( 21-C , 26-H ) :   0.8939 B( 25-C , 27-H ) :   0.8906
B( 25-C , 28-H ) :   0.9107 B( 25-C , 29-H ) :   0.9054

Dispersion correction           -0.016865517
FINAL SINGLE POINT ENERGY     -1702.366923093166
Dispersion correction            ... done

DIPOLE MOMENT
-------------
                                X             Y             Z
Electronic contribution:     -2.58951      20.64247     -10.42310
Nuclear contribution   :      2.61285     -21.14804      10.72317
                        -----------------------------------------
Total Dipole Moment    :      0.02334      -0.50556       0.30006
                        -----------------------------------------
Magnitude (a.u.)       :      0.58837
Magnitude (Debye)      :      1.49551

Rotational constants in cm-1:     0.027036     0.018725     0.016561
Rotational constants in MHz :   810.506294   561.352381   496.480124

                             ****ORCA TERMINATED NORMALLY****
TOTAL RUN TIME: 0 days 0 hours 9 minutes 4 seconds 659 msec
