                         Program Version 5.0.3 -  RELEASE  -
|  1> ! EnGrad PBEh-3c
|  2> %output
|  3> xyzfile=True
|  4> end
|  5> %scf
|  6> maxiter 250
|  7> end
|  8> %output
|  9> Print[P_Hirshfeld] = 1
| 10> end
| 11> % maxcore
| 12> 4000
| 13> *xyz 0 1
| 14> Lu   0.04525523   0.42480749  -0.23220612
| 15> C    0.38402850   0.97534159   2.41403956
| 16> C    1.32293988  -0.06834851   2.17653889
| 17> C    2.32427078   0.46107460   1.32916671
| 18> C    1.94990518   1.78341700   0.95052795
| 19> C    0.77629646   2.12572261   1.69490924
| 20> H    2.53489701   2.47709273   0.35429928
| 21> H    0.20609118   3.04355707   1.60856633
| 22> H   -0.39813533   0.92789255   3.16566446
| 23> H    1.31697245  -1.03452278   2.67103166
| 24> H    3.21036985  -0.06899638   1.00852460
| 25> C    1.03010832  -0.06726008  -2.58629935
| 26> C   -0.26215752  -0.65547003  -2.67412173
| 27> C    1.02715509  -1.95873083  -1.27858493
| 28> C    1.83939679  -0.91931801  -1.77781967
| 29> H    1.35762872   0.80588325  -3.14384301
| 30> C   -0.27964518  -1.76958017  -1.80196110
| 31> H   -1.11831101  -0.23623203  -3.18361556
| 32> H    2.90153203  -0.81609188  -1.59862175
| 33> H    1.32795268  -2.79696050  -0.66283940
| 34> H   -1.06186280  -2.52124615  -1.72933183
| 35> C   -2.43343893  -1.56971169   1.32541610
| 36> H   -2.32830796  -1.54738147   2.44330127
| 37> H   -2.47160268  -2.65528277   1.11241709
| 38> H   -3.41454813  -1.09731707   1.04636813
| 39> C   -1.78818561   1.72771741  -0.74017994
| 40> H   -1.71281803  -1.00545632   0.81716126
| 41> H   -1.42803728   2.55387062  -1.34324165
| 42> H   -2.37494312   2.23124899   0.00538092
| 43> H   -2.52738112   1.28366939  -1.38554346
| 44> *
| 45>
| 46>                          ****END OF INPUT****

CARTESIAN COORDINATES (ANGSTROEM)
---------------------------------
  Lu     0.045255    0.424807   -0.232206
  C      0.384028    0.975342    2.414040
  C      1.322940   -0.068349    2.176539
  C      2.324271    0.461075    1.329167
  C      1.949905    1.783417    0.950528
  C      0.776296    2.125723    1.694909
  H      2.534897    2.477093    0.354299
  H      0.206091    3.043557    1.608566
  H     -0.398135    0.927893    3.165664
  H      1.316972   -1.034523    2.671032
  H      3.210370   -0.068996    1.008525
  C      1.030108   -0.067260   -2.586299
  C     -0.262158   -0.655470   -2.674122
  C      1.027155   -1.958731   -1.278585
  C      1.839397   -0.919318   -1.777820
  H      1.357629    0.805883   -3.143843
  C     -0.279645   -1.769580   -1.801961
  H     -1.118311   -0.236232   -3.183616
  H      2.901532   -0.816092   -1.598622
  H      1.327953   -2.796960   -0.662839
  H     -1.061863   -2.521246   -1.729332
  C     -2.433439   -1.569712    1.325416
  H     -2.328308   -1.547381    2.443301
  H     -2.471603   -2.655283    1.112417
  H     -3.414548   -1.097317    1.046368
  C     -1.788186    1.727717   -0.740180
  H     -1.712818   -1.005456    0.817161
  H     -1.428037    2.553871   -1.343242
  H     -2.374943    2.231249    0.005381
  H     -2.527381    1.283669   -1.385543

 Total Charge           Charge          ....    0
 Multiplicity           Mult            ....    1
 Number of Electrons    NEL             ....  132
 Basis Dimension        Dim             ....  295

ORBITAL ENERGIES
----------------

  NO   OCC          E(Eh)            E(eV)
   0   2.0000     -19.262516      -524.1597
   1   2.0000     -12.634966      -343.8149
   2   2.0000     -12.632666      -343.7523
   3   2.0000     -12.632101      -343.7370
   4   2.0000     -10.448825      -284.3270
   5   2.0000     -10.447720      -284.2969
   6   2.0000     -10.446152      -284.2542
   7   2.0000     -10.445153      -284.2271
   8   2.0000     -10.444944      -284.2214
   9   2.0000     -10.444519      -284.2098
  10   2.0000     -10.444438      -284.2076
  11   2.0000     -10.444229      -284.2019
  12   2.0000     -10.443789      -284.1899
  13   2.0000     -10.443733      -284.1884
  14   2.0000     -10.442850      -284.1644
  15   2.0000     -10.360634      -281.9272
  16   2.0000      -5.904145      -160.6599
  17   2.0000      -5.903881      -160.6528
  18   2.0000      -5.903283      -160.6365
  19   2.0000      -5.901998      -160.6015
  20   2.0000      -5.901748      -160.5947
  21   2.0000      -2.445752       -66.5523
  22   2.0000      -1.283426       -34.9238
  23   2.0000      -1.279301       -34.8116
  24   2.0000      -1.271390       -34.5963
  25   2.0000      -0.968743       -26.3608
  26   2.0000      -0.962800       -26.1991
  27   2.0000      -0.799209       -21.7476
  28   2.0000      -0.788527       -21.4569
  29   2.0000      -0.786372       -21.3983
  30   2.0000      -0.784848       -21.3568
  31   2.0000      -0.783713       -21.3259
  32   2.0000      -0.718208       -19.5434
  33   2.0000      -0.610701       -16.6180
  34   2.0000      -0.607691       -16.5361
  35   2.0000      -0.605606       -16.4794
  36   2.0000      -0.603682       -16.4270
  37   2.0000      -0.589327       -16.0364
  38   2.0000      -0.585272       -15.9261
  39   2.0000      -0.571929       -15.5630
  40   2.0000      -0.570403       -15.5215
  41   2.0000      -0.570209       -15.5162
  42   2.0000      -0.569469       -15.4960
  43   2.0000      -0.568746       -15.4764
  44   2.0000      -0.567545       -15.4437
  45   2.0000      -0.565951       -15.4003
  46   2.0000      -0.504468       -13.7273
  47   2.0000      -0.459923       -12.5151
  48   2.0000      -0.453071       -12.3287
  49   2.0000      -0.451335       -12.2814
  50   2.0000      -0.449792       -12.2395
  51   2.0000      -0.448543       -12.2055
  52   2.0000      -0.444580       -12.0976
  53   2.0000      -0.442787       -12.0488
  54   2.0000      -0.431636       -11.7454
  55   2.0000      -0.427334       -11.6283
  56   2.0000      -0.425885       -11.5889
  57   2.0000      -0.424542       -11.5524
  58   2.0000      -0.420326       -11.4377
  59   2.0000      -0.401332       -10.9208
  60   2.0000      -0.400837       -10.9073
  61   2.0000      -0.286590        -7.7985
  62   2.0000      -0.279278        -7.5995
  63   2.0000      -0.275161        -7.4875
  64   2.0000      -0.274433        -7.4677
  65   2.0000      -0.257027        -6.9941
  66   0.0000      -0.024831        -0.6757
  67   0.0000       0.011082         0.3016
  68   0.0000       0.043881         1.1941
  69   0.0000       0.051961         1.4139
  70   0.0000       0.054958         1.4955

MULLIKEN ATOMIC CHARGES
-----------------------
   0 Lu:    0.925840
   1 C :   -0.326316
   2 C :   -0.308062
   3 C :   -0.198750
   4 C :   -0.414720
   5 C :   -0.214027
   6 H :    0.240300
   7 H :    0.251116
   8 H :    0.230520
   9 H :    0.230450
  10 H :    0.228054
  11 C :   -0.398671
  12 C :   -0.188128
  13 C :   -0.253223
  14 C :   -0.247994
  15 H :    0.244190
  16 C :   -0.369278
  17 H :    0.247915
  18 H :    0.228921
  19 H :    0.230880
  20 H :    0.228036
  21 C :   -0.872378
  22 H :    0.234023
  23 H :    0.239067
  24 H :    0.248799
  25 C :   -1.119693
  26 H :    0.206934
  27 H :    0.225972
  28 H :    0.237806
  29 H :    0.232418
Sum of atomic charges:   -0.0000000

LOEWDIN ATOMIC CHARGES
----------------------
   0 Lu:    0.098663
   1 C :   -0.155113
   2 C :   -0.161634
   3 C :   -0.125657
   4 C :   -0.173959
   5 C :   -0.137833
   6 H :    0.155549
   7 H :    0.159586
   8 H :    0.150751
   9 H :    0.150270
  10 H :    0.148201
  11 C :   -0.170111
  12 C :   -0.129966
  13 C :   -0.148504
  14 C :   -0.136387
  15 H :    0.156795
  16 C :   -0.165205
  17 H :    0.157974
  18 H :    0.149543
  19 H :    0.149695
  20 H :    0.150078
  21 C :   -0.466188
  22 H :    0.141475
  23 H :    0.141876
  24 H :    0.148484
  25 C :   -0.653643
  26 H :    0.136977
  27 H :    0.147953
  28 H :    0.139790
  29 H :    0.140540

  Mayer bond orders larger than 0.100000
B(  0-Lu,  1-C ) :   0.2482 B(  0-Lu,  2-C ) :   0.2375 B(  0-Lu,  3-C ) :   0.2133
B(  0-Lu,  4-C ) :   0.2976 B(  0-Lu,  5-C ) :   0.2296 B(  0-Lu, 11-C ) :   0.3000
B(  0-Lu, 12-C ) :   0.2197 B(  0-Lu, 13-C ) :   0.2241 B(  0-Lu, 14-C ) :   0.2300
B(  0-Lu, 16-C ) :   0.2616 B(  0-Lu, 25-C ) :   0.8373 B(  1-C ,  2-C ) :   1.2723
B(  1-C ,  5-C ) :   1.3237 B(  1-C ,  8-H ) :   0.9237 B(  2-C ,  3-C ) :   1.3330
B(  2-C ,  9-H ) :   0.9204 B(  3-C ,  4-C ) :   1.2836 B(  3-C , 10-H ) :   0.9197
B(  4-C ,  5-C ) :   1.2569 B(  4-C ,  6-H ) :   0.9179 B(  5-C ,  7-H ) :   0.9030
B( 11-C , 12-C ) :   1.2788 B( 11-C , 14-C ) :   1.2690 B( 11-C , 15-H ) :   0.9128
B( 12-C , 16-C ) :   1.3067 B( 12-C , 17-H ) :   0.9054 B( 13-C , 14-C ) :   1.3356
B( 13-C , 16-C ) :   1.2768 B( 13-C , 19-H ) :   0.9192 B( 14-C , 18-H ) :   0.9209
B( 16-C , 20-H ) :   0.9261 B( 21-C , 22-H ) :   0.9252 B( 21-C , 23-H ) :   0.9225
B( 21-C , 24-H ) :   0.9204 B( 21-C , 26-H ) :   0.8689 B( 25-C , 27-H ) :   0.8878
B( 25-C , 28-H ) :   0.9051 B( 25-C , 29-H ) :   0.9003

Dispersion correction           -0.016909998
FINAL SINGLE POINT ENERGY     -1702.367343815434
Dispersion correction            ... done

DIPOLE MOMENT
-------------
                                X             Y             Z
Electronic contribution:     -5.34513      20.45795      -9.94492
Nuclear contribution   :      5.27470     -20.98593      10.27551
                        -----------------------------------------
Total Dipole Moment    :     -0.07043      -0.52798       0.33059
                        -----------------------------------------
Magnitude (a.u.)       :      0.62691
Magnitude (Debye)      :      1.59347

Rotational constants in cm-1:     0.027007     0.018872     0.016605
Rotational constants in MHz :   809.642090   565.755730   497.809452

                             ****ORCA TERMINATED NORMALLY****
TOTAL RUN TIME: 0 days 0 hours 9 minutes 7 seconds 222 msec
