                         Program Version 5.0.3 -  RELEASE  -
|  1> ! EnGrad PBEh-3c
|  2> %output
|  3> xyzfile=True
|  4> end
|  5> %scf
|  6> maxiter 250
|  7> end
|  8> %output
|  9> Print[P_Hirshfeld] = 1
| 10> end
| 11> % maxcore
| 12> 4000
| 13> *xyz 0 1
| 14> Lu   0.04123294   0.39662723  -0.21596320
| 15> C    0.37797503   0.95690648   2.41645004
| 16> C    1.33247855  -0.06999895   2.17357812
| 17> C    2.32329639   0.44816015   1.29881506
| 18> C    1.94838758   1.78408335   0.95679351
| 19> C    0.76754036   2.11401057   1.69053257
| 20> H    2.52664118   2.47255965   0.36731088
| 21> H    0.21560569   3.03378230   1.63074631
| 22> H   -0.37983606   0.90016483   3.16654314
| 23> H    1.31982352  -1.04161566   2.64404786
| 24> H    3.21775827  -0.05226658   1.00939089
| 25> C    1.02805870  -0.07352139  -2.59033754
| 26> C   -0.27568658  -0.65008737  -2.64542217
| 27> C    1.02750489  -1.95536899  -1.26524946
| 28> C    1.84705874  -0.90197949  -1.75948190
| 29> H    1.35015029   0.78944553  -3.14043244
| 30> C   -0.27687879  -1.77928731  -1.78903086
| 31> H   -1.11404150  -0.25350175  -3.18362878
| 32> H    2.89539116  -0.81331791  -1.61138501
| 33> H    1.33555608  -2.78659103  -0.65757189
| 34> H   -1.04896925  -2.51973890  -1.69300008
| 35> C   -2.48072856  -1.52365010   1.34247580
| 36> H   -2.28371992  -1.53792799   2.39445328
| 37> H   -2.34526987  -2.65353691   1.08667562
| 38> H   -3.52797733  -1.18064155   1.09781994
| 39> C   -1.76698511   1.73378556  -0.75638025
| 40> H   -1.85418585  -0.87207106   0.76743465
| 41> H   -1.39831034   2.56611317  -1.35416075
| 42> H   -2.34999127   2.23098834   0.00786689
| 43> H   -2.50619975   1.28333991  -1.41071651
| 44> *
| 45>
| 46>                          ****END OF INPUT****

CARTESIAN COORDINATES (ANGSTROEM)
---------------------------------
  Lu     0.041233    0.396627   -0.215963
  C      0.377975    0.956906    2.416450
  C      1.332479   -0.069999    2.173578
  C      2.323296    0.448160    1.298815
  C      1.948388    1.784083    0.956794
  C      0.767540    2.114011    1.690533
  H      2.526641    2.472560    0.367311
  H      0.215606    3.033782    1.630746
  H     -0.379836    0.900165    3.166543
  H      1.319824   -1.041616    2.644048
  H      3.217758   -0.052267    1.009391
  C      1.028059   -0.073521   -2.590338
  C     -0.275687   -0.650087   -2.645422
  C      1.027505   -1.955369   -1.265249
  C      1.847059   -0.901979   -1.759482
  H      1.350150    0.789446   -3.140432
  C     -0.276879   -1.779287   -1.789031
  H     -1.114041   -0.253502   -3.183629
  H      2.895391   -0.813318   -1.611385
  H      1.335556   -2.786591   -0.657572
  H     -1.048969   -2.519739   -1.693000
  C     -2.480729   -1.523650    1.342476
  H     -2.283720   -1.537928    2.394453
  H     -2.345270   -2.653537    1.086676
  H     -3.527977   -1.180642    1.097820
  C     -1.766985    1.733786   -0.756380
  H     -1.854186   -0.872071    0.767435
  H     -1.398310    2.566113   -1.354161
  H     -2.349991    2.230988    0.007867
  H     -2.506200    1.283340   -1.410717

 Total Charge           Charge          ....    0
 Multiplicity           Mult            ....    1
 Number of Electrons    NEL             ....  132
 Basis Dimension        Dim             ....  295

ORBITAL ENERGIES
----------------

  NO   OCC          E(Eh)            E(eV)
   0   2.0000     -19.259860      -524.0874
   1   2.0000     -12.632366      -343.7442
   2   2.0000     -12.629992      -343.6796
   3   2.0000     -12.629381      -343.6629
   4   2.0000     -10.454226      -284.4739
   5   2.0000     -10.445738      -284.2430
   6   2.0000     -10.445060      -284.2245
   7   2.0000     -10.444659      -284.2136
   8   2.0000     -10.444344      -284.2050
   9   2.0000     -10.444005      -284.1958
  10   2.0000     -10.443879      -284.1924
  11   2.0000     -10.443811      -284.1905
  12   2.0000     -10.443125      -284.1719
  13   2.0000     -10.442432      -284.1530
  14   2.0000     -10.442417      -284.1526
  15   2.0000     -10.361397      -281.9479
  16   2.0000      -5.901524      -160.5886
  17   2.0000      -5.901242      -160.5810
  18   2.0000      -5.900601      -160.5635
  19   2.0000      -5.899276      -160.5275
  20   2.0000      -5.899036      -160.5209
  21   2.0000      -2.443114       -66.4805
  22   2.0000      -1.280956       -34.8566
  23   2.0000      -1.277091       -34.7514
  24   2.0000      -1.268794       -34.5256
  25   2.0000      -0.966551       -26.3012
  26   2.0000      -0.960405       -26.1339
  27   2.0000      -0.798291       -21.7226
  28   2.0000      -0.787901       -21.4399
  29   2.0000      -0.787109       -21.4183
  30   2.0000      -0.786024       -21.3888
  31   2.0000      -0.784230       -21.3400
  32   2.0000      -0.713279       -19.4093
  33   2.0000      -0.613350       -16.6901
  34   2.0000      -0.610081       -16.6012
  35   2.0000      -0.607935       -16.5428
  36   2.0000      -0.605992       -16.4899
  37   2.0000      -0.591423       -16.0934
  38   2.0000      -0.587594       -15.9892
  39   2.0000      -0.569300       -15.4914
  40   2.0000      -0.567854       -15.4521
  41   2.0000      -0.567732       -15.4488
  42   2.0000      -0.566801       -15.4234
  43   2.0000      -0.566092       -15.4041
  44   2.0000      -0.564848       -15.3703
  45   2.0000      -0.563288       -15.3279
  46   2.0000      -0.502852       -13.6833
  47   2.0000      -0.465225       -12.6594
  48   2.0000      -0.453108       -12.3297
  49   2.0000      -0.451414       -12.2836
  50   2.0000      -0.449344       -12.2273
  51   2.0000      -0.447936       -12.1890
  52   2.0000      -0.445631       -12.1262
  53   2.0000      -0.443627       -12.0717
  54   2.0000      -0.430788       -11.7223
  55   2.0000      -0.428848       -11.6695
  56   2.0000      -0.426995       -11.6191
  57   2.0000      -0.425749       -11.5852
  58   2.0000      -0.419965       -11.4278
  59   2.0000      -0.399622       -10.8743
  60   2.0000      -0.397904       -10.8275
  61   2.0000      -0.286110        -7.7854
  62   2.0000      -0.278574        -7.5804
  63   2.0000      -0.274861        -7.4794
  64   2.0000      -0.271499        -7.3879
  65   2.0000      -0.255782        -6.9602
  66   0.0000      -0.022192        -0.6039
  67   0.0000       0.009834         0.2676
  68   0.0000       0.043870         1.1938
  69   0.0000       0.052567         1.4304
  70   0.0000       0.055639         1.5140

MULLIKEN ATOMIC CHARGES
-----------------------
   0 Lu:    0.903643
   1 C :   -0.333643
   2 C :   -0.282604
   3 C :   -0.236042
   4 C :   -0.377326
   5 C :   -0.224873
   6 H :    0.239371
   7 H :    0.250351
   8 H :    0.230656
   9 H :    0.230795
  10 H :    0.227679
  11 C :   -0.353422
  12 C :   -0.219400
  13 C :   -0.252836
  14 C :   -0.273040
  15 H :    0.243384
  16 C :   -0.347543
  17 H :    0.246862
  18 H :    0.228908
  19 H :    0.230639
  20 H :    0.230205
  21 C :   -0.866357
  22 H :    0.251023
  23 H :    0.221146
  24 H :    0.249313
  25 C :   -1.108015
  26 H :    0.205347
  27 H :    0.225139
  28 H :    0.232940
  29 H :    0.227704
Sum of atomic charges:   -0.0000000

LOEWDIN ATOMIC CHARGES
----------------------
   0 Lu:    0.078878
   1 C :   -0.157253
   2 C :   -0.155568
   3 C :   -0.131473
   4 C :   -0.165058
   5 C :   -0.136805
   6 H :    0.154147
   7 H :    0.158531
   8 H :    0.150637
   9 H :    0.148703
  10 H :    0.148722
  11 C :   -0.159500
  12 C :   -0.133102
  13 C :   -0.146967
  14 C :   -0.138633
  15 H :    0.155207
  16 C :   -0.160444
  17 H :    0.157743
  18 H :    0.149443
  19 H :    0.148901
  20 H :    0.150174
  21 C :   -0.464274
  22 H :    0.142306
  23 H :    0.140334
  24 H :    0.149612
  25 C :   -0.650971
  26 H :    0.141968
  27 H :    0.147069
  28 H :    0.138550
  29 H :    0.139122

  Mayer bond orders larger than 0.100000
B(  0-Lu,  1-C ) :   0.2543 B(  0-Lu,  2-C ) :   0.2381 B(  0-Lu,  3-C ) :   0.2225
B(  0-Lu,  4-C ) :   0.2900 B(  0-Lu,  5-C ) :   0.2308 B(  0-Lu, 11-C ) :   0.2917
B(  0-Lu, 12-C ) :   0.2270 B(  0-Lu, 13-C ) :   0.2315 B(  0-Lu, 14-C ) :   0.2402
B(  0-Lu, 16-C ) :   0.2636 B(  0-Lu, 25-C ) :   0.8357 B(  1-C ,  2-C ) :   1.2773
B(  1-C ,  5-C ) :   1.3120 B(  1-C ,  8-H ) :   0.9258 B(  2-C ,  3-C ) :   1.3294
B(  2-C ,  9-H ) :   0.9183 B(  3-C ,  4-C ) :   1.2848 B(  3-C , 10-H ) :   0.9238
B(  4-C ,  5-C ) :   1.2724 B(  4-C ,  6-H ) :   0.9187 B(  5-C ,  7-H ) :   0.9058
B( 11-C , 12-C ) :   1.2853 B( 11-C , 14-C ) :   1.2786 B( 11-C , 15-H ) :   0.9134
B( 12-C , 16-C ) :   1.3013 B( 12-C , 17-H ) :   0.9095 B( 13-C , 14-C ) :   1.3207
B( 13-C , 16-C ) :   1.2847 B( 13-C , 19-H ) :   0.9198 B( 14-C , 18-H ) :   0.9243
B( 16-C , 20-H ) :   0.9252 B( 21-C , 22-H ) :   0.9126 B( 21-C , 23-H ) :   0.9312
B( 21-C , 24-H ) :   0.9207 B( 21-C , 26-H ) :   0.8675 B( 25-C , 27-H ) :   0.8902
B( 25-C , 28-H ) :   0.9051 B( 25-C , 29-H ) :   0.9011

Dispersion correction           -0.016960755
FINAL SINGLE POINT ENERGY     -1702.368077330110
Dispersion correction            ... done

DIPOLE MOMENT
-------------
                                X             Y             Z
Electronic contribution:     -5.46844      18.95889      -9.14065
Nuclear contribution   :      5.41373     -19.54923       9.51339
                        -----------------------------------------
Total Dipole Moment    :     -0.05471      -0.59034       0.37275
                        -----------------------------------------
Magnitude (a.u.)       :      0.70031
Magnitude (Debye)      :      1.78006

Rotational constants in cm-1:     0.027038     0.019078     0.016647
Rotational constants in MHz :   810.565580   571.946030   499.069466

                             ****ORCA TERMINATED NORMALLY****
TOTAL RUN TIME: 0 days 0 hours 9 minutes 45 seconds 975 msec
