                         Program Version 5.0.3 -  RELEASE  -
|  1> ! EnGrad PBEh-3c
|  2> %output
|  3> xyzfile=True
|  4> end
|  5> %scf
|  6> maxiter 250
|  7> end
|  8> %output
|  9> Print[P_Hirshfeld] = 1
| 10> end
| 11> % maxcore
| 12> 4000
| 13> *xyz 0 1
| 14> Lu   0.05951954   0.32999914  -0.17996406
| 15> C    0.38926019   0.92766471   2.40384397
| 16> C    1.35140842  -0.07409773   2.16810486
| 17> C    2.29434622   0.43984536   1.25180574
| 18> C    1.93846195   1.77354569   0.97304587
| 19> C    0.74264574   2.07104365   1.67593979
| 20> H    2.50492645   2.46229104   0.38383315
| 21> H    0.23069453   3.01505910   1.67458072
| 22> H   -0.36808671   0.84714482   3.17165703
| 23> H    1.33806861  -1.04805949   2.59806499
| 24> H    3.23800137  -0.02886252   1.00032042
| 25> C    1.01820601  -0.09881501  -2.57901894
| 26> C   -0.29302720  -0.63798076  -2.57495573
| 27> C    1.03289287  -1.93874987  -1.24424818
| 28> C    1.82036587  -0.87536591  -1.73245140
| 29> H    1.33469513   0.76654830  -3.13286247
| 30> C   -0.25916582  -1.79046199  -1.77262215
| 31> H   -1.11207465  -0.28678868  -3.18033261
| 32> H    2.89804531  -0.80028268  -1.62708799
| 33> H    1.35667312  -2.76876404  -0.65113713
| 34> H   -1.04199940  -2.51871133  -1.62524523
| 35> C   -2.57107360  -1.49403913   1.31589520
| 36> H   -2.20963069  -1.48716560   2.34584852
| 37> H   -2.14653974  -2.58645162   1.02993418
| 38> H   -3.66989508  -1.33678131   1.18728518
| 39> C   -1.73598214   1.75063895  -0.78877846
| 40> H   -2.09380985  -0.66072758   0.69691702
| 41> H   -1.33490638   2.59300838  -1.37705684
| 42> H   -2.31046858   2.23791901   0.01349150
| 43> H   -2.47107485   1.28426777  -1.46161398
| 44> *
| 45>
| 46>                          ****END OF INPUT****

CARTESIAN COORDINATES (ANGSTROEM)
---------------------------------
  Lu     0.059520    0.329999   -0.179964
  C      0.389260    0.927665    2.403844
  C      1.351408   -0.074098    2.168105
  C      2.294346    0.439845    1.251806
  C      1.938462    1.773546    0.973046
  C      0.742646    2.071044    1.675940
  H      2.504926    2.462291    0.383833
  H      0.230695    3.015059    1.674581
  H     -0.368087    0.847145    3.171657
  H      1.338069   -1.048059    2.598065
  H      3.238001   -0.028863    1.000320
  C      1.018206   -0.098815   -2.579019
  C     -0.293027   -0.637981   -2.574956
  C      1.032893   -1.938750   -1.244248
  C      1.820366   -0.875366   -1.732451
  H      1.334695    0.766548   -3.132862
  C     -0.259166   -1.790462   -1.772622
  H     -1.112075   -0.286789   -3.180333
  H      2.898045   -0.800283   -1.627088
  H      1.356673   -2.768764   -0.651137
  H     -1.041999   -2.518711   -1.625245
  C     -2.571074   -1.494039    1.315895
  H     -2.209631   -1.487166    2.345849
  H     -2.146540   -2.586452    1.029934
  H     -3.669895   -1.336781    1.187285
  C     -1.735982    1.750639   -0.788778
  H     -2.093810   -0.660728    0.696917
  H     -1.334906    2.593008   -1.377057
  H     -2.310469    2.237919    0.013491
  H     -2.471075    1.284268   -1.461614

 Total Charge           Charge          ....    0
 Multiplicity           Mult            ....    1
 Number of Electrons    NEL             ....  132
 Basis Dimension        Dim             ....  295

ORBITAL ENERGIES
----------------

  NO   OCC          E(Eh)            E(eV)
   0   2.0000     -19.256018      -523.9829
   1   2.0000     -12.628644      -343.6429
   2   2.0000     -12.626075      -343.5730
   3   2.0000     -12.625451      -343.5560
   4   2.0000     -10.466725      -284.8141
   5   2.0000     -10.442994      -284.1683
   6   2.0000     -10.442347      -284.1507
   7   2.0000     -10.442192      -284.1465
   8   2.0000     -10.441901      -284.1386
   9   2.0000     -10.441486      -284.1273
  10   2.0000     -10.441315      -284.1226
  11   2.0000     -10.441248      -284.1208
  12   2.0000     -10.440371      -284.0969
  13   2.0000     -10.440296      -284.0949
  14   2.0000     -10.438981      -284.0591
  15   2.0000     -10.364000      -282.0188
  16   2.0000      -5.897735      -160.4855
  17   2.0000      -5.897417      -160.4769
  18   2.0000      -5.896745      -160.4586
  19   2.0000      -5.895297      -160.4192
  20   2.0000      -5.895084      -160.4134
  21   2.0000      -2.439324       -66.3774
  22   2.0000      -1.277524       -34.7632
  23   2.0000      -1.275138       -34.6983
  24   2.0000      -1.264919       -34.4202
  25   2.0000      -0.976897       -26.5827
  26   2.0000      -0.969655       -26.3857
  27   2.0000      -0.792542       -21.5662
  28   2.0000      -0.791326       -21.5331
  29   2.0000      -0.790092       -21.4995
  30   2.0000      -0.788779       -21.4638
  31   2.0000      -0.786937       -21.4136
  32   2.0000      -0.700481       -19.0610
  33   2.0000      -0.612561       -16.6686
  34   2.0000      -0.609955       -16.5977
  35   2.0000      -0.609230       -16.5780
  36   2.0000      -0.606949       -16.5159
  37   2.0000      -0.594309       -16.1720
  38   2.0000      -0.589134       -16.0311
  39   2.0000      -0.565453       -15.3868
  40   2.0000      -0.564192       -15.3525
  41   2.0000      -0.563993       -15.3470
  42   2.0000      -0.562886       -15.3169
  43   2.0000      -0.562170       -15.2974
  44   2.0000      -0.560857       -15.2617
  45   2.0000      -0.559250       -15.2180
  46   2.0000      -0.494173       -13.4471
  47   2.0000      -0.470644       -12.8069
  48   2.0000      -0.456669       -12.4266
  49   2.0000      -0.451166       -12.2769
  50   2.0000      -0.449602       -12.2343
  51   2.0000      -0.448996       -12.2178
  52   2.0000      -0.448708       -12.2100
  53   2.0000      -0.436159       -11.8685
  54   2.0000      -0.433572       -11.7981
  55   2.0000      -0.430757       -11.7215
  56   2.0000      -0.428115       -11.6496
  57   2.0000      -0.426254       -11.5989
  58   2.0000      -0.423249       -11.5172
  59   2.0000      -0.394144       -10.7252
  60   2.0000      -0.389816       -10.6074
  61   2.0000      -0.290076        -7.8934
  62   2.0000      -0.280051        -7.6206
  63   2.0000      -0.275401        -7.4940
  64   2.0000      -0.262259        -7.1364
  65   2.0000      -0.259296        -7.0558
  66   0.0000      -0.018513        -0.5038
  67   0.0000       0.007406         0.2015
  68   0.0000       0.041387         1.1262
  69   0.0000       0.054725         1.4891
  70   0.0000       0.058822         1.6006

MULLIKEN ATOMIC CHARGES
-----------------------
   0 Lu:    0.856207
   1 C :   -0.329287
   2 C :   -0.237679
   3 C :   -0.317512
   4 C :   -0.289296
   5 C :   -0.262530
   6 H :    0.239601
   7 H :    0.245506
   8 H :    0.230360
   9 H :    0.234387
  10 H :    0.224949
  11 C :   -0.257504
  12 C :   -0.302351
  13 C :   -0.267556
  14 C :   -0.316024
  15 H :    0.242324
  16 C :   -0.276702
  17 H :    0.239535
  18 H :    0.227314
  19 H :    0.231635
  20 H :    0.232248
  21 C :   -0.871032
  22 H :    0.251176
  23 H :    0.214155
  24 H :    0.257444
  25 C :   -1.067959
  26 H :    0.215757
  27 H :    0.217628
  28 H :    0.219114
  29 H :    0.216092
Sum of atomic charges:   -0.0000000

LOEWDIN ATOMIC CHARGES
----------------------
   0 Lu:    0.035559
   1 C :   -0.152921
   2 C :   -0.150324
   3 C :   -0.138763
   4 C :   -0.148855
   5 C :   -0.136566
   6 H :    0.153431
   7 H :    0.158398
   8 H :    0.151548
   9 H :    0.148426
  10 H :    0.150899
  11 C :   -0.141210
  12 C :   -0.138689
  13 C :   -0.149551
  14 C :   -0.140323
  15 H :    0.154744
  16 C :   -0.146090
  17 H :    0.158330
  18 H :    0.151471
  19 H :    0.149779
  20 H :    0.150369
  21 C :   -0.473061
  22 H :    0.141959
  23 H :    0.140890
  24 H :    0.152159
  25 C :   -0.646164
  26 H :    0.155902
  27 H :    0.141980
  28 H :    0.133065
  29 H :    0.133608

  Mayer bond orders larger than 0.100000
B(  0-Lu,  1-C ) :   0.2596 B(  0-Lu,  2-C ) :   0.2442 B(  0-Lu,  3-C ) :   0.2464
B(  0-Lu,  4-C ) :   0.2755 B(  0-Lu,  5-C ) :   0.2350 B(  0-Lu, 11-C ) :   0.2725
B(  0-Lu, 12-C ) :   0.2433 B(  0-Lu, 13-C ) :   0.2512 B(  0-Lu, 14-C ) :   0.2590
B(  0-Lu, 16-C ) :   0.2611 B(  0-Lu, 25-C ) :   0.8321 B(  1-C ,  2-C ) :   1.2821
B(  1-C ,  5-C ) :   1.3074 B(  1-C ,  8-H ) :   0.9248 B(  2-C ,  3-C ) :   1.3104
B(  2-C ,  9-H ) :   0.9139 B(  3-C ,  4-C ) :   1.2908 B(  3-C , 10-H ) :   0.9292
B(  4-C ,  5-C ) :   1.2847 B(  4-C ,  6-H ) :   0.9168 B(  5-C ,  7-H ) :   0.9148
B( 11-C , 12-C ) :   1.2842 B( 11-C , 14-C ) :   1.2945 B( 11-C , 15-H ) :   0.9120
B( 12-C , 16-C ) :   1.2997 B( 12-C , 17-H ) :   0.9213 B( 13-C , 14-C ) :   1.2941
B( 13-C , 16-C ) :   1.2918 B( 13-C , 19-H ) :   0.9201 B( 14-C , 18-H ) :   0.9267
B( 16-C , 20-H ) :   0.9199 B( 21-C , 22-H ) :   0.9064 B( 21-C , 23-H ) :   0.9287
B( 21-C , 24-H ) :   0.9148 B( 21-C , 26-H ) :   0.8648 B( 25-C , 27-H ) :   0.8972
B( 25-C , 28-H ) :   0.9076 B( 25-C , 29-H ) :   0.9048

Dispersion correction           -0.017080169
FINAL SINGLE POINT ENERGY     -1702.367439470342
Dispersion correction            ... done

DIPOLE MOMENT
-------------
                                X             Y             Z
Electronic contribution:     -4.27208      15.54267      -7.29001
Nuclear contribution   :      4.32873     -16.25189       7.73822
                        -----------------------------------------
Total Dipole Moment    :      0.05665      -0.70922       0.44821
                        -----------------------------------------
Magnitude (a.u.)       :      0.84089
Magnitude (Debye)      :      2.13738

Rotational constants in cm-1:     0.027362     0.019548     0.016837
Rotational constants in MHz :   820.301980   586.036875   504.761546

                             ****ORCA TERMINATED NORMALLY****
TOTAL RUN TIME: 0 days 0 hours 10 minutes 4 seconds 402 msec
