                         Program Version 5.0.3 -  RELEASE  -
|  1> ! EnGrad PBEh-3c
|  2> %output
|  3> xyzfile=True
|  4> end
|  5> %scf
|  6> maxiter 250
|  7> end
|  8> %output
|  9> Print[P_Hirshfeld] = 1
| 10> end
| 11> % maxcore
| 12> 4000
| 13> *xyz 0 1
| 14> Lu   0.04692411   0.37589121  -0.20475954
| 15> C    0.38148720   0.94780585   2.41252677
| 16> C    1.33836992  -0.07127458   2.17187473
| 17> C    2.31428651   0.44557242   1.28418480
| 18> C    1.94529852   1.78080381   0.96185157
| 19> C    0.75979265   2.10063839   1.68599100
| 20> H    2.51988311   2.46936385   0.37245295
| 21> H    0.22030164   3.02795526   1.64438848
| 22> H   -0.37617942   0.88366392   3.16813469
| 23> H    1.32550176  -1.04362111   2.62973705
| 24> H    3.22405834  -0.04498276   1.00656797
| 25> C    1.02499234  -0.08139328  -2.58681496
| 26> C   -0.28108333  -0.64631954  -2.62349157
| 27> C    1.02918174  -1.95019678  -1.25871343
| 28> C    1.83875138  -0.89369680  -1.75106946
| 29> H    1.34534033   0.78231945  -3.13807651
| 30> C   -0.27136615  -1.78276510  -1.78392413
| 31> H   -1.11342937  -0.26386132  -3.18260294
| 32> H    2.89621719  -0.80926108  -1.61627210
| 33> H    1.34212813  -2.78104291  -0.65556926
| 34> H   -1.04680009  -2.51941910  -1.67191339
| 35> C   -2.50884578  -1.51443456   1.33420337
| 36> H   -2.26066184  -1.52212970   2.37932649
| 37> H   -2.28342100  -2.63265860   1.06901653
| 38> H   -3.57214503  -1.22923543   1.12566335
| 39> C   -1.75733635   1.73903068  -0.76646323
| 40> H   -1.92876173  -0.80629666   0.74548813
| 41> H   -1.37857774   2.57448350  -1.36128648
| 42> H   -2.33769100   2.23314530   0.00961738
| 43> H   -2.49526817   1.28362868  -1.42655684
| 44> *
| 45>
| 46>                          ****END OF INPUT****

CARTESIAN COORDINATES (ANGSTROEM)
---------------------------------
  Lu     0.046924    0.375891   -0.204760
  C      0.381487    0.947806    2.412527
  C      1.338370   -0.071275    2.171875
  C      2.314287    0.445572    1.284185
  C      1.945299    1.780804    0.961852
  C      0.759793    2.100638    1.685991
  H      2.519883    2.469364    0.372453
  H      0.220302    3.027955    1.644388
  H     -0.376179    0.883664    3.168135
  H      1.325502   -1.043621    2.629737
  H      3.224058   -0.044983    1.006568
  C      1.024992   -0.081393   -2.586815
  C     -0.281083   -0.646320   -2.623492
  C      1.029182   -1.950197   -1.258713
  C      1.838751   -0.893697   -1.751069
  H      1.345340    0.782319   -3.138077
  C     -0.271366   -1.782765   -1.783924
  H     -1.113429   -0.263861   -3.182603
  H      2.896217   -0.809261   -1.616272
  H      1.342128   -2.781043   -0.655569
  H     -1.046800   -2.519419   -1.671913
  C     -2.508846   -1.514435    1.334203
  H     -2.260662   -1.522130    2.379326
  H     -2.283421   -2.632659    1.069017
  H     -3.572145   -1.229235    1.125663
  C     -1.757336    1.739031   -0.766463
  H     -1.928762   -0.806297    0.745488
  H     -1.378578    2.574483   -1.361286
  H     -2.337691    2.233145    0.009617
  H     -2.495268    1.283629   -1.426557

 Total Charge           Charge          ....    0
 Multiplicity           Mult            ....    1
 Number of Electrons    NEL             ....  132
 Basis Dimension        Dim             ....  295

ORBITAL ENERGIES
----------------

  NO   OCC          E(Eh)            E(eV)
   0   2.0000     -19.258607      -524.0533
   1   2.0000     -12.631151      -343.7111
   2   2.0000     -12.628718      -343.6449
   3   2.0000     -12.628101      -343.6281
   4   2.0000     -10.456290      -284.5301
   5   2.0000     -10.444804      -284.2176
   6   2.0000     -10.444153      -284.1999
   7   2.0000     -10.443641      -284.1859
   8   2.0000     -10.443284      -284.1762
   9   2.0000     -10.443055      -284.1700
  10   2.0000     -10.442903      -284.1658
  11   2.0000     -10.442738      -284.1614
  12   2.0000     -10.442310      -284.1497
  13   2.0000     -10.441951      -284.1399
  14   2.0000     -10.441547      -284.1289
  15   2.0000     -10.362044      -281.9655
  16   2.0000      -5.900289      -160.5550
  17   2.0000      -5.899996      -160.5471
  18   2.0000      -5.899343      -160.5293
  19   2.0000      -5.897982      -160.4923
  20   2.0000      -5.897751      -160.4860
  21   2.0000      -2.441873       -66.4467
  22   2.0000      -1.279821       -34.8257
  23   2.0000      -1.276386       -34.7322
  24   2.0000      -1.267495       -34.4903
  25   2.0000      -0.969759       -26.3885
  26   2.0000      -0.963291       -26.2125
  27   2.0000      -0.797212       -21.6932
  28   2.0000      -0.788777       -21.4637
  29   2.0000      -0.788504       -21.4563
  30   2.0000      -0.787401       -21.4263
  31   2.0000      -0.785140       -21.3648
  32   2.0000      -0.709149       -19.2969
  33   2.0000      -0.612922       -16.6784
  34   2.0000      -0.610010       -16.5992
  35   2.0000      -0.608329       -16.5535
  36   2.0000      -0.606318       -16.4988
  37   2.0000      -0.592479       -16.1222
  38   2.0000      -0.588317       -16.0089
  39   2.0000      -0.568048       -15.4574
  40   2.0000      -0.566657       -15.4195
  41   2.0000      -0.566522       -15.4158
  42   2.0000      -0.565528       -15.3888
  43   2.0000      -0.564815       -15.3694
  44   2.0000      -0.563554       -15.3351
  45   2.0000      -0.561979       -15.2922
  46   2.0000      -0.499540       -13.5932
  47   2.0000      -0.468298       -12.7430
  48   2.0000      -0.454348       -12.3634
  49   2.0000      -0.451463       -12.2849
  50   2.0000      -0.449623       -12.2349
  51   2.0000      -0.448215       -12.1965
  52   2.0000      -0.446767       -12.1571
  53   2.0000      -0.443331       -12.0636
  54   2.0000      -0.431461       -11.7407
  55   2.0000      -0.429622       -11.6906
  56   2.0000      -0.427292       -11.6272
  57   2.0000      -0.426391       -11.6027
  58   2.0000      -0.421501       -11.4696
  59   2.0000      -0.397860       -10.8263
  60   2.0000      -0.395328       -10.7574
  61   2.0000      -0.286991        -7.8094
  62   2.0000      -0.278996        -7.5919
  63   2.0000      -0.275064        -7.4849
  64   2.0000      -0.268545        -7.3075
  65   2.0000      -0.257028        -6.9941
  66   0.0000      -0.020795        -0.5659
  67   0.0000       0.009201         0.2504
  68   0.0000       0.043561         1.1853
  69   0.0000       0.053371         1.4523
  70   0.0000       0.057023         1.5517

MULLIKEN ATOMIC CHARGES
-----------------------
   0 Lu:    0.886539
   1 C :   -0.333054
   2 C :   -0.267984
   3 C :   -0.260896
   4 C :   -0.350571
   5 C :   -0.235359
   6 H :    0.239306
   7 H :    0.249308
   8 H :    0.230424
   9 H :    0.231903
  10 H :    0.226828
  11 C :   -0.323816
  12 C :   -0.243140
  13 C :   -0.256103
  14 C :   -0.286622
  15 H :    0.242971
  16 C :   -0.327347
  17 H :    0.245119
  18 H :    0.228488
  19 H :    0.230795
  20 H :    0.230785
  21 C :   -0.868632
  22 H :    0.251012
  23 H :    0.220325
  24 H :    0.252659
  25 C :   -1.095493
  26 H :    0.207419
  27 H :    0.222708
  28 H :    0.228534
  29 H :    0.223897
Sum of atomic charges:   -0.0000000

LOEWDIN ATOMIC CHARGES
----------------------
   0 Lu:    0.065641
   1 C :   -0.155959
   2 C :   -0.153936
   3 C :   -0.133644
   4 C :   -0.160156
   5 C :   -0.136683
   6 H :    0.153941
   7 H :    0.158486
   8 H :    0.150899
   9 H :    0.148610
  10 H :    0.149408
  11 C :   -0.153903
  12 C :   -0.134846
  13 C :   -0.147740
  14 C :   -0.139177
  15 H :    0.155090
  16 C :   -0.156019
  17 H :    0.157962
  18 H :    0.150123
  19 H :    0.149132
  20 H :    0.150191
  21 C :   -0.466066
  22 H :    0.142216
  23 H :    0.140663
  24 H :    0.150203
  25 C :   -0.649559
  26 H :    0.145576
  27 H :    0.145404
  28 H :    0.136816
  29 H :    0.137326

  Mayer bond orders larger than 0.100000
B(  0-Lu,  1-C ) :   0.2564 B(  0-Lu,  2-C ) :   0.2404 B(  0-Lu,  3-C ) :   0.2300
B(  0-Lu,  4-C ) :   0.2861 B(  0-Lu,  5-C ) :   0.2319 B(  0-Lu, 11-C ) :   0.2864
B(  0-Lu, 12-C ) :   0.2318 B(  0-Lu, 13-C ) :   0.2378 B(  0-Lu, 14-C ) :   0.2466
B(  0-Lu, 16-C ) :   0.2635 B(  0-Lu, 25-C ) :   0.8350 B(  1-C ,  2-C ) :   1.2785
B(  1-C ,  5-C ) :   1.3109 B(  1-C ,  8-H ) :   0.9256 B(  2-C ,  3-C ) :   1.3241
B(  2-C ,  9-H ) :   0.9170 B(  3-C ,  4-C ) :   1.2878 B(  3-C , 10-H ) :   0.9257
B(  4-C ,  5-C ) :   1.2767 B(  4-C ,  6-H ) :   0.9182 B(  5-C ,  7-H ) :   0.9084
B( 11-C , 12-C ) :   1.2863 B( 11-C , 14-C ) :   1.2842 B( 11-C , 15-H ) :   0.9130
B( 12-C , 16-C ) :   1.3021 B( 12-C , 17-H ) :   0.9129 B( 13-C , 14-C ) :   1.3121
B( 13-C , 16-C ) :   1.2870 B( 13-C , 19-H ) :   0.9200 B( 14-C , 18-H ) :   0.9252
B( 16-C , 20-H ) :   0.9237 B( 21-C , 22-H ) :   0.9113 B( 21-C , 23-H ) :   0.9303
B( 21-C , 24-H ) :   0.9187 B( 21-C , 26-H ) :   0.8672 B( 25-C , 27-H ) :   0.8925
B( 25-C , 28-H ) :   0.9059 B( 25-C , 29-H ) :   0.9023

Dispersion correction           -0.016995731
FINAL SINGLE POINT ENERGY     -1702.371711671397
Dispersion correction            ... done

DIPOLE MOMENT
-------------
                                X             Y             Z
Electronic contribution:     -5.09624      17.89172      -8.56418
Nuclear contribution   :      5.07606     -18.52303       8.96092
                        -----------------------------------------
Total Dipole Moment    :     -0.02019      -0.63131       0.39674
                        -----------------------------------------
Magnitude (a.u.)       :      0.74590
Magnitude (Debye)      :      1.89592

Rotational constants in cm-1:     0.027147     0.019226     0.016707
Rotational constants in MHz :   813.836696   576.378614   500.871755

                             ****ORCA TERMINATED NORMALLY****
TOTAL RUN TIME: 0 days 0 hours 9 minutes 47 seconds 765 msec
