                         Program Version 5.0.3 -  RELEASE  -
|  1> ! EnGrad PBEh-3c
|  2> %output
|  3> xyzfile=True
|  4> end
|  5> %scf
|  6> maxiter 250
|  7> end
|  8> %output
|  9> Print[P_Hirshfeld] = 1
| 10> end
| 11> % maxcore
| 12> 4000
| 13> *xyz 0 1
| 14> C   -1.84572374   0.15843576  -0.18394888
| 15> C   -1.64638251  -0.65241569  -1.29048130
| 16> C   -0.93886751  -1.83409824  -1.16410033
| 17> C   -0.37548275  -2.17398189   0.05253449
| 18> C   -1.33772699  -0.23417885   1.04010438
| 19> C   -0.54439761  -1.35803342   1.15972010
| 20> H   -2.44627583   1.04868201  -0.32395131
| 21> H   -2.09543394  -0.40550820  -2.24319606
| 22> H   -0.84777944  -2.50333539  -2.01149036
| 23> H   -0.07035573  -1.64797465   2.08922665
| 24> H    0.17633420  -3.10038581   0.13781124
| 25> Pd   1.40528172   1.20305747   0.01563116
| 26> O    2.44433983   0.74670660  -1.68982734
| 27> O    2.62148082  -0.43891732   0.10588170
| 28> O    0.31703139   2.91864654  -0.05325987
| 29> C    0.15192061   2.99246492   1.18193752
| 30> O    0.69800963   2.11991179   1.91751033
| 31> H   -1.70989424   0.58147597   2.34405159
| 32> C    2.90874381  -0.25956478  -1.10446263
| 33> H    3.61328622  -0.93366051  -1.60600789
| 34> H   -0.47810572   3.77266368   1.62632126
| 35> *
| 36>
| 37>                          ****END OF INPUT****

CARTESIAN COORDINATES (ANGSTROEM)
---------------------------------
  C     -1.845724    0.158436   -0.183949
  C     -1.646383   -0.652416   -1.290481
  C     -0.938868   -1.834098   -1.164100
  C     -0.375483   -2.173982    0.052534
  C     -1.337727   -0.234179    1.040104
  C     -0.544398   -1.358033    1.159720
  H     -2.446276    1.048682   -0.323951
  H     -2.095434   -0.405508   -2.243196
  H     -0.847779   -2.503335   -2.011490
  H     -0.070356   -1.647975    2.089227
  H      0.176334   -3.100386    0.137811
  Pd     1.405282    1.203057    0.015631
  O      2.444340    0.746707   -1.689827
  O      2.621481   -0.438917    0.105882
  O      0.317031    2.918647   -0.053260
  C      0.151921    2.992465    1.181938
  O      0.698010    2.119912    1.917510
  H     -1.709894    0.581476    2.344052
  C      2.908744   -0.259565   -1.104463
  H      3.613286   -0.933661   -1.606008
  H     -0.478106    3.772664    1.626321

 Total Charge           Charge          ....    0
 Multiplicity           Mult            ....    1
 Number of Electrons    NEL             ....  106
 Basis Dimension        Dim             ....  227

ORBITAL ENERGIES
----------------

  NO   OCC          E(Eh)            E(eV)
   0   2.0000     -19.541211      -531.7434
   1   2.0000     -19.540227      -531.7166
   2   2.0000     -19.531582      -531.4814
   3   2.0000     -19.515744      -531.0504
   4   2.0000     -10.599057      -288.4150
   5   2.0000     -10.585451      -288.0448
   6   2.0000     -10.493722      -285.5487
   7   2.0000     -10.458427      -284.5883
   8   2.0000     -10.456887      -284.5464
   9   2.0000     -10.455658      -284.5129
  10   2.0000     -10.455027      -284.4957
  11   2.0000     -10.453025      -284.4413
  12   2.0000      -3.696574      -100.5889
  13   2.0000      -2.349534       -63.9341
  14   2.0000      -2.337936       -63.6185
  15   2.0000      -2.303559       -62.6830
  16   2.0000      -1.245633       -33.8954
  17   2.0000      -1.225466       -33.3466
  18   2.0000      -1.128368       -30.7044
  19   2.0000      -1.106882       -30.1198
  20   2.0000      -0.967942       -26.3390
  21   2.0000      -0.848495       -23.0887
  22   2.0000      -0.840202       -22.8631
  23   2.0000      -0.707658       -19.2564
  24   2.0000      -0.691282       -18.8107
  25   2.0000      -0.688091       -18.7239
  26   2.0000      -0.676903       -18.4195
  27   2.0000      -0.602725       -16.4010
  28   2.0000      -0.591174       -16.0867
  29   2.0000      -0.582257       -15.8440
  30   2.0000      -0.575696       -15.6655
  31   2.0000      -0.548944       -14.9375
  32   2.0000      -0.544411       -14.8142
  33   2.0000      -0.524538       -14.2734
  34   2.0000      -0.521604       -14.1936
  35   2.0000      -0.519116       -14.1259
  36   2.0000      -0.491065       -13.3626
  37   2.0000      -0.458503       -12.4765
  38   2.0000      -0.450060       -12.2468
  39   2.0000      -0.439457       -11.9582
  40   2.0000      -0.426219       -11.5980
  41   2.0000      -0.414746       -11.2858
  42   2.0000      -0.409172       -11.1341
  43   2.0000      -0.396768       -10.7966
  44   2.0000      -0.390397       -10.6232
  45   2.0000      -0.377638       -10.2760
  46   2.0000      -0.372339       -10.1318
  47   2.0000      -0.360504        -9.8098
  48   2.0000      -0.353101        -9.6084
  49   2.0000      -0.337964        -9.1965
  50   2.0000      -0.330925        -9.0049
  51   2.0000      -0.302432        -8.2296
  52   2.0000      -0.298970        -8.1354
  53   0.0000      -0.096452        -2.6246
  54   0.0000       0.007300         0.1986
  55   0.0000       0.012058         0.3281
  56   0.0000       0.017847         0.4856
  57   0.0000       0.030042         0.8175

MULLIKEN ATOMIC CHARGES
-----------------------
   0 C :   -0.230626
   1 C :   -0.218301
   2 C :   -0.227125
   3 C :   -0.219601
   4 C :   -0.167652
   5 C :   -0.226274
   6 H :    0.236660
   7 H :    0.229992
   8 H :    0.224912
   9 H :    0.244747
  10 H :    0.226989
  11 Pd:    0.542685
  12 O :   -0.450066
  13 O :   -0.452494
  14 O :   -0.455657
  15 C :    0.412102
  16 O :   -0.455976
  17 H :    0.136070
  18 C :    0.436138
  19 H :    0.209987
  20 H :    0.203490
Sum of atomic charges:   -0.0000000

LOEWDIN ATOMIC CHARGES
----------------------
   0 C :   -0.132206
   1 C :   -0.122533
   2 C :   -0.134760
   3 C :   -0.122437
   4 C :   -0.075624
   5 C :   -0.126083
   6 H :    0.149283
   7 H :    0.142165
   8 H :    0.138465
   9 H :    0.153265
  10 H :    0.141052
  11 Pd:   -0.122283
  12 O :   -0.129328
  13 O :   -0.133376
  14 O :   -0.133510
  15 C :    0.156893
  16 O :   -0.182193
  17 H :    0.112896
  18 C :    0.174153
  19 H :    0.125656
  20 H :    0.120507

  Mayer bond orders larger than 0.100000
B(  0-C ,  1-C ) :   1.4196 B(  0-C ,  4-C ) :   1.4081 B(  0-C ,  6-H ) :   0.9139
B(  1-C ,  2-C ) :   1.4273 B(  1-C ,  7-H ) :   0.9152 B(  2-C ,  3-C ) :   1.4273
B(  2-C ,  8-H ) :   0.9186 B(  3-C ,  5-C ) :   1.4176 B(  3-C , 10-H ) :   0.9166
B(  4-C ,  5-C ) :   1.4242 B(  4-C , 17-H ) :   0.9121 B(  5-C ,  9-H ) :   0.9108
B( 11-Pd, 12-O ) :   0.5816 B( 11-Pd, 13-O ) :   0.5812 B( 11-Pd, 14-O ) :   0.5889
B( 11-Pd, 16-O ) :   0.4968 B( 12-O , 13-O ) :   0.1130 B( 12-O , 18-C ) :   1.4628
B( 13-O , 18-C ) :   1.4487 B( 14-O , 15-C ) :   1.4366 B( 14-O , 16-O ) :   0.1093
B( 15-C , 16-O ) :   1.5212 B( 15-C , 20-H ) :   0.8871 B( 18-C , 19-H ) :   0.8900

Dispersion correction           -0.013746574
FINAL SINGLE POINT ENERGY      -737.068943600247
Dispersion correction            ... done

DIPOLE MOMENT
-------------
                                X             Y             Z
Electronic contribution:     53.98413      45.94428       0.16876
Nuclear contribution   :    -54.13869     -46.38912      -0.49632
                        -----------------------------------------
Total Dipole Moment    :     -0.15456      -0.44483      -0.32756
                        -----------------------------------------
Magnitude (a.u.)       :      0.57364
Magnitude (Debye)      :      1.45807

Rotational constants in cm-1:     0.027926     0.020076     0.014951
Rotational constants in MHz :   837.215265   601.865855   448.221328

                             ****ORCA TERMINATED NORMALLY****
TOTAL RUN TIME: 0 days 0 hours 4 minutes 22 seconds 919 msec
