                         Program Version 5.0.3 -  RELEASE  -
|  1> ! EnGrad PBEh-3c
|  2> %output
|  3> xyzfile=True
|  4> end
|  5> %scf
|  6> maxiter 250
|  7> end
|  8> %output
|  9> Print[P_Hirshfeld] = 1
| 10> end
| 11> % maxcore
| 12> 4000
| 13> *xyz 0 1
| 14> C   -1.85938593   0.16567331  -0.21499345
| 15> C   -1.78534976  -0.72589164  -1.25958566
| 16> C   -1.14720063  -1.92483731  -1.10228474
| 17> C   -0.49775974  -2.24662476   0.05528288
| 18> C   -1.25988332  -0.19762385   1.00111820
| 19> C   -0.52781861  -1.38568185   1.12798991
| 20> H   -2.34993474   1.15049751  -0.29731076
| 21> H   -2.23913670  -0.42463789  -2.15376092
| 22> H   -1.15883191  -2.61706889  -1.88960941
| 23> H   -0.00103076  -1.58127618   2.07621308
| 24> H    0.03597157  -3.13689242   0.19775206
| 25> Pd   1.51641709   1.29855265   0.09159456
| 26> O    2.53681025   0.87043240  -1.60735343
| 27> O    2.62406293  -0.40908360   0.11901966
| 28> O    0.37211594   2.93229648  -0.05743432
| 29> C    0.14791196   2.94453627   1.17813137
| 30> O    0.65163899   2.03821394   1.89621121
| 31> H   -1.35682107   0.41623927   1.82428626
| 32> C    3.00433188  -0.15114335  -1.04872563
| 33> H    3.76662305  -0.76185933  -1.53679946
| 34> H   -0.47888153   3.74832253   1.60193503
| 35> *
| 36>
| 37>                          ****END OF INPUT****

CARTESIAN COORDINATES (ANGSTROEM)
---------------------------------
  C     -1.859386    0.165673   -0.214993
  C     -1.785350   -0.725892   -1.259586
  C     -1.147201   -1.924837   -1.102285
  C     -0.497760   -2.246625    0.055283
  C     -1.259883   -0.197624    1.001118
  C     -0.527819   -1.385682    1.127990
  H     -2.349935    1.150498   -0.297311
  H     -2.239137   -0.424638   -2.153761
  H     -1.158832   -2.617069   -1.889609
  H     -0.001031   -1.581276    2.076213
  H      0.035972   -3.136892    0.197752
  Pd     1.516417    1.298553    0.091595
  O      2.536810    0.870432   -1.607353
  O      2.624063   -0.409084    0.119020
  O      0.372116    2.932296   -0.057434
  C      0.147912    2.944536    1.178131
  O      0.651639    2.038214    1.896211
  H     -1.356821    0.416239    1.824286
  C      3.004332   -0.151143   -1.048726
  H      3.766623   -0.761859   -1.536799
  H     -0.478882    3.748323    1.601935

 Total Charge           Charge          ....    0
 Multiplicity           Mult            ....    1
 Number of Electrons    NEL             ....  106
 Basis Dimension        Dim             ....  227

ORBITAL ENERGIES
----------------

  NO   OCC          E(Eh)            E(eV)
   0   2.0000     -19.540565      -531.7258
   1   2.0000     -19.539861      -531.7066
   2   2.0000     -19.537674      -531.6472
   3   2.0000     -19.531441      -531.4775
   4   2.0000     -10.598147      -288.3903
   5   2.0000     -10.596984      -288.3586
   6   2.0000     -10.449244      -284.3384
   7   2.0000     -10.446905      -284.2747
   8   2.0000     -10.441795      -284.1357
   9   2.0000     -10.441005      -284.1142
  10   2.0000     -10.440395      -284.0976
  11   2.0000     -10.439781      -284.0809
  12   2.0000      -3.697031      -100.6013
  13   2.0000      -2.350697       -63.9657
  14   2.0000      -2.338836       -63.6430
  15   2.0000      -2.303705       -62.6870
  16   2.0000      -1.247609       -33.9492
  17   2.0000      -1.236747       -33.6536
  18   2.0000      -1.127809       -30.6892
  19   2.0000      -1.121489       -30.5173
  20   2.0000      -0.960606       -26.1394
  21   2.0000      -0.843134       -22.9429
  22   2.0000      -0.838849       -22.8262
  23   2.0000      -0.711059       -19.3489
  24   2.0000      -0.698169       -18.9981
  25   2.0000      -0.687392       -18.7049
  26   2.0000      -0.680127       -18.5072
  27   2.0000      -0.607045       -16.5185
  28   2.0000      -0.600278       -16.3344
  29   2.0000      -0.589222       -16.0335
  30   2.0000      -0.582574       -15.8527
  31   2.0000      -0.559156       -15.2154
  32   2.0000      -0.548314       -14.9204
  33   2.0000      -0.533636       -14.5210
  34   2.0000      -0.527679       -14.3589
  35   2.0000      -0.514033       -13.9875
  36   2.0000      -0.487146       -13.2559
  37   2.0000      -0.481975       -13.1152
  38   2.0000      -0.456565       -12.4238
  39   2.0000      -0.433649       -11.8002
  40   2.0000      -0.430743       -11.7211
  41   2.0000      -0.419488       -11.4148
  42   2.0000      -0.400528       -10.8989
  43   2.0000      -0.397069       -10.8048
  44   2.0000      -0.394620       -10.7382
  45   2.0000      -0.392376       -10.6771
  46   2.0000      -0.382370       -10.4048
  47   2.0000      -0.379598       -10.3294
  48   2.0000      -0.358508        -9.7555
  49   2.0000      -0.339331        -9.2337
  50   2.0000      -0.331406        -9.0180
  51   2.0000      -0.296449        -8.0668
  52   2.0000      -0.288686        -7.8556
  53   0.0000      -0.085322        -2.3217
  54   0.0000       0.009358         0.2546
  55   0.0000       0.017851         0.4858
  56   0.0000       0.021275         0.5789
  57   0.0000       0.024708         0.6723

MULLIKEN ATOMIC CHARGES
-----------------------
   0 C :   -0.223450
   1 C :   -0.214482
   2 C :   -0.220330
   3 C :   -0.215326
   4 C :   -0.260797
   5 C :   -0.219927
   6 H :    0.220345
   7 H :    0.223299
   8 H :    0.217158
   9 H :    0.231297
  10 H :    0.221952
  11 Pd:    0.535880
  12 O :   -0.453140
  13 O :   -0.456128
  14 O :   -0.456330
  15 C :    0.426237
  16 O :   -0.458826
  17 H :    0.241367
  18 C :    0.442050
  19 H :    0.211225
  20 H :    0.207927
Sum of atomic charges:   -0.0000000

LOEWDIN ATOMIC CHARGES
----------------------
   0 C :   -0.124965
   1 C :   -0.128135
   2 C :   -0.133084
   3 C :   -0.127339
   4 C :   -0.125102
   5 C :   -0.117040
   6 H :    0.141143
   7 H :    0.137834
   8 H :    0.136161
   9 H :    0.146508
  10 H :    0.137743
  11 Pd:   -0.128961
  12 O :   -0.128309
  13 O :   -0.134389
  14 O :   -0.128101
  15 C :    0.167700
  16 O :   -0.161802
  17 H :    0.142689
  18 C :    0.176338
  19 H :    0.126886
  20 H :    0.124224

  Mayer bond orders larger than 0.100000
B(  0-C ,  1-C ) :   1.4323 B(  0-C ,  4-C ) :   1.4175 B(  0-C ,  6-H ) :   0.9186
B(  1-C ,  2-C ) :   1.4279 B(  1-C ,  7-H ) :   0.9189 B(  2-C ,  3-C ) :   1.4307
B(  2-C ,  8-H ) :   0.9228 B(  3-C ,  5-C ) :   1.4258 B(  3-C , 10-H ) :   0.9197
B(  4-C ,  5-C ) :   1.4385 B(  4-C , 17-H ) :   0.9043 B(  5-C ,  9-H ) :   0.9151
B( 11-Pd, 12-O ) :   0.5945 B( 11-Pd, 13-O ) :   0.5739 B( 11-Pd, 14-O ) :   0.5961
B( 11-Pd, 16-O ) :   0.5202 B( 12-O , 13-O ) :   0.1131 B( 12-O , 18-C ) :   1.4469
B( 13-O , 18-C ) :   1.4556 B( 14-O , 15-C ) :   1.4324 B( 14-O , 16-O ) :   0.1113
B( 15-C , 16-O ) :   1.4900 B( 15-C , 20-H ) :   0.8889 B( 18-C , 19-H ) :   0.8916

Dispersion correction           -0.013143970
FINAL SINGLE POINT ENERGY      -737.138819523773
Dispersion correction            ... done

DIPOLE MOMENT
-------------
                                X             Y             Z
Electronic contribution:     59.33436      50.58085       3.56153
Nuclear contribution   :    -59.30584     -50.69362      -3.66970
                        -----------------------------------------
Total Dipole Moment    :      0.02852      -0.11276      -0.10816
                        -----------------------------------------
Magnitude (a.u.)       :      0.15884
Magnitude (Debye)      :      0.40373

Rotational constants in cm-1:     0.029028     0.018598     0.014286
Rotational constants in MHz :   870.247674   557.556439   428.273395

                             ****ORCA TERMINATED NORMALLY****
TOTAL RUN TIME: 0 days 0 hours 3 minutes 57 seconds 752 msec
