                         Program Version 5.0.3 -  RELEASE  -
|  1> ! EnGrad PBEh-3c
|  2> %output
|  3> xyzfile=True
|  4> end
|  5> %scf
|  6> maxiter 250
|  7> end
|  8> %output
|  9> Print[P_Hirshfeld] = 1
| 10> end
| 11> % maxcore
| 12> 4000
| 13> *xyz 0 1
| 14> C   -1.85548091   0.16504741  -0.22192907
| 15> C   -1.81311634  -0.73846910  -1.26398702
| 16> C   -1.18445668  -1.94380496  -1.09501483
| 17> C   -0.51657695  -2.26898550   0.05547168
| 18> C   -1.24354566  -0.20989150   0.97017187
| 19> C   -0.52330624  -1.38898059   1.11797417
| 20> H   -2.33502620   1.16172391  -0.28562345
| 21> H   -2.27829821  -0.42236542  -2.17077858
| 22> H   -1.20745012  -2.63272144  -1.86911118
| 23> H    0.00144598  -1.56805108   2.07555906
| 24> H    0.03053591  -3.17328899   0.20760414
| 25> Pd   1.53174587   1.31296040   0.09808662
| 26> O    2.54673561   0.89044601  -1.59296667
| 27> O    2.63619418  -0.40031724   0.12799064
| 28> O    0.38955443   2.94481835  -0.05981646
| 29> C    0.14864929   2.94044167   1.17383366
| 30> O    0.64546439   2.02186128   1.88732080
| 31> H   -1.30518890   0.44110555   1.80262293
| 32> C    3.01589457  -0.13284772  -1.03669330
| 33> H    3.78657118  -0.73080962  -1.52302987
| 34> H   -0.47729819   3.73831698   1.60319619
| 35> *
| 36>
| 37>                          ****END OF INPUT****

CARTESIAN COORDINATES (ANGSTROEM)
---------------------------------
  C     -1.855481    0.165047   -0.221929
  C     -1.813116   -0.738469   -1.263987
  C     -1.184457   -1.943805   -1.095015
  C     -0.516577   -2.268985    0.055472
  C     -1.243546   -0.209891    0.970172
  C     -0.523306   -1.388981    1.117974
  H     -2.335026    1.161724   -0.285623
  H     -2.278298   -0.422365   -2.170779
  H     -1.207450   -2.632721   -1.869111
  H      0.001446   -1.568051    2.075559
  H      0.030536   -3.173289    0.207604
  Pd     1.531746    1.312960    0.098087
  O      2.546736    0.890446   -1.592967
  O      2.636194   -0.400317    0.127991
  O      0.389554    2.944818   -0.059816
  C      0.148649    2.940442    1.173834
  O      0.645464    2.021861    1.887321
  H     -1.305189    0.441106    1.802623
  C      3.015895   -0.132848   -1.036693
  H      3.786571   -0.730810   -1.523030
  H     -0.477298    3.738317    1.603196

 Total Charge           Charge          ....    0
 Multiplicity           Mult            ....    1
 Number of Electrons    NEL             ....  106
 Basis Dimension        Dim             ....  227

ORBITAL ENERGIES
----------------

  NO   OCC          E(Eh)            E(eV)
   0   2.0000     -19.541389      -531.7482
   1   2.0000     -19.540997      -531.7376
   2   2.0000     -19.537786      -531.6502
   3   2.0000     -19.533210      -531.5257
   4   2.0000     -10.598684      -288.4049
   5   2.0000     -10.598167      -288.3908
   6   2.0000     -10.448638      -284.3219
   7   2.0000     -10.446194      -284.2554
   8   2.0000     -10.443883      -284.1925
   9   2.0000     -10.443217      -284.1744
  10   2.0000     -10.440593      -284.1030
  11   2.0000     -10.439657      -284.0775
  12   2.0000      -3.697195      -100.6058
  13   2.0000      -2.350971       -63.9732
  14   2.0000      -2.339131       -63.6510
  15   2.0000      -2.303823       -62.6902
  16   2.0000      -1.248114       -33.9629
  17   2.0000      -1.237215       -33.6663
  18   2.0000      -1.128705       -30.7136
  19   2.0000      -1.122331       -30.5402
  20   2.0000      -0.960873       -26.1467
  21   2.0000      -0.841950       -22.9106
  22   2.0000      -0.838494       -22.8166
  23   2.0000      -0.712069       -19.3764
  24   2.0000      -0.699648       -19.0384
  25   2.0000      -0.684218       -18.6185
  26   2.0000      -0.679789       -18.4980
  27   2.0000      -0.608275       -16.5520
  28   2.0000      -0.597878       -16.2691
  29   2.0000      -0.590126       -16.0582
  30   2.0000      -0.583640       -15.8816
  31   2.0000      -0.560117       -15.2416
  32   2.0000      -0.549264       -14.9462
  33   2.0000      -0.534198       -14.5363
  34   2.0000      -0.523228       -14.2378
  35   2.0000      -0.514612       -14.0033
  36   2.0000      -0.485736       -13.2176
  37   2.0000      -0.479337       -13.0434
  38   2.0000      -0.457051       -12.4370
  39   2.0000      -0.435331       -11.8460
  40   2.0000      -0.431101       -11.7309
  41   2.0000      -0.420325       -11.4376
  42   2.0000      -0.401829       -10.9343
  43   2.0000      -0.395549       -10.7634
  44   2.0000      -0.395000       -10.7485
  45   2.0000      -0.390292       -10.6204
  46   2.0000      -0.382893       -10.4190
  47   2.0000      -0.379818       -10.3354
  48   2.0000      -0.359109        -9.7719
  49   2.0000      -0.339118        -9.2279
  50   2.0000      -0.331573        -9.0226
  51   2.0000      -0.296003        -8.0546
  52   2.0000      -0.289198        -7.8695
  53   0.0000      -0.083249        -2.2653
  54   0.0000       0.008074         0.2197
  55   0.0000       0.018804         0.5117
  56   0.0000       0.020131         0.5478
  57   0.0000       0.024928         0.6783

MULLIKEN ATOMIC CHARGES
-----------------------
   0 C :   -0.215927
   1 C :   -0.223137
   2 C :   -0.215564
   3 C :   -0.224433
   4 C :   -0.260742
   5 C :   -0.212518
   6 H :    0.220652
   7 H :    0.221605
   8 H :    0.218492
   9 H :    0.232040
  10 H :    0.220619
  11 Pd:    0.533903
  12 O :   -0.454925
  13 O :   -0.455117
  14 O :   -0.456123
  15 C :    0.429226
  16 O :   -0.461377
  17 H :    0.239260
  18 C :    0.443651
  19 H :    0.210821
  20 H :    0.209593
Sum of atomic charges:    0.0000000

LOEWDIN ATOMIC CHARGES
----------------------
   0 C :   -0.127430
   1 C :   -0.126530
   2 C :   -0.135529
   3 C :   -0.125760
   4 C :   -0.126633
   5 C :   -0.119218
   6 H :    0.141377
   7 H :    0.138371
   8 H :    0.135930
   9 H :    0.147118
  10 H :    0.138377
  11 Pd:   -0.133280
  12 O :   -0.127594
  13 O :   -0.133986
  14 O :   -0.127279
  15 C :    0.171655
  16 O :   -0.161650
  17 H :    0.143236
  18 C :    0.176885
  19 H :    0.126700
  20 H :    0.125239

  Mayer bond orders larger than 0.100000
B(  0-C ,  1-C ) :   1.4251 B(  0-C ,  4-C ) :   1.4185 B(  0-C ,  6-H ) :   0.9182
B(  1-C ,  2-C ) :   1.4292 B(  1-C ,  7-H ) :   0.9201 B(  2-C ,  3-C ) :   1.4297
B(  2-C ,  8-H ) :   0.9225 B(  3-C ,  5-C ) :   1.4205 B(  3-C , 10-H ) :   0.9208
B(  4-C ,  5-C ) :   1.4379 B(  4-C , 17-H ) :   0.9027 B(  5-C ,  9-H ) :   0.9146
B( 11-Pd, 12-O ) :   0.5985 B( 11-Pd, 13-O ) :   0.5710 B( 11-Pd, 14-O ) :   0.5947
B( 11-Pd, 16-O ) :   0.5265 B( 12-O , 13-O ) :   0.1134 B( 12-O , 18-C ) :   1.4408
B( 13-O , 18-C ) :   1.4605 B( 14-O , 15-C ) :   1.4350 B( 14-O , 16-O ) :   0.1118
B( 15-C , 16-O ) :   1.4803 B( 15-C , 20-H ) :   0.8893 B( 18-C , 19-H ) :   0.8924

Dispersion correction           -0.013091327
FINAL SINGLE POINT ENERGY      -737.139897973554
Dispersion correction            ... done

DIPOLE MOMENT
-------------
                                X             Y             Z
Electronic contribution:     60.02909      51.28181       3.89118
Nuclear contribution   :    -59.98317     -51.35624      -3.98630
                        -----------------------------------------
Total Dipole Moment    :      0.04592      -0.07443      -0.09511
                        -----------------------------------------
Magnitude (a.u.)       :      0.12921
Magnitude (Debye)      :      0.32842

Rotational constants in cm-1:     0.029240     0.018320     0.014166
Rotational constants in MHz :   876.605497   549.218315   424.688598

                             ****ORCA TERMINATED NORMALLY****
TOTAL RUN TIME: 0 days 0 hours 4 minutes 15 seconds 414 msec
