                         Program Version 5.0.3 -  RELEASE  -
|  1> ! EnGrad PBEh-3c
|  2> %output
|  3> xyzfile=True
|  4> end
|  5> %scf
|  6> maxiter 250
|  7> end
|  8> %output
|  9> Print[P_Hirshfeld] = 1
| 10> end
| 11> % maxcore
| 12> 4000
| 13> *xyz 0 1
| 14> C   -1.84415034   0.16850705  -0.20352873
| 15> C   -1.82831481  -0.72675028  -1.26962130
| 16> C   -1.19615389  -1.95173851  -1.09420174
| 17> C   -0.51366639  -2.27967822   0.06957077
| 18> C   -1.24095047  -0.19585050   0.98180775
| 19> C   -0.52948013  -1.36947553   1.12155935
| 20> H   -2.32437122   1.14856387  -0.28994085
| 21> H   -2.30096997  -0.42979299  -2.20246680
| 22> H   -1.22547846  -2.66048349  -1.88763260
| 23> H   -0.00124785  -1.56824559   2.05844378
| 24> H    0.03451753  -3.21071599   0.20011987
| 25> Pd   1.52408326   1.31247161   0.10779068
| 26> O    2.55170424   0.89722781  -1.59311865
| 27> O    2.64033650  -0.39600976   0.13079204
| 28> O    0.39900380   2.95310737  -0.05954586
| 29> C    0.15045892   2.94069222   1.17824084
| 30> O    0.64403904   2.02515723   1.87777549
| 31> H   -1.29258998   0.46902167   1.82260047
| 32> C    3.03008680  -0.12263386  -1.03078685
| 33> H    3.79494736  -0.72653469  -1.52354259
| 34> H   -0.47858142   3.73291508   1.60520711
| 35> *
| 36>
| 37>                          ****END OF INPUT****

CARTESIAN COORDINATES (ANGSTROEM)
---------------------------------
  C     -1.844150    0.168507   -0.203529
  C     -1.828315   -0.726750   -1.269621
  C     -1.196154   -1.951739   -1.094202
  C     -0.513666   -2.279678    0.069571
  C     -1.240950   -0.195850    0.981808
  C     -0.529480   -1.369476    1.121559
  H     -2.324371    1.148564   -0.289941
  H     -2.300970   -0.429793   -2.202467
  H     -1.225478   -2.660483   -1.887633
  H     -0.001248   -1.568246    2.058444
  H      0.034518   -3.210716    0.200120
  Pd     1.524083    1.312472    0.107791
  O      2.551704    0.897228   -1.593119
  O      2.640337   -0.396010    0.130792
  O      0.399004    2.953107   -0.059546
  C      0.150459    2.940692    1.178241
  O      0.644039    2.025157    1.877775
  H     -1.292590    0.469022    1.822600
  C      3.030087   -0.122634   -1.030787
  H      3.794947   -0.726535   -1.523543
  H     -0.478581    3.732915    1.605207

 Total Charge           Charge          ....    0
 Multiplicity           Mult            ....    1
 Number of Electrons    NEL             ....  106
 Basis Dimension        Dim             ....  227

ORBITAL ENERGIES
----------------

  NO   OCC          E(Eh)            E(eV)
   0   2.0000     -19.540579      -531.7262
   1   2.0000     -19.539093      -531.6858
   2   2.0000     -19.536551      -531.6166
   3   2.0000     -19.535879      -531.5983
   4   2.0000     -10.598844      -288.4092
   5   2.0000     -10.597450      -288.3713
   6   2.0000     -10.449872      -284.3555
   7   2.0000     -10.449108      -284.3347
   8   2.0000     -10.448602      -284.3209
   9   2.0000     -10.446649      -284.2678
  10   2.0000     -10.446444      -284.2622
  11   2.0000     -10.442062      -284.1430
  12   2.0000      -3.696723      -100.5930
  13   2.0000      -2.350475       -63.9597
  14   2.0000      -2.338632       -63.6374
  15   2.0000      -2.303387       -62.6783
  16   2.0000      -1.246432       -33.9171
  17   2.0000      -1.238502       -33.7014
  18   2.0000      -1.127406       -30.6783
  19   2.0000      -1.123441       -30.5704
  20   2.0000      -0.957342       -26.0506
  21   2.0000      -0.838607       -22.8197
  22   2.0000      -0.837395       -22.7867
  23   2.0000      -0.711754       -19.3678
  24   2.0000      -0.699858       -19.0441
  25   2.0000      -0.680133       -18.5074
  26   2.0000      -0.679869       -18.5002
  27   2.0000      -0.607710       -16.5366
  28   2.0000      -0.594498       -16.1771
  29   2.0000      -0.589765       -16.0483
  30   2.0000      -0.583375       -15.8745
  31   2.0000      -0.560265       -15.2456
  32   2.0000      -0.548722       -14.9315
  33   2.0000      -0.534034       -14.5318
  34   2.0000      -0.522785       -14.2257
  35   2.0000      -0.511793       -13.9266
  36   2.0000      -0.484087       -13.1727
  37   2.0000      -0.478531       -13.0215
  38   2.0000      -0.457435       -12.4474
  39   2.0000      -0.434644       -11.8273
  40   2.0000      -0.429649       -11.6913
  41   2.0000      -0.419803       -11.4234
  42   2.0000      -0.403427       -10.9778
  43   2.0000      -0.396043       -10.7769
  44   2.0000      -0.394200       -10.7267
  45   2.0000      -0.390242       -10.6190
  46   2.0000      -0.383217       -10.4279
  47   2.0000      -0.378941       -10.3115
  48   2.0000      -0.358887        -9.7658
  49   2.0000      -0.338685        -9.2161
  50   2.0000      -0.331071        -9.0089
  51   2.0000      -0.294136        -8.0039
  52   2.0000      -0.290049        -7.8926
  53   0.0000      -0.082804        -2.2532
  54   0.0000       0.008203         0.2232
  55   0.0000       0.017499         0.4762
  56   0.0000       0.018563         0.5051
  57   0.0000       0.024829         0.6756

MULLIKEN ATOMIC CHARGES
-----------------------
   0 C :   -0.218429
   1 C :   -0.219634
   2 C :   -0.229563
   3 C :   -0.220420
   4 C :   -0.250543
   5 C :   -0.215358
   6 H :    0.220674
   7 H :    0.222894
   8 H :    0.217868
   9 H :    0.231850
  10 H :    0.221558
  11 Pd:    0.533317
  12 O :   -0.455820
  13 O :   -0.456795
  14 O :   -0.460372
  15 C :    0.430252
  16 O :   -0.455175
  17 H :    0.239782
  18 C :    0.443149
  19 H :    0.210907
  20 H :    0.209859
Sum of atomic charges:    0.0000000

LOEWDIN ATOMIC CHARGES
----------------------
   0 C :   -0.126049
   1 C :   -0.128105
   2 C :   -0.133053
   3 C :   -0.127219
   4 C :   -0.129738
   5 C :   -0.117698
   6 H :    0.140373
   7 H :    0.139651
   8 H :    0.134975
   9 H :    0.145923
  10 H :    0.139507
  11 Pd:   -0.135384
  12 O :   -0.132450
  13 O :   -0.136604
  14 O :   -0.131176
  15 C :    0.170084
  16 O :   -0.149301
  17 H :    0.146047
  18 C :    0.178204
  19 H :    0.126651
  20 H :    0.125365

  Mayer bond orders larger than 0.100000
B(  0-C ,  1-C ) :   1.4215 B(  0-C ,  4-C ) :   1.4179 B(  0-C ,  6-H ) :   0.9182
B(  1-C ,  2-C ) :   1.4258 B(  1-C ,  7-H ) :   0.9196 B(  2-C ,  3-C ) :   1.4248
B(  2-C ,  8-H ) :   0.9219 B(  3-C ,  5-C ) :   1.4193 B(  3-C , 10-H ) :   0.9204
B(  4-C ,  5-C ) :   1.4354 B(  4-C , 17-H ) :   0.9026 B(  5-C ,  9-H ) :   0.9145
B( 11-Pd, 12-O ) :   0.5953 B( 11-Pd, 13-O ) :   0.5683 B( 11-Pd, 14-O ) :   0.6024
B( 11-Pd, 16-O ) :   0.5251 B( 12-O , 13-O ) :   0.1134 B( 12-O , 18-C ) :   1.4417
B( 13-O , 18-C ) :   1.4604 B( 14-O , 15-C ) :   1.4234 B( 14-O , 16-O ) :   0.1116
B( 15-C , 16-O ) :   1.4904 B( 15-C , 20-H ) :   0.8901 B( 18-C , 19-H ) :   0.8915

Dispersion correction           -0.013071457
FINAL SINGLE POINT ENERGY      -737.145701661211
Dispersion correction            ... done

DIPOLE MOMENT
-------------
                                X             Y             Z
Electronic contribution:     59.62102      51.14301       4.31021
Nuclear contribution   :    -59.60100     -51.22067      -4.36188
                        -----------------------------------------
Total Dipole Moment    :      0.02003      -0.07766      -0.05167
                        -----------------------------------------
Magnitude (a.u.)       :      0.09540
Magnitude (Debye)      :      0.24249

Rotational constants in cm-1:     0.029209     0.018300     0.014152
Rotational constants in MHz :   875.670437   548.629688   424.270570

                             ****ORCA TERMINATED NORMALLY****
TOTAL RUN TIME: 0 days 0 hours 3 minutes 59 seconds 520 msec
