                         Program Version 5.0.3 -  RELEASE  -
|  1> ! EnGrad PBEh-3c
|  2> %output
|  3> xyzfile=True
|  4> end
|  5> %scf
|  6> maxiter 250
|  7> end
|  8> %output
|  9> Print[P_Hirshfeld] = 1
| 10> end
| 11> % maxcore
| 12> 4000
| 13> *xyz 0 1
| 14> C   -1.84257359   0.17325711  -0.19771440
| 15> C   -1.84265724  -0.71655826  -1.26272504
| 16> C   -1.21162018  -1.95876416  -1.09056471
| 17> C   -0.51744073  -2.28153602   0.08615314
| 18> C   -1.23276960  -0.18403263   0.98713449
| 19> C   -0.53145691  -1.36382366   1.12563067
| 20> H   -2.31073639   1.13969604  -0.29497829
| 21> H   -2.31640342  -0.44173654  -2.20843103
| 22> H   -1.25164146  -2.69064791  -1.90180834
| 23> H    0.00000409  -1.56658225   2.04040123
| 24> H    0.02228687  -3.22611092   0.19412572
| 25> Pd   1.52428009   1.31391645   0.11626470
| 26> O    2.56001928   0.90645738  -1.58942993
| 27> O    2.64148964  -0.39149603   0.13270473
| 28> O    0.40618632   2.95849933  -0.05578047
| 29> C    0.15109129   2.94132522   1.18092293
| 30> O    0.64117079   2.02588678   1.87096923
| 31> H   -1.26994197   0.47453065   1.80825582
| 32> C    3.04484840  -0.10998057  -1.02472798
| 33> H    3.80913520  -0.71856844  -1.52276334
| 34> H   -0.48009046   3.72856677   1.60486661
| 35> *
| 36>
| 37>                          ****END OF INPUT****

CARTESIAN COORDINATES (ANGSTROEM)
---------------------------------
  C     -1.842574    0.173257   -0.197714
  C     -1.842657   -0.716558   -1.262725
  C     -1.211620   -1.958764   -1.090565
  C     -0.517441   -2.281536    0.086153
  C     -1.232770   -0.184033    0.987134
  C     -0.531457   -1.363824    1.125631
  H     -2.310736    1.139696   -0.294978
  H     -2.316403   -0.441737   -2.208431
  H     -1.251641   -2.690648   -1.901808
  H      0.000004   -1.566582    2.040401
  H      0.022287   -3.226111    0.194126
  Pd     1.524280    1.313916    0.116265
  O      2.560019    0.906457   -1.589430
  O      2.641490   -0.391496    0.132705
  O      0.406186    2.958499   -0.055780
  C      0.151091    2.941325    1.180923
  O      0.641171    2.025887    1.870969
  H     -1.269942    0.474531    1.808256
  C      3.044848   -0.109981   -1.024728
  H      3.809135   -0.718568   -1.522763
  H     -0.480090    3.728567    1.604867

 Total Charge           Charge          ....    0
 Multiplicity           Mult            ....    1
 Number of Electrons    NEL             ....  106
 Basis Dimension        Dim             ....  227

ORBITAL ENERGIES
----------------

  NO   OCC          E(Eh)            E(eV)
   0   2.0000     -19.539984      -531.7100
   1   2.0000     -19.538573      -531.6716
   2   2.0000     -19.536960      -531.6277
   3   2.0000     -19.536032      -531.6025
   4   2.0000     -10.598410      -288.3974
   5   2.0000     -10.597738      -288.3791
   6   2.0000     -10.452128      -284.4169
   7   2.0000     -10.451219      -284.3921
   8   2.0000     -10.450508      -284.3728
   9   2.0000     -10.447133      -284.2809
  10   2.0000     -10.444853      -284.2189
  11   2.0000     -10.440776      -284.1080
  12   2.0000      -3.696590      -100.5893
  13   2.0000      -2.350364       -63.9567
  14   2.0000      -2.338484       -63.6334
  15   2.0000      -2.303273       -62.6752
  16   2.0000      -1.247772       -33.9536
  17   2.0000      -1.238818       -33.7099
  18   2.0000      -1.128272       -30.7019
  19   2.0000      -1.122836       -30.5539
  20   2.0000      -0.955532       -26.0013
  21   2.0000      -0.839222       -22.8364
  22   2.0000      -0.835112       -22.7246
  23   2.0000      -0.712060       -19.3761
  24   2.0000      -0.699731       -19.0407
  25   2.0000      -0.680192       -18.5090
  26   2.0000      -0.679478       -18.4895
  27   2.0000      -0.607974       -16.5438
  28   2.0000      -0.594401       -16.1745
  29   2.0000      -0.589812       -16.0496
  30   2.0000      -0.583875       -15.8881
  31   2.0000      -0.560525       -15.2527
  32   2.0000      -0.549387       -14.9496
  33   2.0000      -0.534113       -14.5340
  34   2.0000      -0.524549       -14.2737
  35   2.0000      -0.510079       -13.8800
  36   2.0000      -0.485811       -13.2196
  37   2.0000      -0.477417       -12.9912
  38   2.0000      -0.458076       -12.4649
  39   2.0000      -0.434371       -11.8198
  40   2.0000      -0.428783       -11.6678
  41   2.0000      -0.419734       -11.4215
  42   2.0000      -0.401762       -10.9325
  43   2.0000      -0.396867       -10.7993
  44   2.0000      -0.394708       -10.7406
  45   2.0000      -0.391571       -10.6552
  46   2.0000      -0.383720       -10.4416
  47   2.0000      -0.378399       -10.2968
  48   2.0000      -0.358820        -9.7640
  49   2.0000      -0.338518        -9.2115
  50   2.0000      -0.330725        -8.9995
  51   2.0000      -0.294901        -8.0247
  52   2.0000      -0.288227        -7.8431
  53   0.0000      -0.082361        -2.2412
  54   0.0000       0.008591         0.2338
  55   0.0000       0.016883         0.4594
  56   0.0000       0.018487         0.5031
  57   0.0000       0.024221         0.6591

MULLIKEN ATOMIC CHARGES
-----------------------
   0 C :   -0.216788
   1 C :   -0.219102
   2 C :   -0.236159
   3 C :   -0.219847
   4 C :   -0.250806
   5 C :   -0.213490
   6 H :    0.221008
   7 H :    0.222944
   8 H :    0.216276
   9 H :    0.232111
  10 H :    0.221700
  11 Pd:    0.533508
  12 O :   -0.455035
  13 O :   -0.458843
  14 O :   -0.461343
  15 C :    0.429998
  16 O :   -0.452574
  17 H :    0.242648
  18 C :    0.442656
  19 H :    0.211263
  20 H :    0.209873
Sum of atomic charges:   -0.0000000

LOEWDIN ATOMIC CHARGES
----------------------
   0 C :   -0.126144
   1 C :   -0.129233
   2 C :   -0.130940
   3 C :   -0.128001
   4 C :   -0.129646
   5 C :   -0.117809
   6 H :    0.140051
   7 H :    0.139616
   8 H :    0.134606
   9 H :    0.145405
  10 H :    0.139426
  11 Pd:   -0.135894
  12 O :   -0.133781
  13 O :   -0.138659
  14 O :   -0.131745
  15 C :    0.167354
  16 O :   -0.142549
  17 H :    0.146296
  18 C :    0.179322
  19 H :    0.127052
  20 H :    0.125272

  Mayer bond orders larger than 0.100000
B(  0-C ,  1-C ) :   1.4237 B(  0-C ,  4-C ) :   1.4187 B(  0-C ,  6-H ) :   0.9184
B(  1-C ,  2-C ) :   1.4225 B(  1-C ,  7-H ) :   0.9194 B(  2-C ,  3-C ) :   1.4210
B(  2-C ,  8-H ) :   0.9219 B(  3-C ,  5-C ) :   1.4222 B(  3-C , 10-H ) :   0.9200
B(  4-C ,  5-C ) :   1.4364 B(  4-C , 17-H ) :   0.9011 B(  5-C ,  9-H ) :   0.9146
B( 11-Pd, 12-O ) :   0.5924 B( 11-Pd, 13-O ) :   0.5687 B( 11-Pd, 14-O ) :   0.6051
B( 11-Pd, 16-O ) :   0.5256 B( 12-O , 13-O ) :   0.1132 B( 12-O , 18-C ) :   1.4441
B( 13-O , 18-C ) :   1.4568 B( 14-O , 15-C ) :   1.4206 B( 14-O , 16-O ) :   0.1112
B( 15-C , 16-O ) :   1.4941 B( 15-C , 20-H ) :   0.8909 B( 18-C , 19-H ) :   0.8906

Dispersion correction           -0.013063113
FINAL SINGLE POINT ENERGY      -737.145454021608
Dispersion correction            ... done

DIPOLE MOMENT
-------------
                                X             Y             Z
Electronic contribution:     59.61298      51.11550       4.63325
Nuclear contribution   :    -59.59308     -51.18461      -4.66400
                        -----------------------------------------
Total Dipole Moment    :      0.01990      -0.06911      -0.03074
                        -----------------------------------------
Magnitude (a.u.)       :      0.07821
Magnitude (Debye)      :      0.19880

Rotational constants in cm-1:     0.029237     0.018248     0.014123
Rotational constants in MHz :   876.499821   547.062448   423.387618

                             ****ORCA TERMINATED NORMALLY****
TOTAL RUN TIME: 0 days 0 hours 4 minutes 22 seconds 158 msec
