                         Program Version 5.0.3 -  RELEASE  -
|  1> ! EnGrad PBEh-3c
|  2> %output
|  3> xyzfile=True
|  4> end
|  5> %scf
|  6> maxiter 250
|  7> end
|  8> %output
|  9> Print[P_Hirshfeld] = 1
| 10> end
| 11> % maxcore
| 12> 4000
| 13> *xyz 0 1
| 14> C   -1.84023595   0.17286318  -0.19432336
| 15> C   -1.84343819  -0.71661483  -1.25268822
| 16> C   -1.21747350  -1.96726957  -1.09638270
| 17> C   -0.52535942  -2.27441141   0.09015095
| 18> C   -1.22532793  -0.18290489   0.98098671
| 19> C   -0.53542619  -1.36066703   1.12636014
| 20> H   -2.30417861   1.13246201  -0.30217334
| 21> H   -2.32375878  -0.45550266  -2.21168391
| 22> H   -1.26456713  -2.70660119  -1.91042798
| 23> H    0.00184610  -1.56913304   2.02866651
| 24> H    0.01138409  -3.23430391   0.18488714
| 25> Pd   1.52075840   1.31084105   0.11621368
| 26> O    2.56486246   0.90935622  -1.58693192
| 27> O    2.64526671  -0.38683977   0.13350447
| 28> O    0.41141530   2.96510356  -0.05280522
| 29> C    0.15141091   2.94880393   1.18131106
| 30> O    0.64221689   2.02676007   1.87029274
| 31> H   -1.26371010   0.49775063   1.83021189
| 32> C    3.05468434  -0.10316907  -1.02113101
| 33> H    3.81645759  -0.71726332  -1.52425567
| 34> H   -0.48324243   3.72629133   1.60723038
| 35> *
| 36>
| 37>                          ****END OF INPUT****

CARTESIAN COORDINATES (ANGSTROEM)
---------------------------------
  C     -1.840236    0.172863   -0.194323
  C     -1.843438   -0.716615   -1.252688
  C     -1.217474   -1.967270   -1.096383
  C     -0.525359   -2.274411    0.090151
  C     -1.225328   -0.182905    0.980987
  C     -0.535426   -1.360667    1.126360
  H     -2.304179    1.132462   -0.302173
  H     -2.323759   -0.455503   -2.211684
  H     -1.264567   -2.706601   -1.910428
  H      0.001846   -1.569133    2.028667
  H      0.011384   -3.234304    0.184887
  Pd     1.520758    1.310841    0.116214
  O      2.564862    0.909356   -1.586932
  O      2.645267   -0.386840    0.133504
  O      0.411415    2.965104   -0.052805
  C      0.151411    2.948804    1.181311
  O      0.642217    2.026760    1.870293
  H     -1.263710    0.497751    1.830212
  C      3.054684   -0.103169   -1.021131
  H      3.816458   -0.717263   -1.524256
  H     -0.483242    3.726291    1.607230

 Total Charge           Charge          ....    0
 Multiplicity           Mult            ....    1
 Number of Electrons    NEL             ....  106
 Basis Dimension        Dim             ....  227

ORBITAL ENERGIES
----------------

  NO   OCC          E(Eh)            E(eV)
   0   2.0000     -19.540238      -531.7169
   1   2.0000     -19.538424      -531.6676
   2   2.0000     -19.536058      -531.6032
   3   2.0000     -19.536013      -531.6019
   4   2.0000     -10.598217      -288.3921
   5   2.0000     -10.597961      -288.3852
   6   2.0000     -10.453171      -284.4452
   7   2.0000     -10.451898      -284.4106
   8   2.0000     -10.451165      -284.3907
   9   2.0000     -10.445728      -284.2427
  10   2.0000     -10.443797      -284.1902
  11   2.0000     -10.443104      -284.1713
  12   2.0000      -3.696436      -100.5851
  13   2.0000      -2.350144       -63.9507
  14   2.0000      -2.338325       -63.6291
  15   2.0000      -2.303131       -62.6714
  16   2.0000      -1.247126       -33.9360
  17   2.0000      -1.238791       -33.7092
  18   2.0000      -1.127079       -30.6694
  19   2.0000      -1.122523       -30.5454
  20   2.0000      -0.957080       -26.0435
  21   2.0000      -0.840114       -22.8607
  22   2.0000      -0.834378       -22.7046
  23   2.0000      -0.712544       -19.3893
  24   2.0000      -0.699721       -19.0404
  25   2.0000      -0.679341       -18.4858
  26   2.0000      -0.678566       -18.4647
  27   2.0000      -0.607524       -16.5316
  28   2.0000      -0.593508       -16.1502
  29   2.0000      -0.589589       -16.0435
  30   2.0000      -0.583620       -15.8811
  31   2.0000      -0.560201       -15.2439
  32   2.0000      -0.548948       -14.9376
  33   2.0000      -0.533943       -14.5293
  34   2.0000      -0.521181       -14.1821
  35   2.0000      -0.511138       -13.9088
  36   2.0000      -0.485611       -13.2142
  37   2.0000      -0.475766       -12.9463
  38   2.0000      -0.458596       -12.4790
  39   2.0000      -0.433853       -11.8057
  40   2.0000      -0.429565       -11.6891
  41   2.0000      -0.419873       -11.4253
  42   2.0000      -0.399589       -10.8734
  43   2.0000      -0.397322       -10.8117
  44   2.0000      -0.394923       -10.7464
  45   2.0000      -0.391226       -10.6458
  46   2.0000      -0.382963       -10.4210
  47   2.0000      -0.377649       -10.2763
  48   2.0000      -0.358622        -9.7586
  49   2.0000      -0.338313        -9.2060
  50   2.0000      -0.330582        -8.9956
  51   2.0000      -0.295780        -8.0486
  52   2.0000      -0.288486        -7.8501
  53   0.0000      -0.082347        -2.2408
  54   0.0000       0.008492         0.2311
  55   0.0000       0.016716         0.4549
  56   0.0000       0.019512         0.5310
  57   0.0000       0.024087         0.6554

MULLIKEN ATOMIC CHARGES
-----------------------
   0 C :   -0.204213
   1 C :   -0.227331
   2 C :   -0.230214
   3 C :   -0.228276
   4 C :   -0.262949
   5 C :   -0.201199
   6 H :    0.222238
   7 H :    0.220840
   8 H :    0.218111
   9 H :    0.233595
  10 H :    0.219642
  11 Pd:    0.534813
  12 O :   -0.454439
  13 O :   -0.458954
  14 O :   -0.459968
  15 C :    0.430302
  16 O :   -0.456184
  17 H :    0.240090
  18 C :    0.441643
  19 H :    0.211435
  20 H :    0.211017
Sum of atomic charges:   -0.0000000

LOEWDIN ATOMIC CHARGES
----------------------
   0 C :   -0.129518
   1 C :   -0.127205
   2 C :   -0.133161
   3 C :   -0.125872
   4 C :   -0.125916
   5 C :   -0.121277
   6 H :    0.140923
   7 H :    0.138540
   8 H :    0.135659
   9 H :    0.146310
  10 H :    0.138312
  11 Pd:   -0.136476
  12 O :   -0.133470
  13 O :   -0.138219
  14 O :   -0.130555
  15 C :    0.169066
  16 O :   -0.146666
  17 H :    0.147712
  18 C :    0.178762
  19 H :    0.127303
  20 H :    0.125745

  Mayer bond orders larger than 0.100000
B(  0-C ,  1-C ) :   1.4248 B(  0-C ,  4-C ) :   1.4142 B(  0-C ,  6-H ) :   0.9182
B(  1-C ,  2-C ) :   1.4221 B(  1-C ,  7-H ) :   0.9197 B(  2-C ,  3-C ) :   1.4206
B(  2-C ,  8-H ) :   0.9210 B(  3-C ,  5-C ) :   1.4233 B(  3-C , 10-H ) :   0.9203
B(  4-C ,  5-C ) :   1.4332 B(  4-C , 17-H ) :   0.9017 B(  5-C ,  9-H ) :   0.9142
B( 11-Pd, 12-O ) :   0.5910 B( 11-Pd, 13-O ) :   0.5700 B( 11-Pd, 14-O ) :   0.6016
B( 11-Pd, 16-O ) :   0.5281 B( 12-O , 13-O ) :   0.1130 B( 12-O , 18-C ) :   1.4456
B( 13-O , 18-C ) :   1.4552 B( 14-O , 15-C ) :   1.4259 B( 14-O , 16-O ) :   0.1112
B( 15-C , 16-O ) :   1.4880 B( 15-C , 20-H ) :   0.8909 B( 18-C , 19-H ) :   0.8900

Dispersion correction           -0.013056257
FINAL SINGLE POINT ENERGY      -737.145021848523
Dispersion correction            ... done

DIPOLE MOMENT
-------------
                                X             Y             Z
Electronic contribution:     59.41068      50.91449       4.59571
Nuclear contribution   :    -59.39882     -50.98495      -4.63616
                        -----------------------------------------
Total Dipole Moment    :      0.01186      -0.07046      -0.04046
                        -----------------------------------------
Magnitude (a.u.)       :      0.08211
Magnitude (Debye)      :      0.20870

Rotational constants in cm-1:     0.029264     0.018239     0.014109
Rotational constants in MHz :   877.311641   546.795719   422.978767

                             ****ORCA TERMINATED NORMALLY****
TOTAL RUN TIME: 0 days 0 hours 4 minutes 10 seconds 256 msec
