                         Program Version 5.0.3 -  RELEASE  -
|  1> ! EnGrad PBEh-3c
|  2> %output
|  3> xyzfile=True
|  4> end
|  5> %scf
|  6> maxiter 250
|  7> end
|  8> %output
|  9> Print[P_Hirshfeld] = 1
| 10> end
| 11> % maxcore
| 12> 4000
| 13> *xyz 0 1
| 14> C   -1.83740022   0.16889990  -0.19838521
| 15> C   -1.84313584  -0.72978273  -1.25172529
| 16> C   -1.22465789  -1.97834952  -1.10440465
| 17> C   -0.53764746  -2.27533038   0.08057142
| 18> C   -1.21739476  -0.16217936   0.99759697
| 19> C   -0.53792396  -1.36349040   1.12180735
| 20> H   -2.29916436   1.12896337  -0.31113240
| 21> H   -2.33105481  -0.47439404  -2.20927509
| 22> H   -1.28013001  -2.71855214  -1.91255914
| 23> H    0.00646610  -1.57333044   2.02014454
| 24> H   -0.00611418  -3.23879716   0.17343819
| 25> Pd   1.51577910   1.30818528   0.11263335
| 26> O    2.57116156   0.91254438  -1.58273333
| 27> O    2.65332603  -0.38049305   0.13552405
| 28> O    0.41853645   2.97606489  -0.04976463
| 29> C    0.15599410   2.95438815   1.18120700
| 30> O    0.64308108   2.02993235   1.87023479
| 31> H   -1.25657982   0.52150974   1.85167151
| 32> C    3.06638278  -0.09677193  -1.01804403
| 33> H    3.82426464  -0.71422764  -1.52466623
| 34> H   -0.48953009   3.72575493   1.61264284
| 35> *
| 36>
| 37>                          ****END OF INPUT****

CARTESIAN COORDINATES (ANGSTROEM)
---------------------------------
  C     -1.837400    0.168900   -0.198385
  C     -1.843136   -0.729783   -1.251725
  C     -1.224658   -1.978350   -1.104405
  C     -0.537647   -2.275330    0.080571
  C     -1.217395   -0.162179    0.997597
  C     -0.537924   -1.363490    1.121807
  H     -2.299164    1.128963   -0.311132
  H     -2.331055   -0.474394   -2.209275
  H     -1.280130   -2.718552   -1.912559
  H      0.006466   -1.573330    2.020145
  H     -0.006114   -3.238797    0.173438
  Pd     1.515779    1.308185    0.112633
  O      2.571162    0.912544   -1.582733
  O      2.653326   -0.380493    0.135524
  O      0.418536    2.976065   -0.049765
  C      0.155994    2.954388    1.181207
  O      0.643081    2.029932    1.870235
  H     -1.256580    0.521510    1.851672
  C      3.066383   -0.096772   -1.018044
  H      3.824265   -0.714228   -1.524666
  H     -0.489530    3.725755    1.612643

 Total Charge           Charge          ....    0
 Multiplicity           Mult            ....    1
 Number of Electrons    NEL             ....  106
 Basis Dimension        Dim             ....  227

ORBITAL ENERGIES
----------------

  NO   OCC          E(Eh)            E(eV)
   0   2.0000     -19.540060      -531.7121
   1   2.0000     -19.538585      -531.6719
   2   2.0000     -19.536108      -531.6045
   3   2.0000     -19.535140      -531.5782
   4   2.0000     -10.598134      -288.3899
   5   2.0000     -10.597833      -288.3817
   6   2.0000     -10.452515      -284.4274
   7   2.0000     -10.451732      -284.4061
   8   2.0000     -10.451025      -284.3868
   9   2.0000     -10.448175      -284.3093
  10   2.0000     -10.447386      -284.2878
  11   2.0000     -10.445240      -284.2294
  12   2.0000      -3.696396      -100.5840
  13   2.0000      -2.350037       -63.9478
  14   2.0000      -2.338315       -63.6288
  15   2.0000      -2.303072       -62.6698
  16   2.0000      -1.247243       -33.9392
  17   2.0000      -1.239200       -33.7204
  18   2.0000      -1.127031       -30.6681
  19   2.0000      -1.122494       -30.5446
  20   2.0000      -0.955282       -25.9945
  21   2.0000      -0.838005       -22.8033
  22   2.0000      -0.835346       -22.7309
  23   2.0000      -0.711619       -19.3641
  24   2.0000      -0.699324       -19.0296
  25   2.0000      -0.679140       -18.4803
  26   2.0000      -0.678426       -18.4609
  27   2.0000      -0.607219       -16.5233
  28   2.0000      -0.592736       -16.1292
  29   2.0000      -0.589428       -16.0392
  30   2.0000      -0.583519       -15.8784
  31   2.0000      -0.560142       -15.2422
  32   2.0000      -0.549024       -14.9397
  33   2.0000      -0.534347       -14.5403
  34   2.0000      -0.521551       -14.1921
  35   2.0000      -0.510330       -13.8868
  36   2.0000      -0.482612       -13.1325
  37   2.0000      -0.478724       -13.0267
  38   2.0000      -0.458331       -12.4718
  39   2.0000      -0.433418       -11.7939
  40   2.0000      -0.428817       -11.6687
  41   2.0000      -0.419779       -11.4228
  42   2.0000      -0.398910       -10.8549
  43   2.0000      -0.396590       -10.7918
  44   2.0000      -0.395876       -10.7723
  45   2.0000      -0.391804       -10.6615
  46   2.0000      -0.382963       -10.4210
  47   2.0000      -0.377563       -10.2740
  48   2.0000      -0.358619        -9.7585
  49   2.0000      -0.338345        -9.2068
  50   2.0000      -0.330880        -9.0037
  51   2.0000      -0.294837        -8.0229
  52   2.0000      -0.288730        -7.8567
  53   0.0000      -0.082765        -2.2522
  54   0.0000       0.009093         0.2474
  55   0.0000       0.015240         0.4147
  56   0.0000       0.019549         0.5320
  57   0.0000       0.023952         0.6518

MULLIKEN ATOMIC CHARGES
-----------------------
   0 C :   -0.209666
   1 C :   -0.224264
   2 C :   -0.226372
   3 C :   -0.225592
   4 C :   -0.265917
   5 C :   -0.206205
   6 H :    0.222019
   7 H :    0.220079
   8 H :    0.220278
   9 H :    0.233436
  10 H :    0.218830
  11 Pd:    0.536000
  12 O :   -0.453920
  13 O :   -0.458948
  14 O :   -0.457894
  15 C :    0.428408
  16 O :   -0.457128
  17 H :    0.244170
  18 C :    0.440691
  19 H :    0.212090
  20 H :    0.209906
Sum of atomic charges:    0.0000000

LOEWDIN ATOMIC CHARGES
----------------------
   0 C :   -0.128651
   1 C :   -0.128199
   2 C :   -0.133271
   3 C :   -0.126952
   4 C :   -0.125502
   5 C :   -0.120583
   6 H :    0.140459
   7 H :    0.138415
   8 H :    0.136524
   9 H :    0.145893
  10 H :    0.138133
  11 Pd:   -0.136410
  12 O :   -0.132387
  13 O :   -0.138052
  14 O :   -0.129423
  15 C :    0.167079
  16 O :   -0.148502
  17 H :    0.150123
  18 C :    0.178416
  19 H :    0.127679
  20 H :    0.125208

  Mayer bond orders larger than 0.100000
B(  0-C ,  1-C ) :   1.4274 B(  0-C ,  4-C ) :   1.4102 B(  0-C ,  6-H ) :   0.9183
B(  1-C ,  2-C ) :   1.4209 B(  1-C ,  7-H ) :   0.9201 B(  2-C ,  3-C ) :   1.4200
B(  2-C ,  8-H ) :   0.9198 B(  3-C ,  5-C ) :   1.4254 B(  3-C , 10-H ) :   0.9207
B(  4-C ,  5-C ) :   1.4302 B(  4-C , 17-H ) :   0.9001 B(  5-C ,  9-H ) :   0.9144
B( 11-Pd, 12-O ) :   0.5909 B( 11-Pd, 13-O ) :   0.5712 B( 11-Pd, 14-O ) :   0.5985
B( 11-Pd, 16-O ) :   0.5267 B( 12-O , 13-O ) :   0.1130 B( 12-O , 18-C ) :   1.4465
B( 13-O , 18-C ) :   1.4543 B( 14-O , 15-C ) :   1.4304 B( 14-O , 16-O ) :   0.1109
B( 15-C , 16-O ) :   1.4868 B( 15-C , 20-H ) :   0.8904 B( 18-C , 19-H ) :   0.8896

Dispersion correction           -0.013041501
FINAL SINGLE POINT ENERGY      -737.146103741610
Dispersion correction            ... done

DIPOLE MOMENT
-------------
                                X             Y             Z
Electronic contribution:     59.12466      50.71070       4.40742
Nuclear contribution   :    -59.11630     -50.80500      -4.46541
                        -----------------------------------------
Total Dipole Moment    :      0.00836      -0.09431      -0.05799
                        -----------------------------------------
Magnitude (a.u.)       :      0.11102
Magnitude (Debye)      :      0.28220

Rotational constants in cm-1:     0.029251     0.018199     0.014070
Rotational constants in MHz :   876.930171   545.583909   421.818705

                             ****ORCA TERMINATED NORMALLY****
TOTAL RUN TIME: 0 days 0 hours 3 minutes 35 seconds 510 msec
