                         Program Version 5.0.3 -  RELEASE  -
|  1> ! EnGrad PBEh-3c
|  2> %output
|  3> xyzfile=True
|  4> end
|  5> %scf
|  6> maxiter 250
|  7> end
|  8> %output
|  9> Print[P_Hirshfeld] = 1
| 10> end
| 11> % maxcore
| 12> 4000
| 13> *xyz 0 1
| 14> C   -1.83946197   0.17178145  -0.19543199
| 15> C   -1.84335567  -0.72020885  -1.25242540
| 16> C   -1.21943439  -1.97029371  -1.09857219
| 17> C   -0.52871329  -2.27466223   0.08753633
| 18> C   -1.22316267  -0.17724811   0.98552028
| 19> C   -0.53610793  -1.36143763   1.12511751
| 20> H   -2.30281003   1.13150710  -0.30461860
| 21> H   -2.32575014  -0.46065883  -2.21102646
| 22> H   -1.26881483  -2.70986306  -1.91100966
| 23> H    0.00310707  -1.57027866   2.02634054
| 24> H    0.00660815  -3.23553029   0.18176229
| 25> Pd   1.51939936   1.31011619   0.11523647
| 26> O    2.56658172   0.91022639  -1.58578596
| 27> O    2.64746640  -0.38510751   0.13405569
| 28> O    0.41335893   2.96809532  -0.05197533
| 29> C    0.15266183   2.95032807   1.18128266
| 30> O    0.64245276   2.02762591   1.87027692
| 31> H   -1.26176398   0.50423539   1.83606903
| 32> C    3.05787729  -0.10142305  -1.02028846
| 33> H    3.81858843  -0.71643477  -1.52436773
| 34> H   -0.48495857   3.72614493   1.60870764
| 35> *
| 36>
| 37>                          ****END OF INPUT****

CARTESIAN COORDINATES (ANGSTROEM)
---------------------------------
  C     -1.839462    0.171781   -0.195432
  C     -1.843356   -0.720209   -1.252425
  C     -1.219434   -1.970294   -1.098572
  C     -0.528713   -2.274662    0.087536
  C     -1.223163   -0.177248    0.985520
  C     -0.536108   -1.361438    1.125118
  H     -2.302810    1.131507   -0.304619
  H     -2.325750   -0.460659   -2.211026
  H     -1.268815   -2.709863   -1.911010
  H      0.003107   -1.570279    2.026341
  H      0.006608   -3.235530    0.181762
  Pd     1.519399    1.310116    0.115236
  O      2.566582    0.910226   -1.585786
  O      2.647466   -0.385108    0.134056
  O      0.413359    2.968095   -0.051975
  C      0.152662    2.950328    1.181283
  O      0.642453    2.027626    1.870277
  H     -1.261764    0.504235    1.836069
  C      3.057877   -0.101423   -1.020288
  H      3.818588   -0.716435   -1.524368
  H     -0.484959    3.726145    1.608708

 Total Charge           Charge          ....    0
 Multiplicity           Mult            ....    1
 Number of Electrons    NEL             ....  106
 Basis Dimension        Dim             ....  227

ORBITAL ENERGIES
----------------

  NO   OCC          E(Eh)            E(eV)
   0   2.0000     -19.540185      -531.7155
   1   2.0000     -19.538472      -531.6688
   2   2.0000     -19.536071      -531.6035
   3   2.0000     -19.535779      -531.5956
   4   2.0000     -10.598111      -288.3893
   5   2.0000     -10.598010      -288.3865
   6   2.0000     -10.452991      -284.4404
   7   2.0000     -10.451852      -284.4094
   8   2.0000     -10.451127      -284.3896
   9   2.0000     -10.446242      -284.2567
  10   2.0000     -10.444804      -284.2176
  11   2.0000     -10.443763      -284.1892
  12   2.0000      -3.696428      -100.5849
  13   2.0000      -2.350116       -63.9499
  14   2.0000      -2.338326       -63.6291
  15   2.0000      -2.303117       -62.6710
  16   2.0000      -1.247156       -33.9368
  17   2.0000      -1.238908       -33.7124
  18   2.0000      -1.127067       -30.6691
  19   2.0000      -1.122519       -30.5453
  20   2.0000      -0.956572       -26.0296
  21   2.0000      -0.839530       -22.8448
  22   2.0000      -0.834662       -22.7123
  23   2.0000      -0.712282       -19.3822
  24   2.0000      -0.699627       -19.0378
  25   2.0000      -0.679210       -18.4823
  26   2.0000      -0.678606       -18.4658
  27   2.0000      -0.607442       -16.5293
  28   2.0000      -0.593288       -16.1442
  29   2.0000      -0.589550       -16.0425
  30   2.0000      -0.583595       -15.8804
  31   2.0000      -0.560186       -15.2434
  32   2.0000      -0.548969       -14.9382
  33   2.0000      -0.534045       -14.5321
  34   2.0000      -0.521265       -14.1843
  35   2.0000      -0.510875       -13.9016
  36   2.0000      -0.484847       -13.1934
  37   2.0000      -0.476620       -12.9695
  38   2.0000      -0.458531       -12.4773
  39   2.0000      -0.433734       -11.8025
  40   2.0000      -0.429354       -11.6833
  41   2.0000      -0.419832       -11.4242
  42   2.0000      -0.398757       -10.8507
  43   2.0000      -0.397585       -10.8188
  44   2.0000      -0.395289       -10.7564
  45   2.0000      -0.391476       -10.6526
  46   2.0000      -0.382975       -10.4213
  47   2.0000      -0.377641       -10.2761
  48   2.0000      -0.358632        -9.7589
  49   2.0000      -0.338324        -9.2063
  50   2.0000      -0.330661        -8.9977
  51   2.0000      -0.295522        -8.0416
  52   2.0000      -0.288568        -7.8523
  53   0.0000      -0.082457        -2.2438
  54   0.0000       0.008666         0.2358
  55   0.0000       0.016351         0.4449
  56   0.0000       0.019525         0.5313
  57   0.0000       0.024033         0.6540

MULLIKEN ATOMIC CHARGES
-----------------------
   0 C :   -0.205680
   1 C :   -0.226486
   2 C :   -0.229198
   3 C :   -0.227548
   4 C :   -0.263784
   5 C :   -0.202556
   6 H :    0.222176
   7 H :    0.220631
   8 H :    0.218707
   9 H :    0.233559
  10 H :    0.219420
  11 Pd:    0.535106
  12 O :   -0.454298
  13 O :   -0.458952
  14 O :   -0.459399
  15 C :    0.429801
  16 O :   -0.456445
  17 H :    0.241220
  18 C :    0.441396
  19 H :    0.211614
  20 H :    0.210718
Sum of atomic charges:    0.0000000

LOEWDIN ATOMIC CHARGES
----------------------
   0 C :   -0.129272
   1 C :   -0.127483
   2 C :   -0.133190
   3 C :   -0.126178
   4 C :   -0.125791
   5 C :   -0.121084
   6 H :    0.140798
   7 H :    0.138508
   8 H :    0.135898
   9 H :    0.146199
  10 H :    0.138265
  11 Pd:   -0.136470
  12 O :   -0.133168
  13 O :   -0.138170
  14 O :   -0.130240
  15 C :    0.168525
  16 O :   -0.147165
  17 H :    0.148347
  18 C :    0.178666
  19 H :    0.127405
  20 H :    0.125600

  Mayer bond orders larger than 0.100000
B(  0-C ,  1-C ) :   1.4256 B(  0-C ,  4-C ) :   1.4131 B(  0-C ,  6-H ) :   0.9182
B(  1-C ,  2-C ) :   1.4217 B(  1-C ,  7-H ) :   0.9198 B(  2-C ,  3-C ) :   1.4204
B(  2-C ,  8-H ) :   0.9207 B(  3-C ,  5-C ) :   1.4239 B(  3-C , 10-H ) :   0.9205
B(  4-C ,  5-C ) :   1.4325 B(  4-C , 17-H ) :   0.9012 B(  5-C ,  9-H ) :   0.9143
B( 11-Pd, 12-O ) :   0.5910 B( 11-Pd, 13-O ) :   0.5703 B( 11-Pd, 14-O ) :   0.6008
B( 11-Pd, 16-O ) :   0.5278 B( 12-O , 13-O ) :   0.1130 B( 12-O , 18-C ) :   1.4458
B( 13-O , 18-C ) :   1.4549 B( 14-O , 15-C ) :   1.4272 B( 14-O , 16-O ) :   0.1111
B( 15-C , 16-O ) :   1.4876 B( 15-C , 20-H ) :   0.8908 B( 18-C , 19-H ) :   0.8899

Dispersion correction           -0.013052381
FINAL SINGLE POINT ENERGY      -737.145512578073
Dispersion correction            ... done

DIPOLE MOMENT
-------------
                                X             Y             Z
Electronic contribution:     59.33259      50.85887       4.54426
Nuclear contribution   :    -59.32171     -50.93584      -4.58956
                        -----------------------------------------
Total Dipole Moment    :      0.01088      -0.07696      -0.04530
                        -----------------------------------------
Magnitude (a.u.)       :      0.08996
Magnitude (Debye)      :      0.22867

Rotational constants in cm-1:     0.029261     0.018228     0.014099
Rotational constants in MHz :   877.210295   546.467865   422.663555

                             ****ORCA TERMINATED NORMALLY****
TOTAL RUN TIME: 0 days 0 hours 3 minutes 37 seconds 176 msec
