                         Program Version 5.0.3 -  RELEASE  -
|  1> ! EnGrad PBEh-3c
|  2> %output
|  3> xyzfile=True
|  4> end
|  5> %scf
|  6> maxiter 250
|  7> end
|  8> %output
|  9> Print[P_Hirshfeld] = 1
| 10> end
| 11> % maxcore
| 12> 4000
| 13> *xyz 0 1
| 14> C   -1.85067568   0.17107170  -0.19924387
| 15> C   -1.66441377  -0.67375891  -1.29900834
| 16> C   -0.97416560  -1.86246247  -1.16937550
| 17> C   -0.38831789  -2.19441560   0.03965263
| 18> C   -1.35684870  -0.12078063   1.18573871
| 19> C   -0.53229728  -1.36674358   1.16002910
| 20> H   -2.42134490   1.05786194  -0.32887394
| 21> H   -2.12525294  -0.41702581  -2.24055864
| 22> H   -0.91008454  -2.53569520  -1.99844037
| 23> H   -0.05227383  -1.63840267   2.07191297
| 24> H    0.14855307  -3.12053185   0.13952088
| 25> Pd   1.40752790   1.22820807   0.06914576
| 26> O    2.46452293   0.77030038  -1.68675435
| 27> O    2.60279648  -0.43484052   0.09778775
| 28> O    0.32371612   2.91693732  -0.09289513
| 29> C    0.16859138   2.94744758   1.24058718
| 30> O    0.67802748   2.13293021   1.88922767
| 31> H   -1.63806759   0.51190283   2.20072811
| 32> C    2.96149045  -0.24348738  -1.09569488
| 33> H    3.64539036  -0.91120174  -1.60222341
| 34> H   -0.48662974   3.77963466   1.61869349
| 35> *
| 36>
| 37>                          ****END OF INPUT****

CARTESIAN COORDINATES (ANGSTROEM)
---------------------------------
  C     -1.850676    0.171072   -0.199244
  C     -1.664414   -0.673759   -1.299008
  C     -0.974166   -1.862462   -1.169375
  C     -0.388318   -2.194416    0.039653
  C     -1.356849   -0.120781    1.185739
  C     -0.532297   -1.366744    1.160029
  H     -2.421345    1.057862   -0.328874
  H     -2.125253   -0.417026   -2.240559
  H     -0.910085   -2.535695   -1.998440
  H     -0.052274   -1.638403    2.071913
  H      0.148553   -3.120532    0.139521
  Pd     1.407528    1.228208    0.069146
  O      2.464523    0.770300   -1.686754
  O      2.602796   -0.434841    0.097788
  O      0.323716    2.916937   -0.092895
  C      0.168591    2.947448    1.240587
  O      0.678027    2.132930    1.889228
  H     -1.638068    0.511903    2.200728
  C      2.961490   -0.243487   -1.095695
  H      3.645390   -0.911202   -1.602223
  H     -0.486630    3.779635    1.618693

 Total Charge           Charge          ....    0
 Multiplicity           Mult            ....    1
 Number of Electrons    NEL             ....  106
 Basis Dimension        Dim             ....  227

ORBITAL ENERGIES
----------------

  NO   OCC          E(Eh)            E(eV)
   0   2.0000     -19.542042      -531.7660
   1   2.0000     -19.531929      -531.4908
   2   2.0000     -19.529405      -531.4221
   3   2.0000     -19.518810      -531.1338
   4   2.0000     -10.592788      -288.2444
   5   2.0000     -10.591355      -288.2054
   6   2.0000     -10.493492      -285.5424
   7   2.0000     -10.465789      -284.7886
   8   2.0000     -10.464910      -284.7647
   9   2.0000     -10.454285      -284.4756
  10   2.0000     -10.454062      -284.4695
  11   2.0000     -10.452545      -284.4282
  12   2.0000      -3.690863      -100.4335
  13   2.0000      -2.344282       -63.7912
  14   2.0000      -2.331564       -63.4451
  15   2.0000      -2.298573       -62.5473
  16   2.0000      -1.262036       -34.3417
  17   2.0000      -1.227879       -33.4123
  18   2.0000      -1.109996       -30.2045
  19   2.0000      -1.103160       -30.0185
  20   2.0000      -0.946289       -25.7498
  21   2.0000      -0.836632       -22.7659
  22   2.0000      -0.828245       -22.5377
  23   2.0000      -0.705564       -19.1994
  24   2.0000      -0.689732       -18.7685
  25   2.0000      -0.681592       -18.5471
  26   2.0000      -0.677055       -18.4236
  27   2.0000      -0.599570       -16.3151
  28   2.0000      -0.589755       -16.0480
  29   2.0000      -0.584885       -15.9155
  30   2.0000      -0.573311       -15.6006
  31   2.0000      -0.554027       -15.0758
  32   2.0000      -0.546696       -14.8764
  33   2.0000      -0.532335       -14.4856
  34   2.0000      -0.526225       -14.3193
  35   2.0000      -0.506063       -13.7707
  36   2.0000      -0.480300       -13.0696
  37   2.0000      -0.479834       -13.0569
  38   2.0000      -0.449295       -12.2259
  39   2.0000      -0.424352       -11.5472
  40   2.0000      -0.418348       -11.3838
  41   2.0000      -0.414459       -11.2780
  42   2.0000      -0.408389       -11.1128
  43   2.0000      -0.394272       -10.7287
  44   2.0000      -0.388497       -10.5716
  45   2.0000      -0.384109       -10.4521
  46   2.0000      -0.376217       -10.2374
  47   2.0000      -0.369406       -10.0520
  48   2.0000      -0.349731        -9.5167
  49   2.0000      -0.333072        -9.0633
  50   2.0000      -0.327555        -8.9132
  51   2.0000      -0.294673        -8.0185
  52   2.0000      -0.287165        -7.8141
  53   0.0000      -0.090691        -2.4678
  54   0.0000      -0.004448        -0.1210
  55   0.0000       0.011765         0.3202
  56   0.0000       0.018124         0.4932
  57   0.0000       0.032392         0.8814

MULLIKEN ATOMIC CHARGES
-----------------------
   0 C :   -0.242046
   1 C :   -0.194347
   2 C :   -0.228791
   3 C :   -0.193634
   4 C :   -0.269660
   5 C :   -0.242625
   6 H :    0.229213
   7 H :    0.228901
   8 H :    0.226960
   9 H :    0.233357
  10 H :    0.226068
  11 Pd:    0.546364
  12 O :   -0.459121
  13 O :   -0.462750
  14 O :   -0.511017
  15 C :    0.399966
  16 O :   -0.365430
  17 H :    0.236245
  18 C :    0.431065
  19 H :    0.214187
  20 H :    0.197096
Sum of atomic charges:    0.0000000

LOEWDIN ATOMIC CHARGES
----------------------
   0 C :   -0.114840
   1 C :   -0.133208
   2 C :   -0.124766
   3 C :   -0.133401
   4 C :   -0.127292
   5 C :   -0.113321
   6 H :    0.140336
   7 H :    0.143791
   8 H :    0.138374
   9 H :    0.142317
  10 H :    0.142497
  11 Pd:   -0.131940
  12 O :   -0.155031
  13 O :   -0.144562
  14 O :   -0.201158
  15 C :    0.147372
  16 O :   -0.065907
  17 H :    0.163097
  18 C :    0.181797
  19 H :    0.127144
  20 H :    0.118701

  Mayer bond orders larger than 0.100000
B(  0-C ,  1-C ) :   1.4370 B(  0-C ,  4-C ) :   1.3780 B(  0-C ,  6-H ) :   0.9164
B(  1-C ,  2-C ) :   1.4180 B(  1-C ,  7-H ) :   0.9167 B(  2-C ,  3-C ) :   1.4208
B(  2-C ,  4-C ) :   0.1077 B(  2-C ,  8-H ) :   0.9158 B(  3-C ,  5-C ) :   1.4328
B(  3-C , 10-H ) :   0.9180 B(  4-C ,  5-C ) :   1.3945 B(  4-C , 17-H ) :   0.9094
B(  5-C ,  9-H ) :   0.9151 B( 11-Pd, 12-O ) :   0.5770 B( 11-Pd, 13-O ) :   0.5562
B( 11-Pd, 14-O ) :   0.6800 B( 11-Pd, 16-O ) :   0.4225 B( 12-O , 13-O ) :   0.1129
B( 12-O , 18-C ) :   1.4594 B( 13-O , 18-C ) :   1.4575 B( 14-O , 15-C ) :   1.2779
B( 14-O , 16-O ) :   0.1049 B( 15-C , 16-O ) :   1.6876 B( 15-C , 20-H ) :   0.8839
B( 18-C , 19-H ) :   0.8881

Dispersion correction           -0.013238498
FINAL SINGLE POINT ENERGY      -737.092489677895
Dispersion correction            ... done

DIPOLE MOMENT
-------------
                                X             Y             Z
Electronic contribution:     54.10101      46.96931       2.98502
Nuclear contribution   :    -54.27839     -47.40339      -2.81574
                        -----------------------------------------
Total Dipole Moment    :     -0.17738      -0.43407       0.16928
                        -----------------------------------------
Magnitude (a.u.)       :      0.49854
Magnitude (Debye)      :      1.26718

Rotational constants in cm-1:     0.027751     0.019837     0.014796
Rotational constants in MHz :   831.952725   594.695672   443.558491

                             ****ORCA TERMINATED NORMALLY****
TOTAL RUN TIME: 0 days 0 hours 4 minutes 21 seconds 37 msec
