                         Program Version 5.0.3 -  RELEASE  -
|  1> ! EnGrad PBEh-3c
|  2> %output
|  3> xyzfile=True
|  4> end
|  5> %scf
|  6> maxiter 250
|  7> end
|  8> %output
|  9> Print[P_Hirshfeld] = 1
| 10> end
| 11> % maxcore
| 12> 4000
| 13> *xyz 0 1
| 14> C   -1.84805791   0.16439189  -0.19115839
| 15> C   -1.65488180  -0.66247612  -1.29450065
| 16> C   -0.95550577  -1.84746812  -1.16658686
| 17> C   -0.38153278  -2.18361361   0.04646244
| 18> C   -1.34674028  -0.18072698   1.10875120
| 19> C   -0.53869395  -1.36213908   1.15986576
| 20> H   -2.43452428   1.05300910  -0.32627166
| 21> H   -2.10948955  -0.41093719  -2.24195288
| 22> H   -0.87714784  -2.51858865  -2.00533906
| 23> H   -0.06183257  -1.64346276   2.08106560
| 24> H    0.16323917  -3.10988193   0.13861710
| 25> Pd   1.40634049   1.21491256   0.04085603
| 26> O    2.45385342   0.75782787  -1.68837884
| 27> O    2.61267369  -0.43699566   0.10206650
| 28> O    0.32018233   2.91784087  -0.07194252
| 29> C    0.15977862   2.97124536   1.20958288
| 30> O    0.68859076   2.12604821   1.90417889
| 31> H   -1.67603772   0.54868168   2.27649402
| 32> C    2.93360669  -0.25198647  -1.10032982
| 33> H    3.62841897  -0.92307425  -1.60422402
| 34> H   -0.48212363   3.77594955   1.62272580
| 35> *
| 36>
| 37>                          ****END OF INPUT****

CARTESIAN COORDINATES (ANGSTROEM)
---------------------------------
  C     -1.848058    0.164392   -0.191158
  C     -1.654882   -0.662476   -1.294501
  C     -0.955506   -1.847468   -1.166587
  C     -0.381533   -2.183614    0.046462
  C     -1.346740   -0.180727    1.108751
  C     -0.538694   -1.362139    1.159866
  H     -2.434524    1.053009   -0.326272
  H     -2.109490   -0.410937   -2.241953
  H     -0.877148   -2.518589   -2.005339
  H     -0.061833   -1.643463    2.081066
  H      0.163239   -3.109882    0.138617
  Pd     1.406340    1.214913    0.040856
  O      2.453853    0.757828   -1.688379
  O      2.612674   -0.436996    0.102066
  O      0.320182    2.917841   -0.071943
  C      0.159779    2.971245    1.209583
  O      0.688591    2.126048    1.904179
  H     -1.676038    0.548682    2.276494
  C      2.933607   -0.251986   -1.100330
  H      3.628419   -0.923074   -1.604224
  H     -0.482124    3.775950    1.622726

 Total Charge           Charge          ....    0
 Multiplicity           Mult            ....    1
 Number of Electrons    NEL             ....  106
 Basis Dimension        Dim             ....  227

ORBITAL ENERGIES
----------------

  NO   OCC          E(Eh)            E(eV)
   0   2.0000     -19.536506      -531.6154
   1   2.0000     -19.535710      -531.5937
   2   2.0000     -19.527957      -531.3827
   3   2.0000     -19.525734      -531.3222
   4   2.0000     -10.596107      -288.3347
   5   2.0000     -10.588313      -288.1226
   6   2.0000     -10.494482      -285.5694
   7   2.0000     -10.461002      -284.6583
   8   2.0000     -10.459784      -284.6252
   9   2.0000     -10.454336      -284.4770
  10   2.0000     -10.453931      -284.4659
  11   2.0000     -10.452244      -284.4200
  12   2.0000      -3.694098      -100.5215
  13   2.0000      -2.347270       -63.8725
  14   2.0000      -2.335115       -63.5417
  15   2.0000      -2.301351       -62.6229
  16   2.0000      -1.238899       -33.7122
  17   2.0000      -1.231850       -33.5204
  18   2.0000      -1.120093       -30.4793
  19   2.0000      -1.112319       -30.2677
  20   2.0000      -0.956103       -26.0169
  21   2.0000      -0.841749       -22.9051
  22   2.0000      -0.834314       -22.7028
  23   2.0000      -0.706599       -19.2275
  24   2.0000      -0.690018       -18.7764
  25   2.0000      -0.682127       -18.5616
  26   2.0000      -0.677071       -18.4240
  27   2.0000      -0.598554       -16.2875
  28   2.0000      -0.589730       -16.0474
  29   2.0000      -0.582040       -15.8381
  30   2.0000      -0.573593       -15.6083
  31   2.0000      -0.552196       -15.0260
  32   2.0000      -0.539508       -14.6808
  33   2.0000      -0.527454       -14.3528
  34   2.0000      -0.521537       -14.1917
  35   2.0000      -0.512451       -13.9445
  36   2.0000      -0.485643       -13.2150
  37   2.0000      -0.466457       -12.6929
  38   2.0000      -0.451146       -12.2763
  39   2.0000      -0.430887       -11.7250
  40   2.0000      -0.422512       -11.4971
  41   2.0000      -0.413594       -11.2545
  42   2.0000      -0.400163       -10.8890
  43   2.0000      -0.394642       -10.7388
  44   2.0000      -0.391133       -10.6433
  45   2.0000      -0.389154       -10.5894
  46   2.0000      -0.376424       -10.2430
  47   2.0000      -0.372846       -10.1457
  48   2.0000      -0.352060        -9.5800
  49   2.0000      -0.337098        -9.1729
  50   2.0000      -0.329420        -8.9640
  51   2.0000      -0.298143        -8.1129
  52   2.0000      -0.293251        -7.9798
  53   0.0000      -0.093744        -2.5509
  54   0.0000       0.004468         0.1216
  55   0.0000       0.011277         0.3069
  56   0.0000       0.017789         0.4841
  57   0.0000       0.030580         0.8321

MULLIKEN ATOMIC CHARGES
-----------------------
   0 C :   -0.235923
   1 C :   -0.203541
   2 C :   -0.230215
   3 C :   -0.203847
   4 C :   -0.227359
   5 C :   -0.234054
   6 H :    0.232644
   7 H :    0.228746
   8 H :    0.225540
   9 H :    0.238966
  10 H :    0.225851
  11 Pd:    0.546463
  12 O :   -0.454482
  13 O :   -0.457110
  14 O :   -0.484732
  15 C :    0.411779
  16 O :   -0.417698
  17 H :    0.192308
  18 C :    0.434278
  19 H :    0.212007
  20 H :    0.200377
Sum of atomic charges:   -0.0000000

LOEWDIN ATOMIC CHARGES
----------------------
   0 C :   -0.125149
   1 C :   -0.127811
   2 C :   -0.130227
   3 C :   -0.127929
   4 C :   -0.105189
   5 C :   -0.121325
   6 H :    0.144417
   7 H :    0.142711
   8 H :    0.138212
   9 H :    0.147452
  10 H :    0.141524
  11 Pd:   -0.124991
  12 O :   -0.141430
  13 O :   -0.138099
  14 O :   -0.167198
  15 C :    0.154747
  16 O :   -0.130059
  17 H :    0.146657
  18 C :    0.177822
  19 H :    0.126380
  20 H :    0.119486

  Mayer bond orders larger than 0.100000
B(  0-C ,  1-C ) :   1.4300 B(  0-C ,  4-C ) :   1.3897 B(  0-C ,  6-H ) :   0.9155
B(  1-C ,  2-C ) :   1.4227 B(  1-C ,  7-H ) :   0.9164 B(  2-C ,  3-C ) :   1.4244
B(  2-C ,  8-H ) :   0.9173 B(  3-C ,  5-C ) :   1.4269 B(  3-C , 10-H ) :   0.9178
B(  4-C ,  5-C ) :   1.4064 B(  4-C , 17-H ) :   0.9166 B(  5-C ,  9-H ) :   0.9133
B( 11-Pd, 12-O ) :   0.5804 B( 11-Pd, 13-O ) :   0.5699 B( 11-Pd, 14-O ) :   0.6322
B( 11-Pd, 16-O ) :   0.4599 B( 12-O , 13-O ) :   0.1129 B( 12-O , 18-C ) :   1.4608
B( 13-O , 18-C ) :   1.4530 B( 14-O , 15-C ) :   1.3592 B( 14-O , 16-O ) :   0.1084
B( 15-C , 16-O ) :   1.5970 B( 15-C , 20-H ) :   0.8864 B( 18-C , 19-H ) :   0.8891

Dispersion correction           -0.013438047
FINAL SINGLE POINT ENERGY      -737.095069649931
Dispersion correction            ... done

DIPOLE MOMENT
-------------
                                X             Y             Z
Electronic contribution:     54.03739      46.43713       1.51622
Nuclear contribution   :    -54.20454     -46.86721      -1.58961
                        -----------------------------------------
Total Dipole Moment    :     -0.16715      -0.43007      -0.07339
                        -----------------------------------------
Magnitude (a.u.)       :      0.46722
Magnitude (Debye)      :      1.18757

Rotational constants in cm-1:     0.027851     0.019966     0.014879
Rotational constants in MHz :   834.939263   598.552022   446.071212

                             ****ORCA TERMINATED NORMALLY****
TOTAL RUN TIME: 0 days 0 hours 4 minutes 11 seconds 427 msec
