                         Program Version 5.0.3 -  RELEASE  -
|  1> ! EnGrad PBEh-3c
|  2> %output
|  3> xyzfile=True
|  4> end
|  5> %scf
|  6> maxiter 250
|  7> end
|  8> %output
|  9> Print[P_Hirshfeld] = 1
| 10> end
| 11> % maxcore
| 12> 4000
| 13> *xyz 0 1
| 14> C   -1.84453204   0.16758288  -0.18305351
| 15> C   -1.66636362  -0.67265638  -1.29442335
| 16> C   -0.97693730  -1.86355242  -1.16739439
| 17> C   -0.39184362  -2.19118097   0.04222619
| 18> C   -1.35250363  -0.12951168   1.17148096
| 19> C   -0.54144547  -1.35247285   1.15986525
| 20> H   -2.42152532   1.06143259  -0.33149785
| 21> H   -2.12771292  -0.41797984  -2.24063729
| 22> H   -0.91491114  -2.53965814  -1.99908759
| 23> H   -0.04883621  -1.63991734   2.07270852
| 24> H    0.14693050  -3.12284159   0.13972003
| 25> Pd   1.40936292   1.22806904   0.06491463
| 26> O    2.46899008   0.76862395  -1.68281651
| 27> O    2.60408874  -0.43565447   0.09717945
| 28> O    0.32389865   2.91497157  -0.07571955
| 29> C    0.15661498   2.96779892   1.21063899
| 30> O    0.68726725   2.11623240   1.90585929
| 31> H   -1.63214140   0.50624027   2.18867047
| 32> C    2.95675081  -0.23498887  -1.09465921
| 33> H    3.64995304  -0.91035779  -1.60226843
| 34> H   -0.48507813   3.77693087   1.61831901
| 35> *
| 36>
| 37>                          ****END OF INPUT****

CARTESIAN COORDINATES (ANGSTROEM)
---------------------------------
  C     -1.844532    0.167583   -0.183054
  C     -1.666364   -0.672656   -1.294423
  C     -0.976937   -1.863552   -1.167394
  C     -0.391844   -2.191181    0.042226
  C     -1.352504   -0.129512    1.171481
  C     -0.541445   -1.352473    1.159865
  H     -2.421525    1.061433   -0.331498
  H     -2.127713   -0.417980   -2.240637
  H     -0.914911   -2.539658   -1.999088
  H     -0.048836   -1.639917    2.072709
  H      0.146930   -3.122842    0.139720
  Pd     1.409363    1.228069    0.064915
  O      2.468990    0.768624   -1.682817
  O      2.604089   -0.435654    0.097179
  O      0.323899    2.914972   -0.075720
  C      0.156615    2.967799    1.210639
  O      0.687267    2.116232    1.905859
  H     -1.632141    0.506240    2.188670
  C      2.956751   -0.234989   -1.094659
  H      3.649953   -0.910358   -1.602268
  H     -0.485078    3.776931    1.618319

 Total Charge           Charge          ....    0
 Multiplicity           Mult            ....    1
 Number of Electrons    NEL             ....  106
 Basis Dimension        Dim             ....  227

ORBITAL ENERGIES
----------------

  NO   OCC          E(Eh)            E(eV)
   0   2.0000     -19.532971      -531.5192
   1   2.0000     -19.532544      -531.5075
   2   2.0000     -19.531716      -531.4850
   3   2.0000     -19.529678      -531.4296
   4   2.0000     -10.593330      -288.2592
   5   2.0000     -10.593192      -288.2554
   6   2.0000     -10.488290      -285.4009
   7   2.0000     -10.464142      -284.7438
   8   2.0000     -10.462731      -284.7054
   9   2.0000     -10.454418      -284.4792
  10   2.0000     -10.453874      -284.4644
  11   2.0000     -10.451810      -284.4082
  12   2.0000      -3.693188      -100.4967
  13   2.0000      -2.346578       -63.8536
  14   2.0000      -2.333995       -63.5112
  15   2.0000      -2.300473       -62.5990
  16   2.0000      -1.237560       -33.6757
  17   2.0000      -1.231244       -33.5038
  18   2.0000      -1.116716       -30.3874
  19   2.0000      -1.113344       -30.2956
  20   2.0000      -0.947894       -25.7935
  21   2.0000      -0.834487       -22.7075
  22   2.0000      -0.832013       -22.6402
  23   2.0000      -0.704465       -19.1695
  24   2.0000      -0.692610       -18.8469
  25   2.0000      -0.679828       -18.4991
  26   2.0000      -0.677010       -18.4224
  27   2.0000      -0.597374       -16.2554
  28   2.0000      -0.588677       -16.0187
  29   2.0000      -0.582786       -15.8584
  30   2.0000      -0.572644       -15.5824
  31   2.0000      -0.552745       -15.0410
  32   2.0000      -0.538839       -14.6625
  33   2.0000      -0.529412       -14.4060
  34   2.0000      -0.525700       -14.3050
  35   2.0000      -0.506112       -13.7720
  36   2.0000      -0.481034       -13.0896
  37   2.0000      -0.477727       -12.9996
  38   2.0000      -0.451702       -12.2914
  39   2.0000      -0.425697       -11.5838
  40   2.0000      -0.420986       -11.4556
  41   2.0000      -0.414290       -11.2734
  42   2.0000      -0.405500       -11.0342
  43   2.0000      -0.395122       -10.7518
  44   2.0000      -0.391040       -10.6407
  45   2.0000      -0.388344       -10.5674
  46   2.0000      -0.377279       -10.2663
  47   2.0000      -0.372477       -10.1356
  48   2.0000      -0.352250        -9.5852
  49   2.0000      -0.336492        -9.1564
  50   2.0000      -0.328959        -8.9514
  51   2.0000      -0.293072        -7.9749
  52   2.0000      -0.289793        -7.8857
  53   0.0000      -0.092269        -2.5108
  54   0.0000       0.000349         0.0095
  55   0.0000       0.011176         0.3041
  56   0.0000       0.017871         0.4863
  57   0.0000       0.027561         0.7500

MULLIKEN ATOMIC CHARGES
-----------------------
   0 C :   -0.245268
   1 C :   -0.197203
   2 C :   -0.229486
   3 C :   -0.196087
   4 C :   -0.255660
   5 C :   -0.242342
   6 H :    0.226341
   7 H :    0.228233
   8 H :    0.226221
   9 H :    0.233005
  10 H :    0.225561
  11 Pd:    0.550102
  12 O :   -0.453027
  13 O :   -0.459969
  14 O :   -0.484316
  15 C :    0.416725
  16 O :   -0.422140
  17 H :    0.234121
  18 C :    0.430007
  19 H :    0.211072
  20 H :    0.204111
Sum of atomic charges:    0.0000000

LOEWDIN ATOMIC CHARGES
----------------------
   0 C :   -0.118488
   1 C :   -0.133119
   2 C :   -0.127275
   3 C :   -0.132514
   4 C :   -0.123349
   5 C :   -0.113799
   6 H :    0.139920
   7 H :    0.143117
   8 H :    0.137906
   9 H :    0.143215
  10 H :    0.142140
  11 Pd:   -0.125638
  12 O :   -0.145576
  13 O :   -0.142270
  14 O :   -0.164521
  15 C :    0.163863
  16 O :   -0.128688
  17 H :    0.162485
  18 C :    0.174580
  19 H :    0.125855
  20 H :    0.122156

  Mayer bond orders larger than 0.100000
B(  0-C ,  1-C ) :   1.4328 B(  0-C ,  4-C ) :   1.3809 B(  0-C ,  6-H ) :   0.9173
B(  1-C ,  2-C ) :   1.4199 B(  1-C ,  7-H ) :   0.9170 B(  2-C ,  3-C ) :   1.4230
B(  2-C ,  4-C ) :   0.1020 B(  2-C ,  8-H ) :   0.9159 B(  3-C ,  5-C ) :   1.4284
B(  3-C , 10-H ) :   0.9183 B(  4-C ,  5-C ) :   1.3989 B(  4-C , 17-H ) :   0.9113
B(  5-C ,  9-H ) :   0.9152 B( 11-Pd, 12-O ) :   0.5705 B( 11-Pd, 13-O ) :   0.5685
B( 11-Pd, 14-O ) :   0.6345 B( 11-Pd, 16-O ) :   0.4671 B( 12-O , 13-O ) :   0.1123
B( 12-O , 18-C ) :   1.4704 B( 13-O , 18-C ) :   1.4506 B( 14-O , 15-C ) :   1.3570
B( 14-O , 16-O ) :   0.1095 B( 15-C , 16-O ) :   1.5841 B( 15-C , 20-H ) :   0.8862
B( 18-C , 19-H ) :   0.8881

Dispersion correction           -0.013246722
FINAL SINGLE POINT ENERGY      -737.114512269143
Dispersion correction            ... done

DIPOLE MOMENT
-------------
                                X             Y             Z
Electronic contribution:     54.15662      47.06502       2.58150
Nuclear contribution   :    -54.35958     -47.39691      -2.56675
                        -----------------------------------------
Total Dipole Moment    :     -0.20296      -0.33189       0.01475
                        -----------------------------------------
Magnitude (a.u.)       :      0.38931
Magnitude (Debye)      :      0.98956

Rotational constants in cm-1:     0.027813     0.019848     0.014799
Rotational constants in MHz :   833.801495   595.022449   443.667959

                             ****ORCA TERMINATED NORMALLY****
TOTAL RUN TIME: 0 days 0 hours 4 minutes 25 seconds 387 msec
