                         Program Version 5.0.3 -  RELEASE  -
|  1> ! EnGrad PBEh-3c
|  2> %output
|  3> xyzfile=True
|  4> end
|  5> %scf
|  6> maxiter 250
|  7> end
|  8> %output
|  9> Print[P_Hirshfeld] = 1
| 10> end
| 11> % maxcore
| 12> 4000
| 13> *xyz 0 1
| 14> C   -1.83664078   0.17021796  -0.15489881
| 15> C   -1.68137535  -0.67961939  -1.28348515
| 16> C   -1.00343073  -1.88120856  -1.16534440
| 17> C   -0.40834628  -2.19164088   0.04511854
| 18> C   -1.34984355  -0.09787739   1.20417455
| 19> C   -0.55428315  -1.32628149   1.16388984
| 20> H   -2.40699282   1.07348551  -0.33943720
| 21> H   -2.14951302  -0.42592484  -2.23746788
| 22> H   -0.96071555  -2.56724950  -1.99370357
| 23> H   -0.03220613  -1.63728208   2.06355833
| 24> H    0.12731045  -3.13749408   0.14201784
| 25> Pd   1.41714401   1.24144129   0.08533150
| 26> O    2.48806780   0.78191742  -1.67386269
| 27> O    2.59661978  -0.43445481   0.09314834
| 28> O    0.32801849   2.91103280  -0.06502971
| 29> C    0.14859546   2.97259704   1.19381414
| 30> O    0.68784903   2.09907968   1.91406805
| 31> H   -1.57805898   0.45524820   2.08115697
| 32> C    2.97688188  -0.21159144  -1.08696154
| 33> H    3.67713742  -0.89393641  -1.59891830
| 34> H   -0.48666896   3.77543878   1.61301851
| 35> *
| 36>
| 37>                          ****END OF INPUT****

CARTESIAN COORDINATES (ANGSTROEM)
---------------------------------
  C     -1.836641    0.170218   -0.154899
  C     -1.681375   -0.679619   -1.283485
  C     -1.003431   -1.881209   -1.165344
  C     -0.408346   -2.191641    0.045119
  C     -1.349844   -0.097877    1.204175
  C     -0.554283   -1.326281    1.163890
  H     -2.406993    1.073486   -0.339437
  H     -2.149513   -0.425925   -2.237468
  H     -0.960716   -2.567249   -1.993704
  H     -0.032206   -1.637282    2.063558
  H      0.127310   -3.137494    0.142018
  Pd     1.417144    1.241441    0.085332
  O      2.488068    0.781917   -1.673863
  O      2.596620   -0.434455    0.093148
  O      0.328018    2.911033   -0.065030
  C      0.148595    2.972597    1.193814
  O      0.687849    2.099080    1.914068
  H     -1.578059    0.455248    2.081157
  C      2.976882   -0.211591   -1.086962
  H      3.677137   -0.893936   -1.598918
  H     -0.486669    3.775439    1.613019

 Total Charge           Charge          ....    0
 Multiplicity           Mult            ....    1
 Number of Electrons    NEL             ....  106
 Basis Dimension        Dim             ....  227

ORBITAL ENERGIES
----------------

  NO   OCC          E(Eh)            E(eV)
   0   2.0000     -19.538734      -531.6760
   1   2.0000     -19.532122      -531.4961
   2   2.0000     -19.530278      -531.4459
   3   2.0000     -19.529996      -531.4382
   4   2.0000     -10.597561      -288.3743
   5   2.0000     -10.591757      -288.2164
   6   2.0000     -10.473567      -285.0002
   7   2.0000     -10.465492      -284.7805
   8   2.0000     -10.463504      -284.7264
   9   2.0000     -10.455779      -284.5162
  10   2.0000     -10.454917      -284.4928
  11   2.0000     -10.451860      -284.4096
  12   2.0000      -3.694169      -100.5234
  13   2.0000      -2.347745       -63.8854
  14   2.0000      -2.334929       -63.5366
  15   2.0000      -2.301294       -62.6214
  16   2.0000      -1.237152       -33.6646
  17   2.0000      -1.230611       -33.4866
  18   2.0000      -1.119611       -30.4662
  19   2.0000      -1.114308       -30.3219
  20   2.0000      -0.944749       -25.7079
  21   2.0000      -0.837682       -22.7945
  22   2.0000      -0.827196       -22.5092
  23   2.0000      -0.704919       -19.1818
  24   2.0000      -0.693391       -18.8681
  25   2.0000      -0.686076       -18.6691
  26   2.0000      -0.674150       -18.3446
  27   2.0000      -0.598906       -16.2970
  28   2.0000      -0.590195       -16.0600
  29   2.0000      -0.583109       -15.8672
  30   2.0000      -0.573922       -15.6172
  31   2.0000      -0.552882       -15.0447
  32   2.0000      -0.541316       -14.7300
  33   2.0000      -0.537883       -14.6365
  34   2.0000      -0.526616       -14.3300
  35   2.0000      -0.502659       -13.6781
  36   2.0000      -0.493517       -13.4293
  37   2.0000      -0.469274       -12.7696
  38   2.0000      -0.452904       -12.3242
  39   2.0000      -0.425179       -11.5697
  40   2.0000      -0.421864       -11.4795
  41   2.0000      -0.415776       -11.3139
  42   2.0000      -0.407752       -11.0955
  43   2.0000      -0.395749       -10.7689
  44   2.0000      -0.389618       -10.6020
  45   2.0000      -0.386970       -10.5300
  46   2.0000      -0.378158       -10.2902
  47   2.0000      -0.372853       -10.1459
  48   2.0000      -0.353506        -9.6194
  49   2.0000      -0.337643        -9.1877
  50   2.0000      -0.329634        -8.9698
  51   2.0000      -0.291045        -7.9197
  52   2.0000      -0.287837        -7.8324
  53   0.0000      -0.092176        -2.5082
  54   0.0000       0.000684         0.0186
  55   0.0000       0.009676         0.2633
  56   0.0000       0.015440         0.4202
  57   0.0000       0.027492         0.7481

MULLIKEN ATOMIC CHARGES
-----------------------
   0 C :   -0.259716
   1 C :   -0.199373
   2 C :   -0.225686
   3 C :   -0.197134
   4 C :   -0.232504
   5 C :   -0.253625
   6 H :    0.219970
   7 H :    0.227125
   8 H :    0.227007
   9 H :    0.228486
  10 H :    0.224603
  11 Pd:    0.551385
  12 O :   -0.447888
  13 O :   -0.461180
  14 O :   -0.464846
  15 C :    0.423710
  16 O :   -0.449450
  17 H :    0.245734
  18 C :    0.425867
  19 H :    0.208739
  20 H :    0.208775
Sum of atomic charges:   -0.0000000

LOEWDIN ATOMIC CHARGES
----------------------
   0 C :   -0.114611
   1 C :   -0.135839
   2 C :   -0.127879
   3 C :   -0.134018
   4 C :   -0.124482
   5 C :   -0.107250
   6 H :    0.137210
   7 H :    0.142646
   8 H :    0.137851
   9 H :    0.141511
  10 H :    0.142020
  11 Pd:   -0.123488
  12 O :   -0.143509
  13 O :   -0.145036
  14 O :   -0.137718
  15 C :    0.172661
  16 O :   -0.154933
  17 H :    0.156276
  18 C :    0.168618
  19 H :    0.124927
  20 H :    0.125045

  Mayer bond orders larger than 0.100000
B(  0-C ,  1-C ) :   1.4290 B(  0-C ,  4-C ) :   1.3856 B(  0-C ,  6-H ) :   0.9192
B(  1-C ,  2-C ) :   1.4196 B(  1-C ,  7-H ) :   0.9177 B(  2-C ,  3-C ) :   1.4242
B(  2-C ,  8-H ) :   0.9147 B(  3-C ,  5-C ) :   1.4232 B(  3-C , 10-H ) :   0.9190
B(  4-C ,  5-C ) :   1.4055 B(  4-C , 17-H ) :   0.9113 B(  5-C ,  9-H ) :   0.9167
B( 11-Pd, 12-O ) :   0.5586 B( 11-Pd, 13-O ) :   0.5741 B( 11-Pd, 14-O ) :   0.6120
B( 11-Pd, 16-O ) :   0.5003 B( 12-O , 13-O ) :   0.1114 B( 12-O , 18-C ) :   1.4842
B( 13-O , 18-C ) :   1.4436 B( 14-O , 15-C ) :   1.4028 B( 14-O , 16-O ) :   0.1111
B( 15-C , 16-O ) :   1.5217 B( 15-C , 20-H ) :   0.8869 B( 18-C , 19-H ) :   0.8871

Dispersion correction           -0.013231802
FINAL SINGLE POINT ENERGY      -737.123132988548
Dispersion correction            ... done

DIPOLE MOMENT
-------------
                                X             Y             Z
Electronic contribution:     54.51956      47.71324       3.29485
Nuclear contribution   :    -54.73958     -47.92176      -3.32427
                        -----------------------------------------
Total Dipole Moment    :     -0.22002      -0.20852      -0.02942
                        -----------------------------------------
Magnitude (a.u.)       :      0.30455
Magnitude (Debye)      :      0.77412

Rotational constants in cm-1:     0.027886     0.019734     0.014721
Rotational constants in MHz :   836.007957   591.598074   441.332982

                             ****ORCA TERMINATED NORMALLY****
TOTAL RUN TIME: 0 days 0 hours 3 minutes 59 seconds 527 msec
