                         Program Version 5.0.3 -  RELEASE  -
|  1> ! EnGrad PBEh-3c
|  2> %output
|  3> xyzfile=True
|  4> end
|  5> %scf
|  6> maxiter 250
|  7> end
|  8> %output
|  9> Print[P_Hirshfeld] = 1
| 10> end
| 11> % maxcore
| 12> 4000
| 13> *xyz 0 1
| 14> C   -1.83123637   0.17233181  -0.12174195
| 15> C   -1.69304738  -0.67760932  -1.26312056
| 16> C   -1.02189712  -1.88972377  -1.15975349
| 17> C   -0.42334756  -2.18234428   0.05734083
| 18> C   -1.33347135  -0.12349930   1.15843566
| 19> C   -0.57014047  -1.29911582   1.17203527
| 20> H   -2.39769822   1.08200697  -0.34364589
| 21> H   -2.16240582  -0.42958920  -2.23045297
| 22> H   -0.99054719  -2.58692190  -1.99195792
| 23> H   -0.02264961  -1.63534905   2.05802033
| 24> H    0.11368287  -3.14252916   0.14566477
| 25> Pd   1.42872957   1.24880092   0.09171623
| 26> O    2.49857606   0.79310715  -1.66675211
| 27> O    2.59440428  -0.43299242   0.09393066
| 28> O    0.33074808   2.90926992  -0.04949991
| 29> C    0.14376386   2.97582940   1.17746684
| 30> O    0.68594625   2.08829294   1.91695460
| 31> H   -1.54386696   0.43142563   2.02238531
| 32> C    2.98366708  -0.19712755  -1.08085283
| 33> H    3.69484995  -0.88045326  -1.59458935
| 34> H   -0.48522725   3.77178258   1.60894547
| 35> *
| 36>
| 37>                          ****END OF INPUT****

CARTESIAN COORDINATES (ANGSTROEM)
---------------------------------
  C     -1.831236    0.172332   -0.121742
  C     -1.693047   -0.677609   -1.263121
  C     -1.021897   -1.889724   -1.159753
  C     -0.423348   -2.182344    0.057341
  C     -1.333471   -0.123499    1.158436
  C     -0.570140   -1.299116    1.172035
  H     -2.397698    1.082007   -0.343646
  H     -2.162406   -0.429589   -2.230453
  H     -0.990547   -2.586922   -1.991958
  H     -0.022650   -1.635349    2.058020
  H      0.113683   -3.142529    0.145665
  Pd     1.428730    1.248801    0.091716
  O      2.498576    0.793107   -1.666752
  O      2.594404   -0.432992    0.093931
  O      0.330748    2.909270   -0.049500
  C      0.143764    2.975829    1.177467
  O      0.685946    2.088293    1.916955
  H     -1.543867    0.431426    2.022385
  C      2.983667   -0.197128   -1.080853
  H      3.694850   -0.880453   -1.594589
  H     -0.485227    3.771783    1.608945

 Total Charge           Charge          ....    0
 Multiplicity           Mult            ....    1
 Number of Electrons    NEL             ....  106
 Basis Dimension        Dim             ....  227

ORBITAL ENERGIES
----------------

  NO   OCC          E(Eh)            E(eV)
   0   2.0000     -19.544085      -531.8216
   1   2.0000     -19.531869      -531.4892
   2   2.0000     -19.530842      -531.4612
   3   2.0000     -19.528269      -531.3912
   4   2.0000     -10.597371      -288.3691
   5   2.0000     -10.592948      -288.2488
   6   2.0000     -10.459875      -284.6277
   7   2.0000     -10.458412      -284.5879
   8   2.0000     -10.457308      -284.5578
   9   2.0000     -10.456035      -284.5232
  10   2.0000     -10.454989      -284.4947
  11   2.0000     -10.451532      -284.4006
  12   2.0000      -3.695736      -100.5661
  13   2.0000      -2.349345       -63.9289
  14   2.0000      -2.336605       -63.5823
  15   2.0000      -2.302741       -62.6608
  16   2.0000      -1.242425       -33.8081
  17   2.0000      -1.234457       -33.5913
  18   2.0000      -1.119775       -30.4706
  19   2.0000      -1.116456       -30.3803
  20   2.0000      -0.950788       -25.8723
  21   2.0000      -0.846357       -23.0305
  22   2.0000      -0.824841       -22.4451
  23   2.0000      -0.706723       -19.2309
  24   2.0000      -0.692969       -18.8566
  25   2.0000      -0.683089       -18.5878
  26   2.0000      -0.676802       -18.4167
  27   2.0000      -0.601664       -16.3721
  28   2.0000      -0.591421       -16.0934
  29   2.0000      -0.585106       -15.9216
  30   2.0000      -0.576328       -15.6827
  31   2.0000      -0.554465       -15.0878
  32   2.0000      -0.543331       -14.7848
  33   2.0000      -0.532424       -14.4880
  34   2.0000      -0.528867       -14.3912
  35   2.0000      -0.507736       -13.8162
  36   2.0000      -0.495864       -13.4932
  37   2.0000      -0.465234       -12.6597
  38   2.0000      -0.453146       -12.3307
  39   2.0000      -0.428582       -11.6623
  40   2.0000      -0.423526       -11.5247
  41   2.0000      -0.414484       -11.2787
  42   2.0000      -0.402879       -10.9629
  43   2.0000      -0.395342       -10.7578
  44   2.0000      -0.392994       -10.6939
  45   2.0000      -0.391421       -10.6511
  46   2.0000      -0.378850       -10.3090
  47   2.0000      -0.374780       -10.1983
  48   2.0000      -0.354804        -9.6547
  49   2.0000      -0.339038        -9.2257
  50   2.0000      -0.330470        -8.9925
  51   2.0000      -0.297157        -8.0860
  52   2.0000      -0.285445        -7.7674
  53   0.0000      -0.092676        -2.5218
  54   0.0000       0.007846         0.2135
  55   0.0000       0.011226         0.3055
  56   0.0000       0.015734         0.4281
  57   0.0000       0.028277         0.7695

MULLIKEN ATOMIC CHARGES
-----------------------
   0 C :   -0.254546
   1 C :   -0.211315
   2 C :   -0.223037
   3 C :   -0.209232
   4 C :   -0.215869
   5 C :   -0.247031
   6 H :    0.219263
   7 H :    0.224397
   8 H :    0.226496
   9 H :    0.229570
  10 H :    0.221830
  11 Pd:    0.547873
  12 O :   -0.444966
  13 O :   -0.460431
  14 O :   -0.443907
  15 C :    0.423334
  16 O :   -0.467709
  17 H :    0.242223
  18 C :    0.426190
  19 H :    0.207643
  20 H :    0.209226
Sum of atomic charges:    0.0000000

LOEWDIN ATOMIC CHARGES
----------------------
   0 C :   -0.119328
   1 C :   -0.131500
   2 C :   -0.133361
   3 C :   -0.128954
   4 C :   -0.125347
   5 C :   -0.110383
   6 H :    0.139327
   7 H :    0.140377
   8 H :    0.137987
   9 H :    0.144375
  10 H :    0.139933
  11 Pd:   -0.121394
  12 O :   -0.139753
  13 O :   -0.144162
  14 O :   -0.111927
  15 C :    0.169274
  16 O :   -0.175089
  17 H :    0.153184
  18 C :    0.166847
  19 H :    0.124720
  20 H :    0.125172

  Mayer bond orders larger than 0.100000
B(  0-C ,  1-C ) :   1.4239 B(  0-C ,  4-C ) :   1.3945 B(  0-C ,  6-H ) :   0.9198
B(  1-C ,  2-C ) :   1.4235 B(  1-C ,  7-H ) :   0.9185 B(  2-C ,  3-C ) :   1.4276
B(  2-C ,  8-H ) :   0.9150 B(  3-C ,  5-C ) :   1.4185 B(  3-C , 10-H ) :   0.9199
B(  4-C ,  5-C ) :   1.4163 B(  4-C , 17-H ) :   0.9134 B(  5-C ,  9-H ) :   0.9165
B( 11-Pd, 12-O ) :   0.5559 B( 11-Pd, 13-O ) :   0.5798 B( 11-Pd, 14-O ) :   0.5903
B( 11-Pd, 16-O ) :   0.5285 B( 12-O , 13-O ) :   0.1111 B( 12-O , 18-C ) :   1.4880
B( 13-O , 18-C ) :   1.4391 B( 14-O , 15-C ) :   1.4495 B( 14-O , 16-O ) :   0.1106
B( 15-C , 16-O ) :   1.4755 B( 15-C , 20-H ) :   0.8880 B( 18-C , 19-H ) :   0.8867

Dispersion correction           -0.013244070
FINAL SINGLE POINT ENERGY      -737.132126218941
Dispersion correction            ... done

DIPOLE MOMENT
-------------
                                X             Y             Z
Electronic contribution:     55.09609      48.07395       3.40855
Nuclear contribution   :    -55.29114     -48.21705      -3.51606
                        -----------------------------------------
Total Dipole Moment    :     -0.19505      -0.14310      -0.10750
                        -----------------------------------------
Magnitude (a.u.)       :      0.26472
Magnitude (Debye)      :      0.67287

Rotational constants in cm-1:     0.028116     0.019669     0.014693
Rotational constants in MHz :   842.898640   589.667027   440.488715

                             ****ORCA TERMINATED NORMALLY****
TOTAL RUN TIME: 0 days 0 hours 4 minutes 10 seconds 459 msec
