                         Program Version 5.0.3 -  RELEASE  -
|  1> ! EnGrad PBEh-3c
|  2> %output
|  3> xyzfile=True
|  4> end
|  5> %scf
|  6> maxiter 250
|  7> end
|  8> %output
|  9> Print[P_Hirshfeld] = 1
| 10> end
| 11> % maxcore
| 12> 4000
| 13> *xyz 0 1
| 14> C   -1.83287056   0.17565996  -0.11373254
| 15> C   -1.70582224  -0.67543328  -1.24421742
| 16> C   -1.04119881  -1.89610027  -1.15208907
| 17> C   -0.43751971  -2.17571274   0.07015995
| 18> C   -1.31932895  -0.14357851   1.12067532
| 19> C   -0.57291713  -1.29420933   1.17525891
| 20> H   -2.38634621   1.08804034  -0.34359870
| 21> H   -2.17394953  -0.43262407  -2.21846829
| 22> H   -1.02039563  -2.60441437  -1.98759972
| 23> H   -0.01651112  -1.62977009   2.05142734
| 24> H    0.09808542  -3.14252254   0.15075944
| 25> Pd   1.44160624   1.25576988   0.09813992
| 26> O    2.50717549   0.80753715  -1.66035160
| 27> O    2.59276420  -0.43065648   0.09590857
| 28> O    0.33503024   2.90897554  -0.05011286
| 29> C    0.14296191   2.96983826   1.18428117
| 30> O    0.67913590   2.08488039   1.91147801
| 31> H   -1.51107245   0.41391133   1.97207446
| 32> C    2.99268746  -0.18824119  -1.07528959
| 33> H    3.71075201  -0.86457382  -1.58843411
| 34> H   -0.48417924   3.76867399   1.60463958
| 35> *
| 36>
| 37>                          ****END OF INPUT****

CARTESIAN COORDINATES (ANGSTROEM)
---------------------------------
  C     -1.832871    0.175660   -0.113733
  C     -1.705822   -0.675433   -1.244217
  C     -1.041199   -1.896100   -1.152089
  C     -0.437520   -2.175713    0.070160
  C     -1.319329   -0.143579    1.120675
  C     -0.572917   -1.294209    1.175259
  H     -2.386346    1.088040   -0.343599
  H     -2.173950   -0.432624   -2.218468
  H     -1.020396   -2.604414   -1.987600
  H     -0.016511   -1.629770    2.051427
  H      0.098085   -3.142523    0.150759
  Pd     1.441606    1.255770    0.098140
  O      2.507175    0.807537   -1.660352
  O      2.592764   -0.430656    0.095909
  O      0.335030    2.908976   -0.050113
  C      0.142962    2.969838    1.184281
  O      0.679136    2.084880    1.911478
  H     -1.511072    0.413911    1.972074
  C      2.992687   -0.188241   -1.075290
  H      3.710752   -0.864574   -1.588434
  H     -0.484179    3.768674    1.604640

 Total Charge           Charge          ....    0
 Multiplicity           Mult            ....    1
 Number of Electrons    NEL             ....  106
 Basis Dimension        Dim             ....  227

ORBITAL ENERGIES
----------------

  NO   OCC          E(Eh)            E(eV)
   0   2.0000     -19.542092      -531.7673
   1   2.0000     -19.532627      -531.5098
   2   2.0000     -19.531818      -531.4878
   3   2.0000     -19.530349      -531.4478
   4   2.0000     -10.597045      -288.3603
   5   2.0000     -10.594300      -288.2856
   6   2.0000     -10.454738      -284.4879
   7   2.0000     -10.454270      -284.4752
   8   2.0000     -10.453611      -284.4572
   9   2.0000     -10.452003      -284.4134
  10   2.0000     -10.451739      -284.4063
  11   2.0000     -10.448894      -284.3289
  12   2.0000      -3.695861      -100.5695
  13   2.0000      -2.349470       -63.9323
  14   2.0000      -2.336794       -63.5874
  15   2.0000      -2.302899       -62.6651
  16   2.0000      -1.242471       -33.8093
  17   2.0000      -1.233921       -33.5767
  18   2.0000      -1.121739       -30.5241
  19   2.0000      -1.116607       -30.3844
  20   2.0000      -0.956184       -26.0191
  21   2.0000      -0.848262       -23.0824
  22   2.0000      -0.827637       -22.5212
  23   2.0000      -0.707622       -19.2554
  24   2.0000      -0.693904       -18.8821
  25   2.0000      -0.683299       -18.5935
  26   2.0000      -0.678316       -18.4579
  27   2.0000      -0.602060       -16.3829
  28   2.0000      -0.593674       -16.1547
  29   2.0000      -0.585320       -15.9274
  30   2.0000      -0.577187       -15.7061
  31   2.0000      -0.555056       -15.1038
  32   2.0000      -0.543697       -14.7947
  33   2.0000      -0.529920       -14.4199
  34   2.0000      -0.527264       -14.3476
  35   2.0000      -0.512218       -13.9381
  36   2.0000      -0.494526       -13.4567
  37   2.0000      -0.466928       -12.7057
  38   2.0000      -0.454747       -12.3743
  39   2.0000      -0.431339       -11.7373
  40   2.0000      -0.424472       -11.5505
  41   2.0000      -0.415501       -11.3064
  42   2.0000      -0.400337       -10.8937
  43   2.0000      -0.395566       -10.7639
  44   2.0000      -0.394097       -10.7239
  45   2.0000      -0.391742       -10.6599
  46   2.0000      -0.379645       -10.3307
  47   2.0000      -0.374996       -10.2042
  48   2.0000      -0.355199        -9.6655
  49   2.0000      -0.339110        -9.2277
  50   2.0000      -0.330446        -8.9919
  51   2.0000      -0.298496        -8.1225
  52   2.0000      -0.286782        -7.8037
  53   0.0000      -0.091637        -2.4936
  54   0.0000       0.009144         0.2488
  55   0.0000       0.014160         0.3853
  56   0.0000       0.016984         0.4622
  57   0.0000       0.027357         0.7444

MULLIKEN ATOMIC CHARGES
-----------------------
   0 C :   -0.240749
   1 C :   -0.221101
   2 C :   -0.221455
   3 C :   -0.219346
   4 C :   -0.220230
   5 C :   -0.234799
   6 H :    0.220679
   7 H :    0.222050
   8 H :    0.225958
   9 H :    0.231027
  10 H :    0.219440
  11 Pd:    0.546473
  12 O :   -0.446746
  13 O :   -0.461459
  14 O :   -0.451032
  15 C :    0.424613
  16 O :   -0.460882
  17 H :    0.240501
  18 C :    0.428404
  19 H :    0.209136
  20 H :    0.209519
Sum of atomic charges:    0.0000000

LOEWDIN ATOMIC CHARGES
----------------------
   0 C :   -0.122887
   1 C :   -0.127368
   2 C :   -0.135958
   3 C :   -0.124913
   4 C :   -0.126365
   5 C :   -0.114469
   6 H :    0.141749
   7 H :    0.138339
   8 H :    0.138555
   9 H :    0.146555
  10 H :    0.137881
  11 Pd:   -0.121515
  12 O :   -0.141413
  13 O :   -0.144146
  14 O :   -0.119677
  15 C :    0.168182
  16 O :   -0.164287
  17 H :    0.150141
  18 C :    0.170650
  19 H :    0.125759
  20 H :    0.125189

  Mayer bond orders larger than 0.100000
B(  0-C ,  1-C ) :   1.4244 B(  0-C ,  4-C ) :   1.4032 B(  0-C ,  6-H ) :   0.9199
B(  1-C ,  2-C ) :   1.4249 B(  1-C ,  7-H ) :   0.9189 B(  2-C ,  3-C ) :   1.4269
B(  2-C ,  8-H ) :   0.9158 B(  3-C ,  5-C ) :   1.4205 B(  3-C , 10-H ) :   0.9203
B(  4-C ,  5-C ) :   1.4244 B(  4-C , 17-H ) :   0.9127 B(  5-C ,  9-H ) :   0.9163
B( 11-Pd, 12-O ) :   0.5601 B( 11-Pd, 13-O ) :   0.5780 B( 11-Pd, 14-O ) :   0.5985
B( 11-Pd, 16-O ) :   0.5232 B( 12-O , 13-O ) :   0.1114 B( 12-O , 18-C ) :   1.4820
B( 13-O , 18-C ) :   1.4395 B( 14-O , 15-C ) :   1.4344 B( 14-O , 16-O ) :   0.1106
B( 15-C , 16-O ) :   1.4896 B( 15-C , 20-H ) :   0.8886 B( 18-C , 19-H ) :   0.8865

Dispersion correction           -0.013250984
FINAL SINGLE POINT ENERGY      -737.134804959036
Dispersion correction            ... done

DIPOLE MOMENT
-------------
                                X             Y             Z
Electronic contribution:     55.74524      48.36729       3.67772
Nuclear contribution   :    -55.89853     -48.50856      -3.76210
                        -----------------------------------------
Total Dipole Moment    :     -0.15329      -0.14127      -0.08438
                        -----------------------------------------
Magnitude (a.u.)       :      0.22489
Magnitude (Debye)      :      0.57162

Rotational constants in cm-1:     0.028303     0.019564     0.014654
Rotational constants in MHz :   848.498282   586.517747   439.328017

                             ****ORCA TERMINATED NORMALLY****
TOTAL RUN TIME: 0 days 0 hours 3 minutes 45 seconds 174 msec
