                         Program Version 5.0.3 -  RELEASE  -
|  1> ! EnGrad PBEh-3c
|  2> %output
|  3> xyzfile=True
|  4> end
|  5> %scf
|  6> maxiter 250
|  7> end
|  8> %output
|  9> Print[P_Hirshfeld] = 1
| 10> end
| 11> % maxcore
| 12> 4000
| 13> *xyz 0 1
| 14> C   -1.85057906   0.18155752  -0.14700852
| 15> C   -1.73309541  -0.66913967  -1.21214415
| 16> C   -1.07711573  -1.89696331  -1.12633875
| 17> C   -0.46285145  -2.16899204   0.09671348
| 18> C   -1.28562506  -0.21028308   1.00992625
| 19> C   -0.55446845  -1.32946760   1.17068195
| 20> H   -2.36538442   1.09730747  -0.33257061
| 21> H   -2.18864771  -0.43426441  -2.17989808
| 22> H   -1.07052750  -2.62715857  -1.97232023
| 23> H   -0.01372688  -1.61262982   2.04317181
| 24> H    0.06636149  -3.12495107   0.16580672
| 25> Pd   1.47290642   1.26504896   0.09382909
| 26> O    2.51931047   0.83522481  -1.64433854
| 27> O    2.59818426  -0.42498072   0.10385941
| 28> O    0.34470624   2.91211810  -0.05369906
| 29> C    0.14315033   2.95727801   1.20047642
| 30> O    0.66372750   2.08009542   1.89976445
| 31> H   -1.46099390   0.41410361   1.92520904
| 32> C    2.99699983  -0.17802882  -1.06625112
| 33> H    3.73443661  -0.83010520  -1.57163935
| 34> H   -0.48052713   3.76080798   1.59857535
| 35> *
| 36>
| 37>                          ****END OF INPUT****

CARTESIAN COORDINATES (ANGSTROEM)
---------------------------------
  C     -1.850579    0.181558   -0.147009
  C     -1.733095   -0.669140   -1.212144
  C     -1.077116   -1.896963   -1.126339
  C     -0.462851   -2.168992    0.096713
  C     -1.285625   -0.210283    1.009926
  C     -0.554468   -1.329468    1.170682
  H     -2.365384    1.097307   -0.332571
  H     -2.188648   -0.434264   -2.179898
  H     -1.070528   -2.627159   -1.972320
  H     -0.013727   -1.612630    2.043172
  H      0.066361   -3.124951    0.165807
  Pd     1.472906    1.265049    0.093829
  O      2.519310    0.835225   -1.644339
  O      2.598184   -0.424981    0.103859
  O      0.344706    2.912118   -0.053699
  C      0.143150    2.957278    1.200476
  O      0.663728    2.080095    1.899764
  H     -1.460994    0.414104    1.925209
  C      2.997000   -0.178029   -1.066251
  H      3.734437   -0.830105   -1.571639
  H     -0.480527    3.760808    1.598575

 Total Charge           Charge          ....    0
 Multiplicity           Mult            ....    1
 Number of Electrons    NEL             ....  106
 Basis Dimension        Dim             ....  227

ORBITAL ENERGIES
----------------

  NO   OCC          E(Eh)            E(eV)
   0   2.0000     -19.536822      -531.6240
   1   2.0000     -19.536317      -531.6102
   2   2.0000     -19.534349      -531.5567
   3   2.0000     -19.532034      -531.4937
   4   2.0000     -10.598260      -288.3933
   5   2.0000     -10.593537      -288.2648
   6   2.0000     -10.451230      -284.3924
   7   2.0000     -10.446754      -284.2706
   8   2.0000     -10.446001      -284.2501
   9   2.0000     -10.445733      -284.2429
  10   2.0000     -10.442285      -284.1490
  11   2.0000     -10.440185      -284.0919
  12   2.0000      -3.695966      -100.5723
  13   2.0000      -2.349489       -63.9329
  14   2.0000      -2.337157       -63.5973
  15   2.0000      -2.303050       -62.6692
  16   2.0000      -1.242830       -33.8191
  17   2.0000      -1.235656       -33.6239
  18   2.0000      -1.122515       -30.5452
  19   2.0000      -1.118937       -30.4478
  20   2.0000      -0.969383       -26.3782
  21   2.0000      -0.846381       -23.0312
  22   2.0000      -0.840535       -22.8721
  23   2.0000      -0.708515       -19.2797
  24   2.0000      -0.696961       -18.9653
  25   2.0000      -0.682405       -18.5692
  26   2.0000      -0.681603       -18.5474
  27   2.0000      -0.602771       -16.4022
  28   2.0000      -0.598010       -16.2727
  29   2.0000      -0.586676       -15.9643
  30   2.0000      -0.578727       -15.7480
  31   2.0000      -0.556898       -15.1540
  32   2.0000      -0.544167       -14.8075
  33   2.0000      -0.530680       -14.4405
  34   2.0000      -0.520422       -14.1614
  35   2.0000      -0.516846       -14.0641
  36   2.0000      -0.488045       -13.2804
  37   2.0000      -0.480003       -13.0616
  38   2.0000      -0.456718       -12.4279
  39   2.0000      -0.438418       -11.9299
  40   2.0000      -0.426558       -11.6072
  41   2.0000      -0.417560       -11.3624
  42   2.0000      -0.395787       -10.7699
  43   2.0000      -0.395330       -10.7575
  44   2.0000      -0.393026       -10.6948
  45   2.0000      -0.388947       -10.5838
  46   2.0000      -0.380362       -10.3502
  47   2.0000      -0.375768       -10.2252
  48   2.0000      -0.356039        -9.6883
  49   2.0000      -0.338707        -9.2167
  50   2.0000      -0.330270        -8.9871
  51   2.0000      -0.298602        -8.1254
  52   2.0000      -0.294213        -8.0059
  53   0.0000      -0.089266        -2.4291
  54   0.0000       0.010792         0.2937
  55   0.0000       0.019421         0.5285
  56   0.0000       0.022496         0.6122
  57   0.0000       0.026687         0.7262

MULLIKEN ATOMIC CHARGES
-----------------------
   0 C :   -0.169199
   1 C :   -0.247813
   2 C :   -0.213908
   3 C :   -0.246763
   4 C :   -0.293061
   5 C :   -0.168090
   6 H :    0.226617
   7 H :    0.218414
   8 H :    0.221992
   9 H :    0.235770
  10 H :    0.216017
  11 Pd:    0.542220
  12 O :   -0.451316
  13 O :   -0.461088
  14 O :   -0.470163
  15 C :    0.422926
  16 O :   -0.440778
  17 H :    0.221336
  18 C :    0.436359
  19 H :    0.212132
  20 H :    0.208393
Sum of atomic charges:    0.0000000

LOEWDIN ATOMIC CHARGES
----------------------
   0 C :   -0.135925
   1 C :   -0.117867
   2 C :   -0.140275
   3 C :   -0.116391
   4 C :   -0.113133
   5 C :   -0.129297
   6 H :    0.146778
   7 H :    0.133951
   8 H :    0.139702
   9 H :    0.150624
  10 H :    0.133413
  11 Pd:   -0.123161
  12 O :   -0.139559
  13 O :   -0.139679
  14 O :   -0.143174
  15 C :    0.162340
  16 O :   -0.141422
  17 H :    0.142481
  18 C :    0.178921
  19 H :    0.127739
  20 H :    0.123934

  Mayer bond orders larger than 0.100000
B(  0-C ,  1-C ) :   1.4249 B(  0-C ,  4-C ) :   1.4052 B(  0-C ,  6-H ) :   0.9180
B(  1-C ,  2-C ) :   1.4260 B(  1-C ,  7-H ) :   0.9182 B(  2-C ,  3-C ) :   1.4228
B(  2-C ,  8-H ) :   0.9197 B(  3-C ,  5-C ) :   1.4247 B(  3-C , 10-H ) :   0.9194
B(  4-C ,  5-C ) :   1.4227 B(  4-C , 17-H ) :   0.9149 B(  5-C ,  9-H ) :   0.9145
B( 11-Pd, 12-O ) :   0.5781 B( 11-Pd, 13-O ) :   0.5744 B( 11-Pd, 14-O ) :   0.6168
B( 11-Pd, 16-O ) :   0.5013 B( 12-O , 13-O ) :   0.1124 B( 12-O , 18-C ) :   1.4620
B( 13-O , 18-C ) :   1.4442 B( 14-O , 15-C ) :   1.3969 B( 14-O , 16-O ) :   0.1098
B( 15-C , 16-O ) :   1.5349 B( 15-C , 20-H ) :   0.8894 B( 18-C , 19-H ) :   0.8877

Dispersion correction           -0.013233941
FINAL SINGLE POINT ENERGY      -737.133819252072
Dispersion correction            ... done

DIPOLE MOMENT
-------------
                                X             Y             Z
Electronic contribution:     57.29601      48.78320       3.54925
Nuclear contribution   :    -57.34530     -48.97257      -3.60363
                        -----------------------------------------
Total Dipole Moment    :     -0.04929      -0.18937      -0.05438
                        -----------------------------------------
Magnitude (a.u.)       :      0.20309
Magnitude (Debye)      :      0.51621

Rotational constants in cm-1:     0.028697     0.019297     0.014579
Rotational constants in MHz :   860.319584   578.496515   437.073645

                             ****ORCA TERMINATED NORMALLY****
TOTAL RUN TIME: 0 days 0 hours 4 minutes 1 seconds 83 msec
