                         Program Version 5.0.3 -  RELEASE  -
|  1> ! EnGrad PBEh-3c
|  2> %output
|  3> xyzfile=True
|  4> end
|  5> %scf
|  6> maxiter 250
|  7> end
|  8> %output
|  9> Print[P_Hirshfeld] = 1
| 10> end
| 11> % maxcore
| 12> 4000
| 13> *xyz 0 1
| 14> C   -1.86002402   0.18206257  -0.17658226
| 15> C   -1.74689847  -0.68088139  -1.22689454
| 16> C   -1.09296645  -1.89719631  -1.11422441
| 17> C   -0.46809363  -2.19095595   0.08775361
| 18> C   -1.28129408  -0.19888426   1.02039450
| 19> C   -0.54049767  -1.35564352   1.16225453
| 20> H   -2.36001319   1.10747486  -0.32399655
| 21> H   -2.19485585  -0.43352202  -2.16175274
| 22> H   -1.09094042  -2.62735352  -1.95587062
| 23> H   -0.01164876  -1.60418020   2.04842780
| 24> H    0.05326647  -3.11573851   0.17371232
| 25> Pd   1.48428177   1.27229134   0.09239789
| 26> O    2.52389982   0.84390253  -1.63553844
| 27> O    2.60282291  -0.42185204   0.10698406
| 28> O    0.34965507   2.91538106  -0.05414363
| 29> C    0.14445773   2.95304672   1.19667500
| 30> O    0.66017473   2.07182564   1.89941710
| 31> H   -1.43603031   0.40591472   1.89106802
| 32> C    2.99855524  -0.17298873  -1.06338956
| 33> H    3.74214547  -0.81419533  -1.56333525
| 34> H   -0.48042634   3.75889244   1.59861774
| 35> *
| 36>
| 37>                          ****END OF INPUT****

CARTESIAN COORDINATES (ANGSTROEM)
---------------------------------
  C     -1.860024    0.182063   -0.176582
  C     -1.746898   -0.680881   -1.226895
  C     -1.092966   -1.897196   -1.114224
  C     -0.468094   -2.190956    0.087754
  C     -1.281294   -0.198884    1.020395
  C     -0.540498   -1.355644    1.162255
  H     -2.360013    1.107475   -0.323997
  H     -2.194856   -0.433522   -2.161753
  H     -1.090940   -2.627354   -1.955871
  H     -0.011649   -1.604180    2.048428
  H      0.053266   -3.115739    0.173712
  Pd     1.484282    1.272291    0.092398
  O      2.523900    0.843903   -1.635538
  O      2.602823   -0.421852    0.106984
  O      0.349655    2.915381   -0.054144
  C      0.144458    2.953047    1.196675
  O      0.660175    2.071826    1.899417
  H     -1.436030    0.405915    1.891068
  C      2.998555   -0.172989   -1.063390
  H      3.742145   -0.814195   -1.563335
  H     -0.480426    3.758892    1.598618

 Total Charge           Charge          ....    0
 Multiplicity           Mult            ....    1
 Number of Electrons    NEL             ....  106
 Basis Dimension        Dim             ....  227

ORBITAL ENERGIES
----------------

  NO   OCC          E(Eh)            E(eV)
   0   2.0000     -19.537992      -531.6558
   1   2.0000     -19.536824      -531.6240
   2   2.0000     -19.534783      -531.5685
   3   2.0000     -19.531661      -531.4835
   4   2.0000     -10.598511      -288.4001
   5   2.0000     -10.593750      -288.2706
   6   2.0000     -10.449196      -284.3371
   7   2.0000     -10.445925      -284.2481
   8   2.0000     -10.444231      -284.2020
   9   2.0000     -10.442570      -284.1568
  10   2.0000     -10.442320      -284.1500
  11   2.0000     -10.441591      -284.1301
  12   2.0000      -3.696021      -100.5739
  13   2.0000      -2.349573       -63.9351
  14   2.0000      -2.337372       -63.6031
  15   2.0000      -2.302984       -62.6674
  16   2.0000      -1.243452       -33.8360
  17   2.0000      -1.236269       -33.6406
  18   2.0000      -1.123532       -30.5729
  19   2.0000      -1.119833       -30.4722
  20   2.0000      -0.963797       -26.2263
  21   2.0000      -0.847047       -23.0493
  22   2.0000      -0.837508       -22.7897
  23   2.0000      -0.708889       -19.2898
  24   2.0000      -0.697302       -18.9746
  25   2.0000      -0.685170       -18.6444
  26   2.0000      -0.681843       -18.5539
  27   2.0000      -0.603671       -16.4267
  28   2.0000      -0.599221       -16.3056
  29   2.0000      -0.587103       -15.9759
  30   2.0000      -0.579611       -15.7720
  31   2.0000      -0.557380       -15.1671
  32   2.0000      -0.544941       -14.8286
  33   2.0000      -0.531363       -14.4591
  34   2.0000      -0.525138       -14.2897
  35   2.0000      -0.514926       -14.0119
  36   2.0000      -0.491230       -13.3671
  37   2.0000      -0.479444       -13.0463
  38   2.0000      -0.456721       -12.4280
  39   2.0000      -0.434417       -11.8211
  40   2.0000      -0.427746       -11.6396
  41   2.0000      -0.417955       -11.3731
  42   2.0000      -0.399565       -10.8727
  43   2.0000      -0.396541       -10.7904
  44   2.0000      -0.394244       -10.7279
  45   2.0000      -0.392230       -10.6731
  46   2.0000      -0.381002       -10.3676
  47   2.0000      -0.376771       -10.2525
  48   2.0000      -0.356435        -9.6991
  49   2.0000      -0.338735        -9.2174
  50   2.0000      -0.330341        -8.9890
  51   2.0000      -0.299121        -8.1395
  52   2.0000      -0.289893        -7.8884
  53   0.0000      -0.088221        -2.4006
  54   0.0000       0.010457         0.2845
  55   0.0000       0.017055         0.4641
  56   0.0000       0.023088         0.6282
  57   0.0000       0.026024         0.7082

MULLIKEN ATOMIC CHARGES
-----------------------
   0 C :   -0.189556
   1 C :   -0.231460
   2 C :   -0.220100
   3 C :   -0.231118
   4 C :   -0.290171
   5 C :   -0.186982
   6 H :    0.225510
   7 H :    0.221463
   8 H :    0.217608
   9 H :    0.234632
  10 H :    0.219516
  11 Pd:    0.541237
  12 O :   -0.451839
  13 O :   -0.460677
  14 O :   -0.467934
  15 C :    0.422706
  16 O :   -0.443418
  17 H :    0.232191
  18 C :    0.438413
  19 H :    0.212490
  20 H :    0.207490
Sum of atomic charges:    0.0000000

LOEWDIN ATOMIC CHARGES
----------------------
   0 C :   -0.131144
   1 C :   -0.123153
   2 C :   -0.135105
   3 C :   -0.121890
   4 C :   -0.115797
   5 C :   -0.124316
   6 H :    0.144062
   7 H :    0.135357
   8 H :    0.137978
   9 H :    0.148108
  10 H :    0.134971
  11 Pd:   -0.123895
  12 O :   -0.136675
  13 O :   -0.138770
  14 O :   -0.141038
  15 C :    0.161753
  16 O :   -0.144581
  17 H :    0.143309
  18 C :    0.179462
  19 H :    0.127831
  20 H :    0.123532

  Mayer bond orders larger than 0.100000
B(  0-C ,  1-C ) :   1.4353 B(  0-C ,  4-C ) :   1.4094 B(  0-C ,  6-H ) :   0.9181
B(  1-C ,  2-C ) :   1.4248 B(  1-C ,  7-H ) :   0.9179 B(  2-C ,  3-C ) :   1.4246
B(  2-C ,  8-H ) :   0.9217 B(  3-C ,  5-C ) :   1.4319 B(  3-C , 10-H ) :   0.9188
B(  4-C ,  5-C ) :   1.4285 B(  4-C , 17-H ) :   0.9115 B(  5-C ,  9-H ) :   0.9149
B( 11-Pd, 12-O ) :   0.5826 B( 11-Pd, 13-O ) :   0.5749 B( 11-Pd, 14-O ) :   0.6128
B( 11-Pd, 16-O ) :   0.5026 B( 12-O , 13-O ) :   0.1127 B( 12-O , 18-C ) :   1.4581
B( 13-O , 18-C ) :   1.4456 B( 14-O , 15-C ) :   1.4031 B( 14-O , 16-O ) :   0.1100
B( 15-C , 16-O ) :   1.5289 B( 15-C , 20-H ) :   0.8893 B( 18-C , 19-H ) :   0.8886

Dispersion correction           -0.013222805
FINAL SINGLE POINT ENERGY      -737.141779187141
Dispersion correction            ... done

DIPOLE MOMENT
-------------
                                X             Y             Z
Electronic contribution:     57.83934      49.17084       3.51052
Nuclear contribution   :    -57.86393     -49.34763      -3.57079
                        -----------------------------------------
Total Dipole Moment    :     -0.02459      -0.17679      -0.06027
                        -----------------------------------------
Magnitude (a.u.)       :      0.18839
Magnitude (Debye)      :      0.47886

Rotational constants in cm-1:     0.028725     0.019123     0.014510
Rotational constants in MHz :   861.148710   573.301640   435.005938

                             ****ORCA TERMINATED NORMALLY****
TOTAL RUN TIME: 0 days 0 hours 3 minutes 54 seconds 722 msec
