                         Program Version 5.0.3 -  RELEASE  -
|  1> ! EnGrad PBEh-3c
|  2> %output
|  3> xyzfile=True
|  4> end
|  5> %scf
|  6> maxiter 250
|  7> end
|  8> %output
|  9> Print[P_Hirshfeld] = 1
| 10> end
| 11> % maxcore
| 12> 4000
| 13> *xyz 0 1
| 14> C   -1.86110899   0.17459914  -0.19735052
| 15> C   -1.75957879  -0.70008818  -1.25130294
| 16> C   -1.10800999  -1.90247160  -1.10776561
| 17> C   -0.47326820  -2.22032254   0.06878528
| 18> C   -1.27717430  -0.18973558   1.02741732
| 19> C   -0.53326788  -1.37233749   1.14758229
| 20> H   -2.35988368   1.12403020  -0.31359829
| 21> H   -2.20439384  -0.43018805  -2.15281614
| 22> H   -1.10830637  -2.61765594  -1.93077403
| 23> H   -0.00847918  -1.59674600   2.06252700
| 24> H    0.04671336  -3.11472503   0.18207462
| 25> Pd   1.49410132   1.27991822   0.08862574
| 26> O    2.52662661   0.85063208  -1.62612521
| 27> O    2.61118397  -0.41787255   0.11072224
| 28> O    0.35630312   2.92116285  -0.05581719
| 29> C    0.14607772   2.95099109   1.18879512
| 30> O    0.65839711   2.06030094   1.90071043
| 31> H   -1.41483509   0.40983167   1.87372059
| 32> C    2.99752867  -0.16872375  -1.06010785
| 33> H    3.74670262  -0.79794366  -1.55418689
| 34> H   -0.48033575   3.75636426   1.60079080
| 35> *
| 36>
| 37>                          ****END OF INPUT****

CARTESIAN COORDINATES (ANGSTROEM)
---------------------------------
  C     -1.861109    0.174599   -0.197351
  C     -1.759579   -0.700088   -1.251303
  C     -1.108010   -1.902472   -1.107766
  C     -0.473268   -2.220323    0.068785
  C     -1.277174   -0.189736    1.027417
  C     -0.533268   -1.372337    1.147582
  H     -2.359884    1.124030   -0.313598
  H     -2.204394   -0.430188   -2.152816
  H     -1.108306   -2.617656   -1.930774
  H     -0.008479   -1.596746    2.062527
  H      0.046713   -3.114725    0.182075
  Pd     1.494101    1.279918    0.088626
  O      2.526627    0.850632   -1.626125
  O      2.611184   -0.417873    0.110722
  O      0.356303    2.921163   -0.055817
  C      0.146078    2.950991    1.188795
  O      0.658397    2.060301    1.900710
  H     -1.414835    0.409832    1.873721
  C      2.997529   -0.168724   -1.060108
  H      3.746703   -0.797944   -1.554187
  H     -0.480336    3.756364    1.600791

 Total Charge           Charge          ....    0
 Multiplicity           Mult            ....    1
 Number of Electrons    NEL             ....  106
 Basis Dimension        Dim             ....  227

ORBITAL ENERGIES
----------------

  NO   OCC          E(Eh)            E(eV)
   0   2.0000     -19.539010      -531.6835
   1   2.0000     -19.537198      -531.6342
   2   2.0000     -19.536736      -531.6216
   3   2.0000     -19.530855      -531.4616
   4   2.0000     -10.598183      -288.3912
   5   2.0000     -10.594845      -288.3004
   6   2.0000     -10.448216      -284.3104
   7   2.0000     -10.446366      -284.2601
   8   2.0000     -10.445805      -284.2448
   9   2.0000     -10.445658      -284.2408
  10   2.0000     -10.440751      -284.1073
  11   2.0000     -10.440046      -284.0881
  12   2.0000      -3.696260      -100.5803
  13   2.0000      -2.349822       -63.9419
  14   2.0000      -2.337805       -63.6149
  15   2.0000      -2.303078       -62.6699
  16   2.0000      -1.244659       -33.8689
  17   2.0000      -1.235789       -33.6275
  18   2.0000      -1.125000       -30.6128
  19   2.0000      -1.120245       -30.4834
  20   2.0000      -0.959866       -26.1193
  21   2.0000      -0.844755       -22.9869
  22   2.0000      -0.837277       -22.7835
  23   2.0000      -0.709707       -19.3121
  24   2.0000      -0.697443       -18.9784
  25   2.0000      -0.686165       -18.6715
  26   2.0000      -0.682150       -18.5622
  27   2.0000      -0.604728       -16.4555
  28   2.0000      -0.599987       -16.3265
  29   2.0000      -0.587570       -15.9886
  30   2.0000      -0.580496       -15.7961
  31   2.0000      -0.557642       -15.1742
  32   2.0000      -0.545883       -14.8542
  33   2.0000      -0.532201       -14.4819
  34   2.0000      -0.529459       -14.4073
  35   2.0000      -0.512733       -13.9522
  36   2.0000      -0.489922       -13.3315
  37   2.0000      -0.481205       -13.0943
  38   2.0000      -0.456475       -12.4213
  39   2.0000      -0.432125       -11.7587
  40   2.0000      -0.428991       -11.6734
  41   2.0000      -0.418135       -11.3780
  42   2.0000      -0.402275       -10.9465
  43   2.0000      -0.397604       -10.8194
  44   2.0000      -0.394283       -10.7290
  45   2.0000      -0.392486       -10.6801
  46   2.0000      -0.381307       -10.3759
  47   2.0000      -0.377898       -10.2831
  48   2.0000      -0.357065        -9.7162
  49   2.0000      -0.338905        -9.2221
  50   2.0000      -0.330657        -8.9976
  51   2.0000      -0.297182        -8.0867
  52   2.0000      -0.288645        -7.8544
  53   0.0000      -0.087258        -2.3744
  54   0.0000       0.010076         0.2742
  55   0.0000       0.016394         0.4461
  56   0.0000       0.021268         0.5787
  57   0.0000       0.025288         0.6881

MULLIKEN ATOMIC CHARGES
-----------------------
   0 C :   -0.217488
   1 C :   -0.211796
   2 C :   -0.228978
   3 C :   -0.211945
   4 C :   -0.270831
   5 C :   -0.214225
   6 H :    0.223030
   7 H :    0.224814
   8 H :    0.214976
   9 H :    0.232843
  10 H :    0.223056
  11 Pd:    0.539672
  12 O :   -0.452532
  13 O :   -0.458623
  14 O :   -0.462749
  15 C :    0.423785
  16 O :   -0.450866
  17 H :    0.238380
  18 C :    0.439990
  19 H :    0.212101
  20 H :    0.207385
Sum of atomic charges:   -0.0000000

LOEWDIN ATOMIC CHARGES
----------------------
   0 C :   -0.125356
   1 C :   -0.128187
   2 C :   -0.130838
   3 C :   -0.127235
   4 C :   -0.121324
   5 C :   -0.118008
   6 H :    0.141828
   7 H :    0.137161
   8 H :    0.136215
   9 H :    0.146399
  10 H :    0.136880
  11 Pd:   -0.125492
  12 O :   -0.133099
  13 O :   -0.136629
  14 O :   -0.135568
  15 C :    0.164375
  16 O :   -0.154048
  17 H :    0.143805
  18 C :    0.178075
  19 H :    0.127395
  20 H :    0.123652

  Mayer bond orders larger than 0.100000
B(  0-C ,  1-C ) :   1.4375 B(  0-C ,  4-C ) :   1.4129 B(  0-C ,  6-H ) :   0.9183
B(  1-C ,  2-C ) :   1.4258 B(  1-C ,  7-H ) :   0.9175 B(  2-C ,  3-C ) :   1.4284
B(  2-C ,  8-H ) :   0.9231 B(  3-C ,  5-C ) :   1.4317 B(  3-C , 10-H ) :   0.9184
B(  4-C ,  5-C ) :   1.4337 B(  4-C , 17-H ) :   0.9084 B(  5-C ,  9-H ) :   0.9150
B( 11-Pd, 12-O ) :   0.5878 B( 11-Pd, 13-O ) :   0.5750 B( 11-Pd, 14-O ) :   0.6048
B( 11-Pd, 16-O ) :   0.5085 B( 12-O , 13-O ) :   0.1129 B( 12-O , 18-C ) :   1.4536
B( 13-O , 18-C ) :   1.4498 B( 14-O , 15-C ) :   1.4164 B( 14-O , 16-O ) :   0.1107
B( 15-C , 16-O ) :   1.5125 B( 15-C , 20-H ) :   0.8889 B( 18-C , 19-H ) :   0.8900

Dispersion correction           -0.013197724
FINAL SINGLE POINT ENERGY      -737.142314458952
Dispersion correction            ... done

DIPOLE MOMENT
-------------
                                X             Y             Z
Electronic contribution:     58.28996      49.60910       3.38500
Nuclear contribution   :    -58.29897     -49.77053      -3.47210
                        -----------------------------------------
Total Dipole Moment    :     -0.00901      -0.16142      -0.08710
                        -----------------------------------------
Magnitude (a.u.)       :      0.18364
Magnitude (Debye)      :      0.46678

Rotational constants in cm-1:     0.028766     0.018940     0.014433
Rotational constants in MHz :   862.391619   567.819650   432.675893

                             ****ORCA TERMINATED NORMALLY****
TOTAL RUN TIME: 0 days 0 hours 4 minutes 17 seconds 120 msec
