                         Program Version 5.0.3 -  RELEASE  -
|  1> ! EnGrad PBEh-3c
|  2> %output
|  3> xyzfile=True
|  4> end
|  5> %scf
|  6> maxiter 250
|  7> end
|  8> %output
|  9> Print[P_Hirshfeld] = 1
| 10> end
| 11> % maxcore
| 12> 4000
| 13> *xyz -1 1
| 14> Pd  -2.19206523  -1.65152125   0.76947607
| 15> Cl  -3.52050260  -3.29121054  -0.17547698
| 16> Cl  -0.79762100  -4.56788743   1.48569597
| 17> Cl  -3.97332471  -0.23391793   0.69525738
| 18> N   -0.93775528  -0.10801461   1.42641208
| 19> C   -1.25678356   0.43820279   2.58595069
| 20> C   -0.77014341   1.67779469   3.00757701
| 21> C    0.08685500   2.34763264   2.17169500
| 22> C   -0.07757140   0.50731810   0.59057913
| 23> C    0.44932495   1.76672544   0.94885707
| 24> H    0.48360261   3.31212500   2.46707969
| 25> H   -1.95043899  -0.11224195   3.20811026
| 26> H   -1.06896237   2.08300339   3.96349165
| 27> C    0.34154297  -0.16564438  -0.60832122
| 28> C    1.33765321   2.43116868   0.04838056
| 29> C    1.67853088   1.84969356  -1.12266478
| 30> C    1.21082088   0.54257740  -1.46844524
| 31> H    1.72447900   3.40844920   0.30930382
| 32> H    2.34272374   2.37664208  -1.79840377
| 33> C   -0.05720955  -1.48277439  -0.92885254
| 34> C    1.65109204  -0.05567739  -2.65795035
| 35> C    0.36327060  -2.00876567  -2.13466383
| 36> C    1.25677436  -1.33154859  -2.97144074
| 37> H    2.31004335   0.47794874  -3.33244908
| 38> H    1.61531142  -1.77970333  -3.89310434
| 39> H   -0.29522488  -3.43766646  -0.13254023
| 40> H    0.04557249  -2.99270781  -2.45355876
| 41> *
| 42>
| 43>                          ****END OF INPUT****

CARTESIAN COORDINATES (ANGSTROEM)
---------------------------------
  Pd    -2.192065   -1.651521    0.769476
  Cl    -3.520503   -3.291211   -0.175477
  Cl    -0.797621   -4.567887    1.485696
  Cl    -3.973325   -0.233918    0.695257
  N     -0.937755   -0.108015    1.426412
  C     -1.256784    0.438203    2.585951
  C     -0.770143    1.677795    3.007577
  C      0.086855    2.347633    2.171695
  C     -0.077571    0.507318    0.590579
  C      0.449325    1.766725    0.948857
  H      0.483603    3.312125    2.467080
  H     -1.950439   -0.112242    3.208110
  H     -1.068962    2.083003    3.963492
  C      0.341543   -0.165644   -0.608321
  C      1.337653    2.431169    0.048381
  C      1.678531    1.849694   -1.122665
  C      1.210821    0.542577   -1.468445
  H      1.724479    3.408449    0.309304
  H      2.342724    2.376642   -1.798404
  C     -0.057210   -1.482774   -0.928853
  C      1.651092   -0.055677   -2.657950
  C      0.363271   -2.008766   -2.134664
  C      1.256774   -1.331549   -2.971441
  H      2.310043    0.477949   -3.332449
  H      1.615311   -1.779703   -3.893104
  H     -0.295225   -3.437666   -0.132540
  H      0.045572   -2.992708   -2.453559

 Total Charge           Charge          ....   -1
 Multiplicity           Mult            ....    1
 Number of Electrons    NEL             ....  164
 Basis Dimension        Dim             ....  313

ORBITAL ENERGIES
----------------

  NO   OCC          E(Eh)            E(eV)
   0   2.0000    -102.102602     -2778.3530
   1   2.0000    -102.092327     -2778.0734
   2   2.0000    -102.083903     -2777.8442
   3   2.0000     -14.600339      -397.2954
   4   2.0000     -10.416795      -283.4554
   5   2.0000     -10.413705      -283.3713
   6   2.0000     -10.397420      -282.9282
   7   2.0000     -10.390236      -282.7327
   8   2.0000     -10.382739      -282.5287
   9   2.0000     -10.376737      -282.3654
  10   2.0000     -10.375927      -282.3433
  11   2.0000     -10.372482      -282.2496
  12   2.0000     -10.366294      -282.0812
  13   2.0000     -10.355173      -281.7786
  14   2.0000     -10.354488      -281.7599
  15   2.0000     -10.345529      -281.5161
  16   2.0000     -10.340802      -281.3875
  17   2.0000      -9.566576      -260.3198
  18   2.0000      -9.554042      -259.9787
  19   2.0000      -9.548109      -259.8173
  20   2.0000      -7.252982      -197.3637
  21   2.0000      -7.247277      -197.2084
  22   2.0000      -7.247015      -197.2013
  23   2.0000      -7.240333      -197.0195
  24   2.0000      -7.235236      -196.8808
  25   2.0000      -7.234642      -196.8646
  26   2.0000      -7.234507      -196.8609
  27   2.0000      -7.228738      -196.7040
  28   2.0000      -7.228411      -196.6951
  29   2.0000      -3.523141       -95.8695
  30   2.0000      -2.175004       -59.1849
  31   2.0000      -2.161982       -58.8305
  32   2.0000      -2.134727       -58.0889
  33   2.0000      -0.994977       -27.0747
  34   2.0000      -0.887099       -24.1392
  35   2.0000      -0.850096       -23.1323
  36   2.0000      -0.817972       -22.2582
  37   2.0000      -0.781511       -21.2660
  38   2.0000      -0.745553       -20.2875
  39   2.0000      -0.721050       -19.6208
  40   2.0000      -0.692693       -18.8491
  41   2.0000      -0.672545       -18.3009
  42   2.0000      -0.664342       -18.0777
  43   2.0000      -0.650601       -17.7038
  44   2.0000      -0.646148       -17.5826
  45   2.0000      -0.611625       -16.6432
  46   2.0000      -0.575792       -15.6681
  47   2.0000      -0.531027       -14.4500
  48   2.0000      -0.520326       -14.1588
  49   2.0000      -0.499251       -13.5853
  50   2.0000      -0.463748       -12.6192
  51   2.0000      -0.462208       -12.5773
  52   2.0000      -0.434460       -11.8222
  53   2.0000      -0.416686       -11.3386
  54   2.0000      -0.412370       -11.2211
  55   2.0000      -0.405277       -11.0282
  56   2.0000      -0.390028       -10.6132
  57   2.0000      -0.379505       -10.3269
  58   2.0000      -0.355317        -9.6687
  59   2.0000      -0.345864        -9.4114
  60   2.0000      -0.339009        -9.2249
  61   2.0000      -0.319304        -8.6887
  62   2.0000      -0.307328        -8.3628
  63   2.0000      -0.297252        -8.0886
  64   2.0000      -0.272925        -7.4267
  65   2.0000      -0.266623        -7.2552
  66   2.0000      -0.260778        -7.0961
  67   2.0000      -0.244107        -6.6425
  68   2.0000      -0.234375        -6.3777
  69   2.0000      -0.230039        -6.2597
  70   2.0000      -0.228629        -6.2213
  71   2.0000      -0.218044        -5.9333
  72   2.0000      -0.188860        -5.1391
  73   2.0000      -0.179345        -4.8802
  74   2.0000      -0.173955        -4.7336
  75   2.0000      -0.169017        -4.5992
  76   2.0000      -0.163985        -4.4623
  77   2.0000      -0.162589        -4.4243
  78   2.0000      -0.158586        -4.3153
  79   2.0000      -0.146335        -3.9820
  80   2.0000      -0.136928        -3.7260
  81   2.0000      -0.117372        -3.1938
  82   0.0000       0.039838         1.0840
  83   0.0000       0.057001         1.5511
  84   0.0000       0.061698         1.6789
  85   0.0000       0.084265         2.2930
  86   0.0000       0.105799         2.8789

MULLIKEN ATOMIC CHARGES
-----------------------
   0 Pd:    0.226018
   1 Cl:   -0.319818
   2 Cl:   -0.447954
   3 Cl:   -0.367754
   4 N :   -0.573979
   5 C :    0.046273
   6 C :   -0.316570
   7 C :   -0.157454
   8 C :    0.412330
   9 C :    0.027521
  10 H :    0.212634
  11 H :    0.279814
  12 H :    0.221848
  13 C :   -0.044106
  14 C :   -0.301464
  15 C :   -0.277895
  16 C :    0.118056
  17 H :    0.195133
  18 H :    0.196845
  19 C :   -0.139472
  20 C :   -0.316826
  21 C :   -0.303258
  22 C :   -0.195780
  23 H :    0.188110
  24 H :    0.194161
  25 H :    0.221348
  26 H :    0.222240
Sum of atomic charges:   -1.0000000

LOEWDIN ATOMIC CHARGES
----------------------
   0 Pd:   -0.776353
   1 Cl:   -0.070925
   2 Cl:   -0.379885
   3 Cl:   -0.074811
   4 N :    0.033271
   5 C :    0.012657
   6 C :   -0.166184
   7 C :   -0.084951
   8 C :    0.093342
   9 C :   -0.051553
  10 H :    0.136314
  11 H :    0.165806
  12 H :    0.141327
  13 C :   -0.041740
  14 C :   -0.143269
  15 C :   -0.114667
  16 C :   -0.032606
  17 H :    0.130041
  18 H :    0.131515
  19 C :   -0.112565
  20 C :   -0.153893
  21 C :   -0.153803
  22 C :   -0.132340
  23 H :    0.124013
  24 H :    0.125184
  25 H :    0.262700
  26 H :    0.133375

  Mayer bond orders larger than 0.100000
B(  0-Pd,  1-Cl) :   0.9341 B(  0-Pd,  2-Cl) :   0.1688 B(  0-Pd,  3-Cl) :   0.9026
B(  0-Pd,  4-N ) :   0.3883 B(  0-Pd, 19-C ) :   0.2081 B(  2-Cl, 19-C ) :   0.1148
B(  2-Cl, 25-H ) :   0.5424 B(  4-N ,  5-C ) :   1.4562 B(  4-N ,  8-C ) :   1.1669
B(  5-C ,  6-C ) :   1.3271 B(  5-C , 11-H ) :   0.8927 B(  6-C ,  7-C ) :   1.4583
B(  6-C , 12-H ) :   0.9182 B(  7-C ,  9-C ) :   1.2820 B(  7-C , 10-H ) :   0.9282
B(  8-C ,  9-C ) :   1.2176 B(  8-C , 13-C ) :   1.1213 B(  9-C , 14-C ) :   1.1651
B( 13-C , 16-C ) :   1.2799 B( 13-C , 19-C ) :   1.3819 B( 14-C , 15-C ) :   1.6492
B( 14-C , 17-H ) :   0.9297 B( 15-C , 16-C ) :   1.1509 B( 15-C , 18-H ) :   0.9280
B( 16-C , 20-C ) :   1.2833 B( 19-C , 21-C ) :   1.4786 B( 19-C , 25-H ) :   0.2878
B( 20-C , 22-C ) :   1.4950 B( 20-C , 23-H ) :   0.9315 B( 21-C , 22-C ) :   1.3552
B( 21-C , 26-H ) :   0.9181 B( 22-C , 24-H ) :   0.9206

Dispersion correction           -0.024478563
FINAL SINGLE POINT ENERGY     -2061.361772288044
Dispersion correction            ... done

DIPOLE MOMENT
-------------
                                X             Y             Z
Electronic contribution:    -85.81507     -59.20568      33.36666
Nuclear contribution   :     88.78682      63.18839     -33.08842
                        -----------------------------------------
Total Dipole Moment    :      2.97175       3.98271       0.27824
                        -----------------------------------------
Magnitude (a.u.)       :      4.97702
Magnitude (Debye)      :     12.65057

Rotational constants in cm-1:     0.011494     0.007194     0.005617
Rotational constants in MHz :   344.579760   215.667789   168.404828

                             ****ORCA TERMINATED NORMALLY****
TOTAL RUN TIME: 0 days 0 hours 11 minutes 29 seconds 69 msec
