                         Program Version 5.0.3 -  RELEASE  -
|  1> ! EnGrad PBEh-3c
|  2> %output
|  3> xyzfile=True
|  4> end
|  5> %scf
|  6> maxiter 250
|  7> end
|  8> %output
|  9> Print[P_Hirshfeld] = 1
| 10> end
| 11> % maxcore
| 12> 4000
| 13> *xyz -1 1
| 14> Pd  -2.15638696  -1.68794388   0.68826099
| 15> Cl  -3.51089383  -3.26437526  -0.16157229
| 16> Cl  -0.75218310  -4.49589183   1.38679705
| 17> Cl  -3.97909720  -0.22032534   0.71544385
| 18> N   -0.97549041  -0.12235586   1.44053823
| 19> C   -1.26146595   0.44833491   2.58945289
| 20> C   -0.76374677   1.66375509   3.00200614
| 21> C    0.07891677   2.33807215   2.17448379
| 22> C   -0.06697377   0.49138171   0.61186553
| 23> C    0.45849200   1.78543828   0.94413588
| 24> H    0.48615409   3.31219987   2.45862911
| 25> H   -1.95091529  -0.11059420   3.20458534
| 26> H   -1.07003758   2.08137529   3.96345309
| 27> C    0.34393934  -0.17268146  -0.60587452
| 28> C    1.33564721   2.42530420   0.04181391
| 29> C    1.67419061   1.85567380  -1.11067673
| 30> C    1.22195682   0.55628450  -1.48791648
| 31> H    1.72308778   3.40864103   0.31214101
| 32> H    2.34189545   2.37053906  -1.80269030
| 33> C   -0.08860835  -1.56647379  -0.89264910
| 34> C    1.65825943  -0.06186317  -2.65801821
| 35> C    0.37963584  -2.01466673  -2.14289298
| 36> C    1.24236081  -1.31434822  -2.98565893
| 37> H    2.31345784   0.48336550  -3.32564537
| 38> H    1.61072925  -1.78427229  -3.88874641
| 39> H   -0.33857767  -3.40910664  -0.02434634
| 40> H    0.04170534  -2.99649713  -2.44646079
| 41> *
| 42>
| 43>                          ****END OF INPUT****

CARTESIAN COORDINATES (ANGSTROEM)
---------------------------------
  Pd    -2.156387   -1.687944    0.688261
  Cl    -3.510894   -3.264375   -0.161572
  Cl    -0.752183   -4.495892    1.386797
  Cl    -3.979097   -0.220325    0.715444
  N     -0.975490   -0.122356    1.440538
  C     -1.261466    0.448335    2.589453
  C     -0.763747    1.663755    3.002006
  C      0.078917    2.338072    2.174484
  C     -0.066974    0.491382    0.611866
  C      0.458492    1.785438    0.944136
  H      0.486154    3.312200    2.458629
  H     -1.950915   -0.110594    3.204585
  H     -1.070038    2.081375    3.963453
  C      0.343939   -0.172681   -0.605875
  C      1.335647    2.425304    0.041814
  C      1.674191    1.855674   -1.110677
  C      1.221957    0.556284   -1.487916
  H      1.723088    3.408641    0.312141
  H      2.341895    2.370539   -1.802690
  C     -0.088608   -1.566474   -0.892649
  C      1.658259   -0.061863   -2.658018
  C      0.379636   -2.014667   -2.142893
  C      1.242361   -1.314348   -2.985659
  H      2.313458    0.483365   -3.325645
  H      1.610729   -1.784272   -3.888746
  H     -0.338578   -3.409107   -0.024346
  H      0.041705   -2.996497   -2.446461

 Total Charge           Charge          ....   -1
 Multiplicity           Mult            ....    1
 Number of Electrons    NEL             ....  164
 Basis Dimension        Dim             ....  313

ORBITAL ENERGIES
----------------

  NO   OCC          E(Eh)            E(eV)
   0   2.0000    -102.110654     -2778.5722
   1   2.0000    -102.094995     -2778.1460
   2   2.0000    -102.087018     -2777.9290
   3   2.0000     -14.597700      -397.2236
   4   2.0000     -10.415801      -283.4284
   5   2.0000     -10.406931      -283.1870
   6   2.0000     -10.393695      -282.8268
   7   2.0000     -10.386923      -282.6425
   8   2.0000     -10.377478      -282.3855
   9   2.0000     -10.372573      -282.2521
  10   2.0000     -10.371483      -282.2224
  11   2.0000     -10.371191      -282.2145
  12   2.0000     -10.370068      -282.1839
  13   2.0000     -10.352449      -281.7045
  14   2.0000     -10.351165      -281.6695
  15   2.0000     -10.350532      -281.6523
  16   2.0000     -10.338176      -281.3161
  17   2.0000      -9.572828      -260.4899
  18   2.0000      -9.558417      -260.0977
  19   2.0000      -9.552115      -259.9263
  20   2.0000      -7.259444      -197.5395
  21   2.0000      -7.253729      -197.3840
  22   2.0000      -7.253073      -197.3661
  23   2.0000      -7.244707      -197.1385
  24   2.0000      -7.239262      -196.9903
  25   2.0000      -7.239002      -196.9832
  26   2.0000      -7.238624      -196.9730
  27   2.0000      -7.232668      -196.8109
  28   2.0000      -7.232311      -196.8012
  29   2.0000      -3.521674       -95.8296
  30   2.0000      -2.175065       -59.1865
  31   2.0000      -2.158346       -58.7316
  32   2.0000      -2.133649       -58.0595
  33   2.0000      -0.986721       -26.8500
  34   2.0000      -0.882084       -24.0027
  35   2.0000      -0.845983       -23.0204
  36   2.0000      -0.815431       -22.1890
  37   2.0000      -0.776615       -21.1328
  38   2.0000      -0.739871       -20.1329
  39   2.0000      -0.716233       -19.4897
  40   2.0000      -0.691196       -18.8084
  41   2.0000      -0.684542       -18.6273
  42   2.0000      -0.674422       -18.3520
  43   2.0000      -0.646631       -17.5957
  44   2.0000      -0.640272       -17.4227
  45   2.0000      -0.603758       -16.4291
  46   2.0000      -0.571542       -15.5524
  47   2.0000      -0.525688       -14.3047
  48   2.0000      -0.515406       -14.0249
  49   2.0000      -0.496308       -13.5052
  50   2.0000      -0.459852       -12.5132
  51   2.0000      -0.458044       -12.4640
  52   2.0000      -0.429234       -11.6801
  53   2.0000      -0.410953       -11.1826
  54   2.0000      -0.406481       -11.0609
  55   2.0000      -0.400750       -10.9050
  56   2.0000      -0.382731       -10.4147
  57   2.0000      -0.373378       -10.1601
  58   2.0000      -0.352752        -9.5989
  59   2.0000      -0.342505        -9.3200
  60   2.0000      -0.332964        -9.0604
  61   2.0000      -0.316728        -8.6186
  62   2.0000      -0.304272        -8.2797
  63   2.0000      -0.287257        -7.8167
  64   2.0000      -0.284844        -7.7510
  65   2.0000      -0.268665        -7.3107
  66   2.0000      -0.258221        -7.0265
  67   2.0000      -0.246870        -6.7177
  68   2.0000      -0.236387        -6.4324
  69   2.0000      -0.230256        -6.2656
  70   2.0000      -0.226592        -6.1659
  71   2.0000      -0.224397        -6.1062
  72   2.0000      -0.191560        -5.2126
  73   2.0000      -0.185036        -5.0351
  74   2.0000      -0.179606        -4.8873
  75   2.0000      -0.178798        -4.8654
  76   2.0000      -0.167228        -4.5505
  77   2.0000      -0.161663        -4.3991
  78   2.0000      -0.156493        -4.2584
  79   2.0000      -0.145725        -3.9654
  80   2.0000      -0.140397        -3.8204
  81   2.0000      -0.121165        -3.2971
  82   0.0000       0.043769         1.1910
  83   0.0000       0.059780         1.6267
  84   0.0000       0.066271         1.8033
  85   0.0000       0.109006         2.9662
  86   0.0000       0.113328         3.0838

MULLIKEN ATOMIC CHARGES
-----------------------
   0 Pd:    0.226313
   1 Cl:   -0.301978
   2 Cl:   -0.413511
   3 Cl:   -0.388623
   4 N :   -0.565639
   5 C :    0.051307
   6 C :   -0.317268
   7 C :   -0.158600
   8 C :    0.373734
   9 C :    0.056119
  10 H :    0.207792
  11 H :    0.272699
  12 H :    0.219393
  13 C :   -0.104421
  14 C :   -0.289401
  15 C :   -0.273264
  16 C :    0.157054
  17 H :    0.191993
  18 H :    0.193274
  19 C :   -0.169449
  20 C :   -0.321536
  21 C :   -0.314005
  22 C :   -0.173353
  23 H :    0.184926
  24 H :    0.194266
  25 H :    0.243425
  26 H :    0.218753
Sum of atomic charges:   -1.0000000

LOEWDIN ATOMIC CHARGES
----------------------
   0 Pd:   -0.802251
   1 Cl:   -0.032762
   2 Cl:   -0.327494
   3 Cl:   -0.118393
   4 N :    0.029095
   5 C :    0.007809
   6 C :   -0.171385
   7 C :   -0.083774
   8 C :    0.097286
   9 C :   -0.055176
  10 H :    0.134049
  11 H :    0.162385
  12 H :    0.141896
  13 C :   -0.030950
  14 C :   -0.143999
  15 C :   -0.116030
  16 C :   -0.036780
  17 H :    0.129832
  18 H :    0.130375
  19 C :   -0.124952
  20 C :   -0.154118
  21 C :   -0.156685
  22 C :   -0.134188
  23 H :    0.122700
  24 H :    0.126937
  25 H :    0.273816
  26 H :    0.132757

  Mayer bond orders larger than 0.100000
B(  0-Pd,  1-Cl) :   0.9636 B(  0-Pd,  2-Cl) :   0.1515 B(  0-Pd,  3-Cl) :   0.8584
B(  0-Pd,  4-N ) :   0.3829 B(  0-Pd, 19-C ) :   0.2546 B(  2-Cl, 25-H ) :   0.6121
B(  4-N ,  5-C ) :   1.4762 B(  4-N ,  8-C ) :   1.1515 B(  5-C ,  6-C ) :   1.3213
B(  5-C , 11-H ) :   0.8964 B(  6-C ,  7-C ) :   1.4559 B(  6-C , 12-H ) :   0.9195
B(  7-C ,  9-C ) :   1.2815 B(  7-C , 10-H ) :   0.9293 B(  8-C ,  9-C ) :   1.2309
B(  8-C , 13-C ) :   1.1486 B(  9-C , 14-C ) :   1.1705 B( 13-C , 16-C ) :   1.2701
B( 13-C , 19-C ) :   1.3210 B( 14-C , 15-C ) :   1.6352 B( 14-C , 17-H ) :   0.9302
B( 15-C , 16-C ) :   1.1591 B( 15-C , 18-H ) :   0.9277 B( 16-C , 20-C ) :   1.2795
B( 19-C , 21-C ) :   1.4736 B( 19-C , 25-H ) :   0.2297 B( 20-C , 22-C ) :   1.4951
B( 20-C , 23-H ) :   0.9304 B( 21-C , 22-C ) :   1.3454 B( 21-C , 26-H ) :   0.9175
B( 22-C , 24-H ) :   0.9224

Dispersion correction           -0.024446802
FINAL SINGLE POINT ENERGY     -2061.388994069456
Dispersion correction            ... done

DIPOLE MOMENT
-------------
                                X             Y             Z
Electronic contribution:    -84.11868     -61.82485      29.52970
Nuclear contribution   :     87.08630      65.30753     -29.14475
                        -----------------------------------------
Total Dipole Moment    :      2.96762       3.48268       0.38496
                        -----------------------------------------
Magnitude (a.u.)       :      4.59174
Magnitude (Debye)      :     11.67128

Rotational constants in cm-1:     0.011567     0.007314     0.005665
Rotational constants in MHz :   346.763921   219.261892   169.821197

                             ****ORCA TERMINATED NORMALLY****
TOTAL RUN TIME: 0 days 0 hours 7 minutes 41 seconds 120 msec
