                         Program Version 5.0.3 -  RELEASE  -
|  1> ! EnGrad PBEh-3c
|  2> %output
|  3> xyzfile=True
|  4> end
|  5> %scf
|  6> maxiter 250
|  7> end
|  8> %output
|  9> Print[P_Hirshfeld] = 1
| 10> end
| 11> % maxcore
| 12> 4000
| 13> *xyz -1 1
| 14> Pd  -2.14409368  -1.68749436   0.66075739
| 15> Cl  -3.51385334  -3.25826267  -0.15842705
| 16> Cl  -0.73393213  -4.45485754   1.34176941
| 17> Cl  -3.97385448  -0.21506446   0.71827854
| 18> N   -0.97268844  -0.12293631   1.43274409
| 19> C   -1.27137960   0.43677612   2.59048784
| 20> C   -0.76260759   1.66571376   3.01185562
| 21> C    0.08509010   2.34356144   2.17023070
| 22> C   -0.06657695   0.48634342   0.61671071
| 23> C    0.45088099   1.77264306   0.94778648
| 24> H    0.48422409   3.30799984   2.45571946
| 25> H   -1.95207301  -0.11009880   3.20537413
| 26> H   -1.06798711   2.07643290   3.95980953
| 27> C    0.34141250  -0.19163454  -0.60441747
| 28> C    1.33445673   2.43708996   0.05126599
| 29> C    1.67874452   1.85198756  -1.12589906
| 30> C    1.21300641   0.54984280  -1.47915863
| 31> H    1.72025977   3.40597478   0.31152531
| 32> H    2.33839928   2.36871424  -1.80237449
| 33> C   -0.08312564  -1.57506834  -0.88759758
| 34> C    1.66363518  -0.05496740  -2.66270237
| 35> C    0.37448848  -2.02301931  -2.13025431
| 36> C    1.23759465  -1.31475423  -2.98949172
| 37> H    2.31486003   0.48562964  -3.32446383
| 38> H    1.60915771  -1.78531530  -3.88909669
| 39> H   -0.35578746  -3.39556355   0.02674238
| 40> H    0.04577014  -3.00056355  -2.44614256
| 41> *
| 42>
| 43>                          ****END OF INPUT****

CARTESIAN COORDINATES (ANGSTROEM)
---------------------------------
  Pd    -2.144094   -1.687494    0.660757
  Cl    -3.513853   -3.258263   -0.158427
  Cl    -0.733932   -4.454858    1.341769
  Cl    -3.973854   -0.215064    0.718279
  N     -0.972688   -0.122936    1.432744
  C     -1.271380    0.436776    2.590488
  C     -0.762608    1.665714    3.011856
  C      0.085090    2.343561    2.170231
  C     -0.066577    0.486343    0.616711
  C      0.450881    1.772643    0.947786
  H      0.484224    3.308000    2.455719
  H     -1.952073   -0.110099    3.205374
  H     -1.067987    2.076433    3.959810
  C      0.341412   -0.191635   -0.604417
  C      1.334457    2.437090    0.051266
  C      1.678745    1.851988   -1.125899
  C      1.213006    0.549843   -1.479159
  H      1.720260    3.405975    0.311525
  H      2.338399    2.368714   -1.802374
  C     -0.083126   -1.575068   -0.887598
  C      1.663635   -0.054967   -2.662702
  C      0.374488   -2.023019   -2.130254
  C      1.237595   -1.314754   -2.989492
  H      2.314860    0.485630   -3.324464
  H      1.609158   -1.785315   -3.889097
  H     -0.355787   -3.395564    0.026742
  H      0.045770   -3.000564   -2.446143

 Total Charge           Charge          ....   -1
 Multiplicity           Mult            ....    1
 Number of Electrons    NEL             ....  164
 Basis Dimension        Dim             ....  313

ORBITAL ENERGIES
----------------

  NO   OCC          E(Eh)            E(eV)
   0   2.0000    -102.118846     -2778.7951
   1   2.0000    -102.092254     -2778.0715
   2   2.0000    -102.086297     -2777.9094
   3   2.0000     -14.596313      -397.1859
   4   2.0000     -10.413422      -283.3636
   5   2.0000     -10.407101      -283.1916
   6   2.0000     -10.392168      -282.7853
   7   2.0000     -10.385701      -282.6093
   8   2.0000     -10.377679      -282.3910
   9   2.0000     -10.372709      -282.2558
  10   2.0000     -10.371740      -282.2294
  11   2.0000     -10.369999      -282.1820
  12   2.0000     -10.368159      -282.1319
  13   2.0000     -10.352188      -281.6973
  14   2.0000     -10.350411      -281.6490
  15   2.0000     -10.344167      -281.4791
  16   2.0000     -10.336704      -281.2760
  17   2.0000      -9.581495      -260.7257
  18   2.0000      -9.555631      -260.0219
  19   2.0000      -9.551484      -259.9091
  20   2.0000      -7.268241      -197.7789
  21   2.0000      -7.262243      -197.6157
  22   2.0000      -7.261617      -197.5987
  23   2.0000      -7.241867      -197.0612
  24   2.0000      -7.237966      -196.9551
  25   2.0000      -7.236520      -196.9157
  26   2.0000      -7.236254      -196.9085
  27   2.0000      -7.232050      -196.7941
  28   2.0000      -7.231691      -196.7843
  29   2.0000      -3.519995       -95.7839
  30   2.0000      -2.173484       -59.1435
  31   2.0000      -2.156483       -58.6809
  32   2.0000      -2.131985       -58.0143
  33   2.0000      -0.985464       -26.8158
  34   2.0000      -0.877028       -23.8652
  35   2.0000      -0.842883       -22.9360
  36   2.0000      -0.809890       -22.0382
  37   2.0000      -0.774007       -21.0618
  38   2.0000      -0.735487       -20.0136
  39   2.0000      -0.714888       -19.4531
  40   2.0000      -0.701811       -19.0972
  41   2.0000      -0.684251       -18.6194
  42   2.0000      -0.673156       -18.3175
  43   2.0000      -0.645045       -17.5526
  44   2.0000      -0.638133       -17.3645
  45   2.0000      -0.603929       -16.4337
  46   2.0000      -0.569833       -15.5059
  47   2.0000      -0.525174       -14.2907
  48   2.0000      -0.514141       -13.9905
  49   2.0000      -0.493682       -13.4338
  50   2.0000      -0.458210       -12.4685
  51   2.0000      -0.457794       -12.4572
  52   2.0000      -0.428169       -11.6511
  53   2.0000      -0.410793       -11.1782
  54   2.0000      -0.404217       -10.9993
  55   2.0000      -0.398787       -10.8515
  56   2.0000      -0.382174       -10.3995
  57   2.0000      -0.372205       -10.1282
  58   2.0000      -0.352814        -9.6006
  59   2.0000      -0.338298        -9.2056
  60   2.0000      -0.334187        -9.0937
  61   2.0000      -0.315418        -8.5830
  62   2.0000      -0.301737        -8.2107
  63   2.0000      -0.295746        -8.0477
  64   2.0000      -0.286889        -7.8066
  65   2.0000      -0.265416        -7.2223
  66   2.0000      -0.256283        -6.9738
  67   2.0000      -0.245911        -6.6916
  68   2.0000      -0.235981        -6.4214
  69   2.0000      -0.229743        -6.2516
  70   2.0000      -0.225080        -6.1247
  71   2.0000      -0.223211        -6.0739
  72   2.0000      -0.197163        -5.3651
  73   2.0000      -0.191128        -5.2009
  74   2.0000      -0.178503        -4.8573
  75   2.0000      -0.176707        -4.8084
  76   2.0000      -0.167145        -4.5482
  77   2.0000      -0.160106        -4.3567
  78   2.0000      -0.154779        -4.2118
  79   2.0000      -0.144419        -3.9298
  80   2.0000      -0.140472        -3.8224
  81   2.0000      -0.119203        -3.2437
  82   0.0000       0.045013         1.2249
  83   0.0000       0.062075         1.6891
  84   0.0000       0.068042         1.8515
  85   0.0000       0.110371         3.0034
  86   0.0000       0.124068         3.3761

MULLIKEN ATOMIC CHARGES
-----------------------
   0 Pd:    0.219204
   1 Cl:   -0.303609
   2 Cl:   -0.396753
   3 Cl:   -0.393494
   4 N :   -0.564350
   5 C :    0.052200
   6 C :   -0.325809
   7 C :   -0.158163
   8 C :    0.382639
   9 C :    0.049908
  10 H :    0.209707
  11 H :    0.273751
  12 H :    0.219397
  13 C :   -0.079846
  14 C :   -0.300600
  15 C :   -0.273262
  16 C :    0.136693
  17 H :    0.194187
  18 H :    0.195538
  19 C :   -0.173725
  20 C :   -0.318854
  21 C :   -0.310710
  22 C :   -0.183564
  23 H :    0.186791
  24 H :    0.192320
  25 H :    0.252939
  26 H :    0.217466
Sum of atomic charges:   -1.0000000

LOEWDIN ATOMIC CHARGES
----------------------
   0 Pd:   -0.811643
   1 Cl:   -0.032264
   2 Cl:   -0.299398
   3 Cl:   -0.126883
   4 N :    0.031079
   5 C :    0.009507
   6 C :   -0.170903
   7 C :   -0.085569
   8 C :    0.093930
   9 C :   -0.054057
  10 H :    0.134680
  11 H :    0.161310
  12 H :    0.140434
  13 C :   -0.028497
  14 C :   -0.145902
  15 C :   -0.116984
  16 C :   -0.036649
  17 H :    0.129762
  18 H :    0.130640
  19 C :   -0.132202
  20 C :   -0.155463
  21 C :   -0.154275
  22 C :   -0.134604
  23 H :    0.123163
  24 H :    0.125620
  25 H :    0.273012
  26 H :    0.132156

  Mayer bond orders larger than 0.100000
B(  0-Pd,  1-Cl) :   0.9651 B(  0-Pd,  2-Cl) :   0.1427 B(  0-Pd,  3-Cl) :   0.8469
B(  0-Pd,  4-N ) :   0.3825 B(  0-Pd, 19-C ) :   0.2784 B(  2-Cl, 25-H ) :   0.6440
B(  4-N ,  5-C ) :   1.4715 B(  4-N ,  8-C ) :   1.1586 B(  5-C ,  6-C ) :   1.3253
B(  5-C , 11-H ) :   0.8956 B(  6-C ,  7-C ) :   1.4561 B(  6-C , 12-H ) :   0.9196
B(  7-C ,  9-C ) :   1.2815 B(  7-C , 10-H ) :   0.9290 B(  8-C ,  9-C ) :   1.2197
B(  8-C , 13-C ) :   1.1396 B(  9-C , 14-C ) :   1.1727 B( 13-C , 16-C ) :   1.2703
B( 13-C , 19-C ) :   1.3147 B( 14-C , 15-C ) :   1.6338 B( 14-C , 17-H ) :   0.9295
B( 15-C , 16-C ) :   1.1616 B( 15-C , 18-H ) :   0.9277 B( 16-C , 20-C ) :   1.2759
B( 19-C , 21-C ) :   1.4826 B( 19-C , 25-H ) :   0.2009 B( 20-C , 22-C ) :   1.5039
B( 20-C , 23-H ) :   0.9300 B( 21-C , 22-C ) :   1.3388 B( 21-C , 26-H ) :   0.9172
B( 22-C , 24-H ) :   0.9230

Dispersion correction           -0.024307002
FINAL SINGLE POINT ENERGY     -2061.404672213376
Dispersion correction            ... done

DIPOLE MOMENT
-------------
                                X             Y             Z
Electronic contribution:    -83.53183     -62.10222      28.33151
Nuclear contribution   :     86.51546      65.41041     -27.85927
                        -----------------------------------------
Total Dipole Moment    :      2.98363       3.30818       0.47225
                        -----------------------------------------
Magnitude (a.u.)       :      4.47986
Magnitude (Debye)      :     11.38690

Rotational constants in cm-1:     0.011608     0.007378     0.005692
Rotational constants in MHz :   348.010630   221.183694   170.633814

                             ****ORCA TERMINATED NORMALLY****
TOTAL RUN TIME: 0 days 0 hours 7 minutes 32 seconds 713 msec
