                         Program Version 5.0.3 -  RELEASE  -
|  1> ! EnGrad PBEh-3c
|  2> %output
|  3> xyzfile=True
|  4> end
|  5> %scf
|  6> maxiter 250
|  7> end
|  8> %output
|  9> Print[P_Hirshfeld] = 1
| 10> end
| 11> % maxcore
| 12> 4000
| 13> *xyz -1 1
| 14> Pd  -2.14250866  -1.67705694   0.65727452
| 15> Cl  -3.52026518  -3.25953650  -0.15893660
| 16> Cl  -0.72956568  -4.43287296   1.32633575
| 17> Cl  -3.96619830  -0.21275145   0.71400207
| 18> N   -0.96496424  -0.12193702   1.42786496
| 19> C   -1.27166614   0.43257268   2.58817864
| 20> C   -0.76134675   1.66462165   3.01220155
| 21> C    0.08545959   2.34266355   2.17088749
| 22> C   -0.06799027   0.48280262   0.61246020
| 23> C    0.44780388   1.76408302   0.94923914
| 24> H    0.48338179   3.30685231   2.45530374
| 25> H   -1.95538248  -0.11317240   3.20847854
| 26> H   -1.06679597   2.07366886   3.96083693
| 27> C    0.34019469  -0.20168402  -0.60169857
| 28> C    1.33312335   2.43464787   0.04829904
| 29> C    1.67544910   1.85132877  -1.12446036
| 30> C    1.20617933   0.54100489  -1.47236429
| 31> H    1.71890609   3.40784787   0.31196772
| 32> H    2.33730437   2.36982232  -1.80455278
| 33> C   -0.07275479  -1.56474116  -0.88829852
| 34> C    1.66054634  -0.05412713  -2.66324904
| 35> C    0.37150652  -2.02705830  -2.12341346
| 36> C    1.23665668  -1.31670291  -2.98566388
| 37> H    2.31642814   0.48808406  -3.32658575
| 38> H    1.60885406  -1.78565172  -3.89102503
| 39> H   -0.35978192  -3.38818375   0.04545680
| 40> H    0.05076958  -3.00494315  -2.44698211
| 41> *
| 42>
| 43>                          ****END OF INPUT****

CARTESIAN COORDINATES (ANGSTROEM)
---------------------------------
  Pd    -2.142509   -1.677057    0.657275
  Cl    -3.520265   -3.259536   -0.158937
  Cl    -0.729566   -4.432873    1.326336
  Cl    -3.966198   -0.212751    0.714002
  N     -0.964964   -0.121937    1.427865
  C     -1.271666    0.432573    2.588179
  C     -0.761347    1.664622    3.012202
  C      0.085460    2.342664    2.170887
  C     -0.067990    0.482803    0.612460
  C      0.447804    1.764083    0.949239
  H      0.483382    3.306852    2.455304
  H     -1.955382   -0.113172    3.208479
  H     -1.066796    2.073669    3.960837
  C      0.340195   -0.201684   -0.601699
  C      1.333123    2.434648    0.048299
  C      1.675449    1.851329   -1.124460
  C      1.206179    0.541005   -1.472364
  H      1.718906    3.407848    0.311968
  H      2.337304    2.369822   -1.804553
  C     -0.072755   -1.564741   -0.888299
  C      1.660546   -0.054127   -2.663249
  C      0.371507   -2.027058   -2.123413
  C      1.236657   -1.316703   -2.985664
  H      2.316428    0.488084   -3.326586
  H      1.608854   -1.785652   -3.891025
  H     -0.359782   -3.388184    0.045457
  H      0.050770   -3.004943   -2.446982

 Total Charge           Charge          ....   -1
 Multiplicity           Mult            ....    1
 Number of Electrons    NEL             ....  164
 Basis Dimension        Dim             ....  313

ORBITAL ENERGIES
----------------

  NO   OCC          E(Eh)            E(eV)
   0   2.0000    -102.121790     -2778.8752
   1   2.0000    -102.091917     -2778.0623
   2   2.0000    -102.084813     -2777.8690
   3   2.0000     -14.595801      -397.1719
   4   2.0000     -10.412186      -283.3300
   5   2.0000     -10.408003      -283.2162
   6   2.0000     -10.391910      -282.7782
   7   2.0000     -10.385575      -282.6059
   8   2.0000     -10.377800      -282.3943
   9   2.0000     -10.372429      -282.2482
  10   2.0000     -10.371448      -282.2214
  11   2.0000     -10.369226      -282.1610
  12   2.0000     -10.365092      -282.0485
  13   2.0000     -10.351807      -281.6870
  14   2.0000     -10.350305      -281.6461
  15   2.0000     -10.339059      -281.3401
  16   2.0000     -10.335967      -281.2560
  17   2.0000      -9.584669      -260.8121
  18   2.0000      -9.555387      -260.0153
  19   2.0000      -9.549832      -259.8641
  20   2.0000      -7.271460      -197.8665
  21   2.0000      -7.265359      -197.7005
  22   2.0000      -7.264737      -197.6836
  23   2.0000      -7.241611      -197.0543
  24   2.0000      -7.236287      -196.9094
  25   2.0000      -7.236273      -196.9090
  26   2.0000      -7.236002      -196.9016
  27   2.0000      -7.230434      -196.7501
  28   2.0000      -7.230083      -196.7405
  29   2.0000      -3.518984       -95.7564
  30   2.0000      -2.172207       -59.1088
  31   2.0000      -2.155742       -58.6607
  32   2.0000      -2.130908       -57.9850
  33   2.0000      -0.986747       -26.8507
  34   2.0000      -0.876439       -23.8491
  35   2.0000      -0.842609       -22.9285
  36   2.0000      -0.809618       -22.0308
  37   2.0000      -0.773835       -21.0571
  38   2.0000      -0.734895       -19.9975
  39   2.0000      -0.715127       -19.4596
  40   2.0000      -0.706205       -19.2168
  41   2.0000      -0.683394       -18.5961
  42   2.0000      -0.672227       -18.2922
  43   2.0000      -0.644428       -17.5358
  44   2.0000      -0.637991       -17.3606
  45   2.0000      -0.603799       -16.4302
  46   2.0000      -0.568764       -15.4769
  47   2.0000      -0.524649       -14.2764
  48   2.0000      -0.513743       -13.9797
  49   2.0000      -0.493017       -13.4157
  50   2.0000      -0.457337       -12.4448
  51   2.0000      -0.456790       -12.4299
  52   2.0000      -0.428107       -11.6494
  53   2.0000      -0.411358       -11.1936
  54   2.0000      -0.404021       -10.9940
  55   2.0000      -0.398224       -10.8362
  56   2.0000      -0.382041       -10.3959
  57   2.0000      -0.371999       -10.1226
  58   2.0000      -0.350959        -9.5501
  59   2.0000      -0.337686        -9.1889
  60   2.0000      -0.334534        -9.1031
  61   2.0000      -0.314669        -8.5626
  62   2.0000      -0.302657        -8.2357
  63   2.0000      -0.298373        -8.1192
  64   2.0000      -0.287918        -7.8346
  65   2.0000      -0.264902        -7.2084
  66   2.0000      -0.255855        -6.9622
  67   2.0000      -0.246676        -6.7124
  68   2.0000      -0.234532        -6.3819
  69   2.0000      -0.229538        -6.2460
  70   2.0000      -0.223804        -6.0900
  71   2.0000      -0.222114        -6.0440
  72   2.0000      -0.199189        -5.4202
  73   2.0000      -0.193368        -5.2618
  74   2.0000      -0.178433        -4.8554
  75   2.0000      -0.175729        -4.7818
  76   2.0000      -0.166417        -4.5284
  77   2.0000      -0.159470        -4.3394
  78   2.0000      -0.154445        -4.2027
  79   2.0000      -0.143654        -3.9090
  80   2.0000      -0.140090        -3.8120
  81   2.0000      -0.117304        -3.1920
  82   0.0000       0.046056         1.2533
  83   0.0000       0.063639         1.7317
  84   0.0000       0.069269         1.8849
  85   0.0000       0.110198         2.9987
  86   0.0000       0.129001         3.5103

MULLIKEN ATOMIC CHARGES
-----------------------
   0 Pd:    0.215241
   1 Cl:   -0.309981
   2 Cl:   -0.390223
   3 Cl:   -0.391936
   4 N :   -0.566201
   5 C :    0.050485
   6 C :   -0.327136
   7 C :   -0.154650
   8 C :    0.390613
   9 C :    0.040303
  10 H :    0.210398
  11 H :    0.274349
  12 H :    0.219156
  13 C :   -0.059500
  14 C :   -0.301668
  15 C :   -0.269898
  16 C :    0.120692
  17 H :    0.193326
  18 H :    0.195140
  19 C :   -0.173743
  20 C :   -0.316829
  21 C :   -0.309245
  22 C :   -0.189935
  23 H :    0.186839
  24 H :    0.190611
  25 H :    0.256676
  26 H :    0.217118
Sum of atomic charges:   -1.0000000

LOEWDIN ATOMIC CHARGES
----------------------
   0 Pd:   -0.813760
   1 Cl:   -0.042531
   2 Cl:   -0.287818
   3 Cl:   -0.122257
   4 N :    0.033115
   5 C :    0.010240
   6 C :   -0.170256
   7 C :   -0.086787
   8 C :    0.093042
   9 C :   -0.052699
  10 H :    0.135050
  11 H :    0.162001
  12 H :    0.140016
  13 C :   -0.031566
  14 C :   -0.146020
  15 C :   -0.117236
  16 C :   -0.034810
  17 H :    0.129262
  18 H :    0.130566
  19 C :   -0.135354
  20 C :   -0.156494
  21 C :   -0.152348
  22 C :   -0.134357
  23 H :    0.123198
  24 H :    0.124514
  25 H :    0.271286
  26 H :    0.132004

  Mayer bond orders larger than 0.100000
B(  0-Pd,  1-Cl) :   0.9584 B(  0-Pd,  2-Cl) :   0.1395 B(  0-Pd,  3-Cl) :   0.8494
B(  0-Pd,  4-N ) :   0.3854 B(  0-Pd, 19-C ) :   0.2857 B(  2-Cl, 25-H ) :   0.6560
B(  4-N ,  5-C ) :   1.4665 B(  4-N ,  8-C ) :   1.1619 B(  5-C ,  6-C ) :   1.3273
B(  5-C , 11-H ) :   0.8952 B(  6-C ,  7-C ) :   1.4536 B(  6-C , 12-H ) :   0.9194
B(  7-C ,  9-C ) :   1.2843 B(  7-C , 10-H ) :   0.9286 B(  8-C ,  9-C ) :   1.2166
B(  8-C , 13-C ) :   1.1301 B(  9-C , 14-C ) :   1.1678 B( 13-C , 16-C ) :   1.2742
B( 13-C , 19-C ) :   1.3236 B( 14-C , 15-C ) :   1.6404 B( 14-C , 17-H ) :   0.9296
B( 15-C , 16-C ) :   1.1553 B( 15-C , 18-H ) :   0.9279 B( 16-C , 20-C ) :   1.2791
B( 19-C , 21-C ) :   1.4835 B( 19-C , 25-H ) :   0.1906 B( 20-C , 22-C ) :   1.5020
B( 20-C , 23-H ) :   0.9302 B( 21-C , 22-C ) :   1.3419 B( 21-C , 26-H ) :   0.9172
B( 22-C , 24-H ) :   0.9231

Dispersion correction           -0.024279048
FINAL SINGLE POINT ENERGY     -2061.411059515300
Dispersion correction            ... done

DIPOLE MOMENT
-------------
                                X             Y             Z
Electronic contribution:    -83.45630     -61.66385      28.26258
Nuclear contribution   :     86.45083      64.92772     -27.74100
                        -----------------------------------------
Total Dipole Moment    :      2.99453       3.26386       0.52158
                        -----------------------------------------
Magnitude (a.u.)       :      4.46005
Magnitude (Debye)      :     11.33655

Rotational constants in cm-1:     0.011643     0.007413     0.005712
Rotational constants in MHz :   349.042236   222.224898   171.227913

                             ****ORCA TERMINATED NORMALLY****
TOTAL RUN TIME: 0 days 0 hours 7 minutes 26 seconds 576 msec
