                         Program Version 5.0.3 -  RELEASE  -
|  1> ! EnGrad PBEh-3c
|  2> %output
|  3> xyzfile=True
|  4> end
|  5> %scf
|  6> maxiter 250
|  7> end
|  8> %output
|  9> Print[P_Hirshfeld] = 1
| 10> end
| 11> % maxcore
| 12> 4000
| 13> *xyz -1 1
| 14> Pd  -2.12360343  -1.65786614   0.61317287
| 15> Cl  -3.53809575  -3.25188752  -0.15453970
| 16> Cl  -0.69699965  -4.32704522   1.23466953
| 17> Cl  -3.94235422  -0.19816270   0.70660167
| 18> N   -0.95937336  -0.12767943   1.42108887
| 19> C   -1.27407131   0.42314191   2.58348972
| 20> C   -0.75681954   1.65252036   3.01235259
| 21> C    0.08434693   2.33396803   2.17158066
| 22> C   -0.06667095   0.46580097   0.60823830
| 23> C    0.44392124   1.74680810   0.95032933
| 24> H    0.48166581   3.30283371   2.45032724
| 25> H   -1.96469164  -0.12216818   3.21514102
| 26> H   -1.06292192   2.06300196   3.96404507
| 27> C    0.34085617  -0.23228186  -0.59333617
| 28> C    1.32572159   2.42832198   0.04366203
| 29> C    1.66391221   1.84670021  -1.12197924
| 30> C    1.19201794   0.52133301  -1.46099374
| 31> H    1.71206307   3.41094289   0.31360394
| 32> H    2.33055265   2.36920919  -1.81184833
| 33> C   -0.05561363  -1.57060517  -0.87223107
| 34> C    1.65283450  -0.05257538  -2.66330927
| 35> C    0.37330120  -2.04115444  -2.10867082
| 36> C    1.22755305  -1.31969953  -2.98067664
| 37> H    2.32067271   0.49730409  -3.32901805
| 38> H    1.60490795  -1.78771618  -3.89361430
| 39> H   -0.38983130  -3.35018903   0.15137317
| 40> H    0.06626579  -3.02208715  -2.44588695
| 41> *
| 42>
| 43>                          ****END OF INPUT****

CARTESIAN COORDINATES (ANGSTROEM)
---------------------------------
  Pd    -2.123603   -1.657866    0.613173
  Cl    -3.538096   -3.251888   -0.154540
  Cl    -0.697000   -4.327045    1.234670
  Cl    -3.942354   -0.198163    0.706602
  N     -0.959373   -0.127679    1.421089
  C     -1.274071    0.423142    2.583490
  C     -0.756820    1.652520    3.012353
  C      0.084347    2.333968    2.171581
  C     -0.066671    0.465801    0.608238
  C      0.443921    1.746808    0.950329
  H      0.481666    3.302834    2.450327
  H     -1.964692   -0.122168    3.215141
  H     -1.062922    2.063002    3.964045
  C      0.340856   -0.232282   -0.593336
  C      1.325722    2.428322    0.043662
  C      1.663912    1.846700   -1.121979
  C      1.192018    0.521333   -1.460994
  H      1.712063    3.410943    0.313604
  H      2.330553    2.369209   -1.811848
  C     -0.055614   -1.570605   -0.872231
  C      1.652834   -0.052575   -2.663309
  C      0.373301   -2.041154   -2.108671
  C      1.227553   -1.319700   -2.980677
  H      2.320673    0.497304   -3.329018
  H      1.604908   -1.787716   -3.893614
  H     -0.389831   -3.350189    0.151373
  H      0.066266   -3.022087   -2.445887

 Total Charge           Charge          ....   -1
 Multiplicity           Mult            ....    1
 Number of Electrons    NEL             ....  164
 Basis Dimension        Dim             ....  313

ORBITAL ENERGIES
----------------

  NO   OCC          E(Eh)            E(eV)
   0   2.0000    -102.134990     -2779.2344
   1   2.0000    -102.088105     -2777.9586
   2   2.0000    -102.081390     -2777.7759
   3   2.0000     -14.593411      -397.1069
   4   2.0000     -10.408505      -283.2298
   5   2.0000     -10.407413      -283.2001
   6   2.0000     -10.389888      -282.7232
   7   2.0000     -10.383437      -282.5477
   8   2.0000     -10.376016      -282.3457
   9   2.0000     -10.370536      -282.1966
  10   2.0000     -10.369204      -282.1604
  11   2.0000     -10.365998      -282.0731
  12   2.0000     -10.357844      -281.8513
  13   2.0000     -10.349795      -281.6322
  14   2.0000     -10.348871      -281.6071
  15   2.0000     -10.333716      -281.1947
  16   2.0000     -10.327346      -281.0214
  17   2.0000      -9.600064      -261.2310
  18   2.0000      -9.551685      -259.9146
  19   2.0000      -9.546230      -259.7661
  20   2.0000      -7.286867      -198.2857
  21   2.0000      -7.280490      -198.1122
  22   2.0000      -7.279900      -198.0962
  23   2.0000      -7.237833      -196.9514
  24   2.0000      -7.232618      -196.8095
  25   2.0000      -7.232589      -196.8087
  26   2.0000      -7.232324      -196.8015
  27   2.0000      -7.226921      -196.6545
  28   2.0000      -7.226578      -196.6452
  29   2.0000      -3.515759       -95.6687
  30   2.0000      -2.168574       -59.0099
  31   2.0000      -2.152872       -58.5826
  32   2.0000      -2.127600       -57.8949
  33   2.0000      -0.986387       -26.8409
  34   2.0000      -0.873267       -23.7628
  35   2.0000      -0.840278       -22.8651
  36   2.0000      -0.807059       -21.9612
  37   2.0000      -0.771187       -20.9851
  38   2.0000      -0.736473       -20.0404
  39   2.0000      -0.731675       -19.9099
  40   2.0000      -0.711704       -19.3664
  41   2.0000      -0.680316       -18.5123
  42   2.0000      -0.668869       -18.2008
  43   2.0000      -0.641126       -17.4459
  44   2.0000      -0.635285       -17.2870
  45   2.0000      -0.600556       -16.3419
  46   2.0000      -0.564800       -15.3690
  47   2.0000      -0.521495       -14.1906
  48   2.0000      -0.510380       -13.8881
  49   2.0000      -0.489779       -13.3276
  50   2.0000      -0.454033       -12.3549
  51   2.0000      -0.452361       -12.3094
  52   2.0000      -0.425037       -11.5659
  53   2.0000      -0.410080       -11.1588
  54   2.0000      -0.402150       -10.9431
  55   2.0000      -0.394614       -10.7380
  56   2.0000      -0.378888       -10.3101
  57   2.0000      -0.369207       -10.0466
  58   2.0000      -0.351079        -9.5534
  59   2.0000      -0.336700        -9.1621
  60   2.0000      -0.334893        -9.1129
  61   2.0000      -0.323678        -8.8077
  62   2.0000      -0.311241        -8.4693
  63   2.0000      -0.298212        -8.1147
  64   2.0000      -0.285512        -7.7692
  65   2.0000      -0.262868        -7.1530
  66   2.0000      -0.253769        -6.9054
  67   2.0000      -0.247375        -6.7314
  68   2.0000      -0.235315        -6.4032
  69   2.0000      -0.229231        -6.2377
  70   2.0000      -0.221768        -6.0346
  71   2.0000      -0.218132        -5.9357
  72   2.0000      -0.211136        -5.7453
  73   2.0000      -0.202839        -5.5195
  74   2.0000      -0.176668        -4.8074
  75   2.0000      -0.171967        -4.6795
  76   2.0000      -0.165050        -4.4912
  77   2.0000      -0.156442        -4.2570
  78   2.0000      -0.151535        -4.1235
  79   2.0000      -0.140651        -3.8273
  80   2.0000      -0.139107        -3.7853
  81   2.0000      -0.112814        -3.0698
  82   0.0000       0.049595         1.3496
  83   0.0000       0.068511         1.8643
  84   0.0000       0.073101         1.9892
  85   0.0000       0.112026         3.0484
  86   0.0000       0.145440         3.9576

MULLIKEN ATOMIC CHARGES
-----------------------
   0 Pd:    0.196036
   1 Cl:   -0.324282
   2 Cl:   -0.363507
   3 Cl:   -0.393876
   4 N :   -0.567081
   5 C :    0.048405
   6 C :   -0.329710
   7 C :   -0.150565
   8 C :    0.392715
   9 C :    0.030652
  10 H :    0.210234
  11 H :    0.272690
  12 H :    0.217664
  13 C :   -0.020024
  14 C :   -0.302695
  15 C :   -0.265029
  16 C :    0.099330
  17 H :    0.190912
  18 H :    0.193136
  19 C :   -0.183618
  20 C :   -0.316810
  21 C :   -0.311567
  22 C :   -0.197189
  23 H :    0.185678
  24 H :    0.186448
  25 H :    0.288488
  26 H :    0.213565
Sum of atomic charges:   -1.0000000

LOEWDIN ATOMIC CHARGES
----------------------
   0 Pd:   -0.831785
   1 Cl:   -0.060801
   2 Cl:   -0.223731
   3 Cl:   -0.123886
   4 N :    0.036396
   5 C :    0.009559
   6 C :   -0.170874
   7 C :   -0.088911
   8 C :    0.093181
   9 C :   -0.051299
  10 H :    0.135091
  11 H :    0.162341
  12 H :    0.139144
  13 C :   -0.036367
  14 C :   -0.147460
  15 C :   -0.117628
  16 C :   -0.032669
  17 H :    0.128103
  18 H :    0.129908
  19 C :   -0.143509
  20 C :   -0.158510
  21 C :   -0.147976
  22 C :   -0.135109
  23 H :    0.122801
  24 H :    0.122308
  25 H :    0.260644
  26 H :    0.131041

  Mayer bond orders larger than 0.100000
B(  0-Pd,  1-Cl) :   0.9471 B(  0-Pd,  2-Cl) :   0.1297 B(  0-Pd,  3-Cl) :   0.8400
B(  0-Pd,  4-N ) :   0.3919 B(  0-Pd, 19-C ) :   0.3323 B(  2-Cl, 25-H ) :   0.7074
B(  4-N ,  5-C ) :   1.4595 B(  4-N ,  8-C ) :   1.1641 B(  5-C ,  6-C ) :   1.3308
B(  5-C , 11-H ) :   0.8957 B(  6-C ,  7-C ) :   1.4469 B(  6-C , 12-H ) :   0.9196
B(  7-C ,  9-C ) :   1.2900 B(  7-C , 10-H ) :   0.9283 B(  8-C ,  9-C ) :   1.2109
B(  8-C , 13-C ) :   1.1181 B(  9-C , 14-C ) :   1.1608 B( 13-C , 16-C ) :   1.2720
B( 13-C , 19-C ) :   1.3123 B( 14-C , 15-C ) :   1.6477 B( 14-C , 17-H ) :   0.9299
B( 15-C , 16-C ) :   1.1452 B( 15-C , 18-H ) :   0.9285 B( 16-C , 20-C ) :   1.2875
B( 19-C , 21-C ) :   1.4801 B( 19-C , 25-H ) :   0.1432 B( 20-C , 22-C ) :   1.4917
B( 20-C , 23-H ) :   0.9308 B( 21-C , 22-C ) :   1.3498 B( 21-C , 26-H ) :   0.9175
B( 22-C , 24-H ) :   0.9240

Dispersion correction           -0.024329129
FINAL SINGLE POINT ENERGY     -2061.434485917314
Dispersion correction            ... done

DIPOLE MOMENT
-------------
                                X             Y             Z
Electronic contribution:    -82.55428     -61.29078      26.46775
Nuclear contribution   :     85.59122      64.23741     -25.77349
                        -----------------------------------------
Total Dipole Moment    :      3.03694       2.94663       0.69426
                        -----------------------------------------
Magnitude (a.u.)       :      4.28808
Magnitude (Debye)      :     10.89944

Rotational constants in cm-1:     0.011782     0.007578     0.005794
Rotational constants in MHz :   353.213000   227.167988   173.686630

                             ****ORCA TERMINATED NORMALLY****
TOTAL RUN TIME: 0 days 0 hours 7 minutes 58 seconds 285 msec
