                         Program Version 5.0.3 -  RELEASE  -
|  1> ! EnGrad PBEh-3c
|  2> %output
|  3> xyzfile=True
|  4> end
|  5> %scf
|  6> maxiter 250
|  7> end
|  8> %output
|  9> Print[P_Hirshfeld] = 1
| 10> end
| 11> % maxcore
| 12> 4000
| 13> *xyz -1 1
| 14> Pd  -2.11679564  -1.63574459   0.59585118
| 15> Cl  -3.55211977  -3.25082385  -0.15526212
| 16> Cl  -0.67929442  -4.25952257   1.18617351
| 17> Cl  -3.92358186  -0.18976490   0.69929574
| 18> N   -0.95667594  -0.13421003   1.42013654
| 19> C   -1.27368742   0.41711864   2.58183416
| 20> C   -0.75759113   1.64178918   3.01207286
| 21> C    0.08391975   2.32431079   2.16960080
| 22> C   -0.06489385   0.45790692   0.60314388
| 23> C    0.44515057   1.73864034   0.94859258
| 24> H    0.48026221   3.29984240   2.44741069
| 25> H   -1.96937117  -0.12785115   3.21668529
| 26> H   -1.05994351   2.05510632   3.96665302
| 27> C    0.34830017  -0.24019505  -0.58784272
| 28> C    1.31890474   2.42469561   0.04587086
| 29> C    1.65492221   1.83741282  -1.12389983
| 30> C    1.18899591   0.51148497  -1.45729533
| 31> H    1.70539434   3.40944463   0.31358952
| 32> H    2.32224583   2.36606704  -1.81436537
| 33> C   -0.04669062  -1.57125773  -0.86250565
| 34> C    1.64295883  -0.05266774  -2.66008427
| 35> C    0.37917921  -2.04824434  -2.10385376
| 36> C    1.22388300  -1.32794265  -2.97553982
| 37> H    2.31920995   0.50080176  -3.32790251
| 38> H    1.59990031  -1.78732441  -3.89294400
| 39> H   -0.40217375  -3.32190619   0.20479310
| 40> H    0.07749530  -3.03510381  -2.44490199
| 41> *
| 42>
| 43>                          ****END OF INPUT****

CARTESIAN COORDINATES (ANGSTROEM)
---------------------------------
  Pd    -2.116796   -1.635745    0.595851
  Cl    -3.552120   -3.250824   -0.155262
  Cl    -0.679294   -4.259523    1.186174
  Cl    -3.923582   -0.189765    0.699296
  N     -0.956676   -0.134210    1.420137
  C     -1.273687    0.417119    2.581834
  C     -0.757591    1.641789    3.012073
  C      0.083920    2.324311    2.169601
  C     -0.064894    0.457907    0.603144
  C      0.445151    1.738640    0.948593
  H      0.480262    3.299842    2.447411
  H     -1.969371   -0.127851    3.216685
  H     -1.059944    2.055106    3.966653
  C      0.348300   -0.240195   -0.587843
  C      1.318905    2.424696    0.045871
  C      1.654922    1.837413   -1.123900
  C      1.188996    0.511485   -1.457295
  H      1.705394    3.409445    0.313590
  H      2.322246    2.366067   -1.814365
  C     -0.046691   -1.571258   -0.862506
  C      1.642959   -0.052668   -2.660084
  C      0.379179   -2.048244   -2.103854
  C      1.223883   -1.327943   -2.975540
  H      2.319210    0.500802   -3.327903
  H      1.599900   -1.787324   -3.892944
  H     -0.402174   -3.321906    0.204793
  H      0.077495   -3.035104   -2.444902

 Total Charge           Charge          ....   -1
 Multiplicity           Mult            ....    1
 Number of Electrons    NEL             ....  164
 Basis Dimension        Dim             ....  313

ORBITAL ENERGIES
----------------

  NO   OCC          E(Eh)            E(eV)
   0   2.0000    -102.138586     -2779.3322
   1   2.0000    -102.087383     -2777.9389
   2   2.0000    -102.078357     -2777.6933
   3   2.0000     -14.593000      -397.0957
   4   2.0000     -10.407117      -283.1920
   5   2.0000     -10.406741      -283.1818
   6   2.0000     -10.389410      -282.7102
   7   2.0000     -10.381849      -282.5045
   8   2.0000     -10.375127      -282.3215
   9   2.0000     -10.369860      -282.1782
  10   2.0000     -10.368258      -282.1346
  11   2.0000     -10.363326      -282.0004
  12   2.0000     -10.353957      -281.7455
  13   2.0000     -10.348560      -281.5986
  14   2.0000     -10.347913      -281.5810
  15   2.0000     -10.332831      -281.1706
  16   2.0000     -10.322955      -280.9019
  17   2.0000      -9.605608      -261.3819
  18   2.0000      -9.551149      -259.9000
  19   2.0000      -9.542930      -259.6763
  20   2.0000      -7.292272      -198.4328
  21   2.0000      -7.285913      -198.2598
  22   2.0000      -7.285327      -198.2438
  23   2.0000      -7.237280      -196.9364
  24   2.0000      -7.232082      -196.7950
  25   2.0000      -7.231766      -196.7863
  26   2.0000      -7.229212      -196.7169
  27   2.0000      -7.223702      -196.5669
  28   2.0000      -7.223370      -196.5579
  29   2.0000      -3.514539       -95.6355
  30   2.0000      -2.166878       -58.9637
  31   2.0000      -2.152212       -58.5647
  32   2.0000      -2.126263       -57.8586
  33   2.0000      -0.985780       -26.8244
  34   2.0000      -0.873423       -23.7670
  35   2.0000      -0.839652       -22.8481
  36   2.0000      -0.806224       -21.9385
  37   2.0000      -0.770244       -20.9594
  38   2.0000      -0.754194       -20.5226
  39   2.0000      -0.731888       -19.9157
  40   2.0000      -0.709606       -19.3094
  41   2.0000      -0.679187       -18.4816
  42   2.0000      -0.666391       -18.1334
  43   2.0000      -0.639839       -17.4109
  44   2.0000      -0.634668       -17.2702
  45   2.0000      -0.599392       -16.3103
  46   2.0000      -0.563919       -15.3450
  47   2.0000      -0.520369       -14.1600
  48   2.0000      -0.509138       -13.8543
  49   2.0000      -0.488656       -13.2970
  50   2.0000      -0.452768       -12.3204
  51   2.0000      -0.451061       -12.2740
  52   2.0000      -0.422978       -11.5098
  53   2.0000      -0.409067       -11.1313
  54   2.0000      -0.401953       -10.9377
  55   2.0000      -0.394221       -10.7273
  56   2.0000      -0.377596       -10.2749
  57   2.0000      -0.369622       -10.0579
  58   2.0000      -0.359185        -9.7739
  59   2.0000      -0.339542        -9.2394
  60   2.0000      -0.335066        -9.1176
  61   2.0000      -0.326436        -8.8828
  62   2.0000      -0.310295        -8.4436
  63   2.0000      -0.297711        -8.1011
  64   2.0000      -0.284043        -7.7292
  65   2.0000      -0.262064        -7.1311
  66   2.0000      -0.252859        -6.8806
  67   2.0000      -0.249955        -6.8016
  68   2.0000      -0.236684        -6.4405
  69   2.0000      -0.230099        -6.2613
  70   2.0000      -0.221532        -6.0282
  71   2.0000      -0.219064        -5.9610
  72   2.0000      -0.211541        -5.7563
  73   2.0000      -0.204579        -5.5669
  74   2.0000      -0.176219        -4.7952
  75   2.0000      -0.170514        -4.6399
  76   2.0000      -0.163745        -4.4557
  77   2.0000      -0.154682        -4.2091
  78   2.0000      -0.149650        -4.0722
  79   2.0000      -0.139074        -3.7844
  80   2.0000      -0.138040        -3.7562
  81   2.0000      -0.110887        -3.0174
  82   0.0000       0.050083         1.3628
  83   0.0000       0.071410         1.9432
  84   0.0000       0.073868         2.0101
  85   0.0000       0.113706         3.0941
  86   0.0000       0.149057         4.0561

MULLIKEN ATOMIC CHARGES
-----------------------
   0 Pd:    0.187164
   1 Cl:   -0.337862
   2 Cl:   -0.353567
   3 Cl:   -0.389849
   4 N :   -0.572124
   5 C :    0.048189
   6 C :   -0.328387
   7 C :   -0.154088
   8 C :    0.393340
   9 C :    0.032413
  10 H :    0.209431
  11 H :    0.271955
  12 H :    0.217175
  13 C :   -0.007543
  14 C :   -0.303678
  15 C :   -0.271837
  16 C :    0.110175
  17 H :    0.190877
  18 H :    0.191962
  19 C :   -0.188323
  20 C :   -0.323884
  21 C :   -0.315010
  22 C :   -0.196129
  23 H :    0.184259
  24 H :    0.185865
  25 H :    0.308403
  26 H :    0.211070
Sum of atomic charges:   -1.0000000

LOEWDIN ATOMIC CHARGES
----------------------
   0 Pd:   -0.839290
   1 Cl:   -0.081210
   2 Cl:   -0.187806
   3 Cl:   -0.114859
   4 N :    0.037597
   5 C :    0.008787
   6 C :   -0.171639
   7 C :   -0.088611
   8 C :    0.095383
   9 C :   -0.051916
  10 H :    0.134801
  11 H :    0.162603
  12 H :    0.139044
  13 C :   -0.039874
  14 C :   -0.148620
  15 C :   -0.116262
  16 C :   -0.033459
  17 H :    0.128106
  18 H :    0.129343
  19 C :   -0.144507
  20 C :   -0.158530
  21 C :   -0.146660
  22 C :   -0.135396
  23 H :    0.122348
  24 H :    0.121774
  25 H :    0.248347
  26 H :    0.130506

  Mayer bond orders larger than 0.100000
B(  0-Pd,  1-Cl) :   0.9329 B(  0-Pd,  2-Cl) :   0.1289 B(  0-Pd,  3-Cl) :   0.8443
B(  0-Pd,  4-N ) :   0.4011 B(  0-Pd, 19-C ) :   0.3521 B(  2-Cl, 25-H ) :   0.7249
B(  4-N ,  5-C ) :   1.4545 B(  4-N ,  8-C ) :   1.1573 B(  5-C ,  6-C ) :   1.3331
B(  5-C , 11-H ) :   0.8960 B(  6-C ,  7-C ) :   1.4444 B(  6-C , 12-H ) :   0.9196
B(  7-C ,  9-C ) :   1.2908 B(  7-C , 10-H ) :   0.9285 B(  8-C ,  9-C ) :   1.2095
B(  8-C , 13-C ) :   1.1218 B(  9-C , 14-C ) :   1.1619 B( 13-C , 16-C ) :   1.2643
B( 13-C , 19-C ) :   1.3018 B( 14-C , 15-C ) :   1.6463 B( 14-C , 17-H ) :   0.9301
B( 15-C , 16-C ) :   1.1438 B( 15-C , 18-H ) :   0.9291 B( 16-C , 20-C ) :   1.2922
B( 19-C , 21-C ) :   1.4724 B( 19-C , 25-H ) :   0.1264 B( 20-C , 22-C ) :   1.4805
B( 20-C , 23-H ) :   0.9317 B( 21-C , 22-C ) :   1.3597 B( 21-C , 26-H ) :   0.9180
B( 22-C , 24-H ) :   0.9240

Dispersion correction           -0.024421363
FINAL SINGLE POINT ENERGY     -2061.442647593565
Dispersion correction            ... done

DIPOLE MOMENT
-------------
                                X             Y             Z
Electronic contribution:    -82.24662     -60.45065      25.82988
Nuclear contribution   :     85.31211      63.28239     -25.05628
                        -----------------------------------------
Total Dipole Moment    :      3.06549       2.83174       0.77361
                        -----------------------------------------
Magnitude (a.u.)       :      4.24434
Magnitude (Debye)      :     10.78825

Rotational constants in cm-1:     0.011867     0.007679     0.005845
Rotational constants in MHz :   355.764768   230.205437   175.223801

                             ****ORCA TERMINATED NORMALLY****
TOTAL RUN TIME: 0 days 0 hours 8 minutes 17 seconds 89 msec
