                         Program Version 5.0.3 -  RELEASE  -
|  1> ! EnGrad PBEh-3c
|  2> %output
|  3> xyzfile=True
|  4> end
|  5> %scf
|  6> maxiter 250
|  7> end
|  8> %output
|  9> Print[P_Hirshfeld] = 1
| 10> end
| 11> % maxcore
| 12> 4000
| 13> *xyz -1 1
| 14> Pd  -2.10044602  -1.60830573   0.55405278
| 15> Cl  -3.56645806  -3.24418978  -0.15675050
| 16> Cl  -0.64342419  -4.16114931   1.10787587
| 17> Cl  -3.90102803  -0.17665114   0.69860878
| 18> N   -0.95949023  -0.14488504   1.41937787
| 19> C   -1.27820175   0.40615174   2.58259823
| 20> C   -0.75773259   1.62794273   3.01242664
| 21> C    0.08307890   2.31063966   2.16708712
| 22> C   -0.06026979   0.44700355   0.60549783
| 23> C    0.44713581   1.73034659   0.94675923
| 24> H    0.47736496   3.29229977   2.44043744
| 25> H   -1.97456820  -0.13290164   3.21442964
| 26> H   -1.05588580   2.04290935   3.96802550
| 27> C    0.36152955  -0.24791885  -0.58007600
| 28> C    1.31212872   2.41825872   0.04418829
| 29> C    1.64338563   1.82786006  -1.12293639
| 30> C    1.19173170   0.50506194  -1.45740541
| 31> H    1.69494524   3.40436136   0.31351926
| 32> H    2.30753313   2.35646322  -1.81603276
| 33> C   -0.04521324  -1.58775971  -0.84626987
| 34> C    1.63237127  -0.05741284  -2.65970885
| 35> C    0.38759735  -2.06215010  -2.09494117
| 36> C    1.21886050  -1.33392229  -2.97099528
| 37> H    2.31282533   0.50278628  -3.31981420
| 38> H    1.58937240  -1.78762376  -3.88979337
| 39> H   -0.42352044  -3.27141717   0.28866470
| 40> H    0.09127208  -3.05187247  -2.44078678
| 41> *
| 42>
| 43>                          ****END OF INPUT****

CARTESIAN COORDINATES (ANGSTROEM)
---------------------------------
  Pd    -2.100446   -1.608306    0.554053
  Cl    -3.566458   -3.244190   -0.156750
  Cl    -0.643424   -4.161149    1.107876
  Cl    -3.901028   -0.176651    0.698609
  N     -0.959490   -0.144885    1.419378
  C     -1.278202    0.406152    2.582598
  C     -0.757733    1.627943    3.012427
  C      0.083079    2.310640    2.167087
  C     -0.060270    0.447004    0.605498
  C      0.447136    1.730347    0.946759
  H      0.477365    3.292300    2.440437
  H     -1.974568   -0.132902    3.214430
  H     -1.055886    2.042909    3.968025
  C      0.361530   -0.247919   -0.580076
  C      1.312129    2.418259    0.044188
  C      1.643386    1.827860   -1.122936
  C      1.191732    0.505062   -1.457405
  H      1.694945    3.404361    0.313519
  H      2.307533    2.356463   -1.816033
  C     -0.045213   -1.587760   -0.846270
  C      1.632371   -0.057413   -2.659709
  C      0.387597   -2.062150   -2.094941
  C      1.218860   -1.333922   -2.970995
  H      2.312825    0.502786   -3.319814
  H      1.589372   -1.787624   -3.889793
  H     -0.423520   -3.271417    0.288665
  H      0.091272   -3.051872   -2.440787

 Total Charge           Charge          ....   -1
 Multiplicity           Mult            ....    1
 Number of Electrons    NEL             ....  164
 Basis Dimension        Dim             ....  313

ORBITAL ENERGIES
----------------

  NO   OCC          E(Eh)            E(eV)
   0   2.0000    -102.138169     -2779.3209
   1   2.0000    -102.085664     -2777.8922
   2   2.0000    -102.074567     -2777.5902
   3   2.0000     -14.592919      -397.0935
   4   2.0000     -10.405835      -283.1572
   5   2.0000     -10.405700      -283.1535
   6   2.0000     -10.388454      -282.6842
   7   2.0000     -10.379858      -282.4503
   8   2.0000     -10.374222      -282.2969
   9   2.0000     -10.367907      -282.1251
  10   2.0000     -10.366672      -282.0915
  11   2.0000     -10.360807      -281.9319
  12   2.0000     -10.352020      -281.6928
  13   2.0000     -10.347076      -281.5582
  14   2.0000     -10.346325      -281.5378
  15   2.0000     -10.332270      -281.1554
  16   2.0000     -10.321103      -280.8515
  17   2.0000      -9.609688      -261.4929
  18   2.0000      -9.549596      -259.8577
  19   2.0000      -9.538911      -259.5670
  20   2.0000      -7.296083      -198.5365
  21   2.0000      -7.289675      -198.3622
  22   2.0000      -7.289116      -198.3469
  23   2.0000      -7.235675      -196.8927
  24   2.0000      -7.230558      -196.7535
  25   2.0000      -7.230205      -196.7439
  26   2.0000      -7.225088      -196.6046
  27   2.0000      -7.219783      -196.4603
  28   2.0000      -7.219449      -196.4512
  29   2.0000      -3.513327       -95.6025
  30   2.0000      -2.165084       -58.9149
  31   2.0000      -2.151685       -58.5503
  32   2.0000      -2.124928       -57.8222
  33   2.0000      -0.984392       -26.7867
  34   2.0000      -0.873438       -23.7674
  35   2.0000      -0.838650       -22.8208
  36   2.0000      -0.805265       -21.9124
  37   2.0000      -0.785136       -21.3646
  38   2.0000      -0.769400       -20.9364
  39   2.0000      -0.731109       -19.8945
  40   2.0000      -0.707935       -19.2639
  41   2.0000      -0.677714       -18.4415
  42   2.0000      -0.662782       -18.0352
  43   2.0000      -0.639114       -17.3912
  44   2.0000      -0.633568       -17.2403
  45   2.0000      -0.598379       -16.2827
  46   2.0000      -0.562920       -15.3178
  47   2.0000      -0.519359       -14.1325
  48   2.0000      -0.508660       -13.8413
  49   2.0000      -0.487746       -13.2723
  50   2.0000      -0.451917       -12.2973
  51   2.0000      -0.450375       -12.2553
  52   2.0000      -0.421677       -11.4744
  53   2.0000      -0.408388       -11.1128
  54   2.0000      -0.401145       -10.9157
  55   2.0000      -0.395125       -10.7519
  56   2.0000      -0.386208       -10.5093
  57   2.0000      -0.376131       -10.2350
  58   2.0000      -0.364090        -9.9074
  59   2.0000      -0.340362        -9.2617
  60   2.0000      -0.335193        -9.1211
  61   2.0000      -0.326084        -8.8732
  62   2.0000      -0.310098        -8.4382
  63   2.0000      -0.297214        -8.0876
  64   2.0000      -0.282139        -7.6774
  65   2.0000      -0.261699        -7.1212
  66   2.0000      -0.252968        -6.8836
  67   2.0000      -0.252004        -6.8574
  68   2.0000      -0.240101        -6.5335
  69   2.0000      -0.233739        -6.3604
  70   2.0000      -0.222368        -6.0509
  71   2.0000      -0.221706        -6.0329
  72   2.0000      -0.208054        -5.6614
  73   2.0000      -0.203391        -5.5345
  74   2.0000      -0.175110        -4.7650
  75   2.0000      -0.168882        -4.5955
  76   2.0000      -0.163330        -4.4444
  77   2.0000      -0.152738        -4.1562
  78   2.0000      -0.147604        -4.0165
  79   2.0000      -0.137145        -3.7319
  80   2.0000      -0.135911        -3.6983
  81   2.0000      -0.109940        -2.9916
  82   0.0000       0.050490         1.3739
  83   0.0000       0.074785         2.0350
  84   0.0000       0.075405         2.0519
  85   0.0000       0.115189         3.1344
  86   0.0000       0.151346         4.1183

MULLIKEN ATOMIC CHARGES
-----------------------
   0 Pd:    0.172060
   1 Cl:   -0.353362
   2 Cl:   -0.342336
   3 Cl:   -0.387671
   4 N :   -0.576647
   5 C :    0.049189
   6 C :   -0.330088
   7 C :   -0.157557
   8 C :    0.391139
   9 C :    0.036633
  10 H :    0.208156
  11 H :    0.272222
  12 H :    0.216581
  13 C :   -0.017544
  14 C :   -0.299688
  15 C :   -0.279078
  16 C :    0.133985
  17 H :    0.190676
  18 H :    0.190241
  19 C :   -0.188452
  20 C :   -0.328370
  21 C :   -0.321331
  22 C :   -0.192244
  23 H :    0.182986
  24 H :    0.185712
  25 H :    0.336084
  26 H :    0.208704
Sum of atomic charges:   -1.0000000

LOEWDIN ATOMIC CHARGES
----------------------
   0 Pd:   -0.851447
   1 Cl:   -0.102539
   2 Cl:   -0.131722
   3 Cl:   -0.110306
   4 N :    0.038568
   5 C :    0.008840
   6 C :   -0.172548
   7 C :   -0.088258
   8 C :    0.096747
   9 C :   -0.052678
  10 H :    0.134182
  11 H :    0.162262
  12 H :    0.138908
  13 C :   -0.039310
  14 C :   -0.148883
  15 C :   -0.115462
  16 C :   -0.035245
  17 H :    0.128266
  18 H :    0.128503
  19 C :   -0.140319
  20 C :   -0.158385
  21 C :   -0.145584
  22 C :   -0.135412
  23 H :    0.121824
  24 H :    0.121829
  25 H :    0.217842
  26 H :    0.130328

  Mayer bond orders larger than 0.100000
B(  0-Pd,  1-Cl) :   0.9179 B(  0-Pd,  2-Cl) :   0.1310 B(  0-Pd,  3-Cl) :   0.8421
B(  0-Pd,  4-N ) :   0.4116 B(  0-Pd, 19-C ) :   0.3889 B(  2-Cl, 25-H ) :   0.7377
B(  4-N ,  5-C ) :   1.4513 B(  4-N ,  8-C ) :   1.1484 B(  5-C ,  6-C ) :   1.3350
B(  5-C , 11-H ) :   0.8959 B(  6-C ,  7-C ) :   1.4429 B(  6-C , 12-H ) :   0.9199
B(  7-C ,  9-C ) :   1.2920 B(  7-C , 10-H ) :   0.9289 B(  8-C ,  9-C ) :   1.2125
B(  8-C , 13-C ) :   1.1328 B(  9-C , 14-C ) :   1.1635 B( 13-C , 16-C ) :   1.2604
B( 13-C , 19-C ) :   1.2685 B( 14-C , 15-C ) :   1.6435 B( 14-C , 17-H ) :   0.9301
B( 15-C , 16-C ) :   1.1464 B( 15-C , 18-H ) :   0.9293 B( 16-C , 20-C ) :   1.2919
B( 19-C , 21-C ) :   1.4727 B( 19-C , 25-H ) :   0.1101 B( 20-C , 22-C ) :   1.4772
B( 20-C , 23-H ) :   0.9318 B( 21-C , 22-C ) :   1.3582 B( 21-C , 26-H ) :   0.9179
B( 22-C , 24-H ) :   0.9244

Dispersion correction           -0.024550634
FINAL SINGLE POINT ENERGY     -2061.440861447182
Dispersion correction            ... done

DIPOLE MOMENT
-------------
                                X             Y             Z
Electronic contribution:    -81.49270     -59.44518      24.01291
Nuclear contribution   :     84.61092      62.15224     -23.16119
                        -----------------------------------------
Total Dipole Moment    :      3.11822       2.70706       0.85172
                        -----------------------------------------
Magnitude (a.u.)       :      4.21626
Magnitude (Debye)      :     10.71689

Rotational constants in cm-1:     0.011976     0.007836     0.005918
Rotational constants in MHz :   359.037624   234.914716   177.431325

                             ****ORCA TERMINATED NORMALLY****
TOTAL RUN TIME: 0 days 0 hours 8 minutes 52 seconds 304 msec
