                         Program Version 5.0.3 -  RELEASE  -
|  1> ! EnGrad PBEh-3c
|  2> %output
|  3> xyzfile=True
|  4> end
|  5> %scf
|  6> maxiter 250
|  7> end
|  8> %output
|  9> Print[P_Hirshfeld] = 1
| 10> end
| 11> % maxcore
| 12> 4000
| 13> *xyz -1 1
| 14> Pd  -2.07584763  -1.55326466   0.47882742
| 15> Cl  -3.57231766  -3.23174681  -0.16378073
| 16> Cl  -0.60453917  -4.12839127   1.07643176
| 17> Cl  -3.88328893  -0.15457472   0.70422710
| 18> N   -0.96310569  -0.15193890   1.41642963
| 19> C   -1.28007216   0.39318243   2.58017706
| 20> C   -0.75709564   1.60900478   3.01012331
| 21> C    0.08114143   2.29430283   2.16776776
| 22> C   -0.05167295   0.44315446   0.61245576
| 23> C    0.45031872   1.72409413   0.94713227
| 24> H    0.47150784   3.27764276   2.43102875
| 25> H   -1.98281794  -0.14089334   3.20784894
| 26> H   -1.05068406   2.02535969   3.96930671
| 27> C    0.37610842  -0.24488994  -0.57990533
| 28> C    1.30489066   2.40936918   0.04103295
| 29> C    1.63632332   1.82376560  -1.12296694
| 30> C    1.20225492   0.50529391  -1.45911592
| 31> H    1.67978799   3.39513486   0.31190275
| 32> H    2.28656356   2.34352806  -1.81695310
| 33> C   -0.06612837  -1.57624736  -0.84101428
| 34> C    1.62396706  -0.06542646  -2.66272183
| 35> C    0.39323455  -2.07492346  -2.07896484
| 36> C    1.21787301  -1.34292814  -2.96055929
| 37> H    2.29731672   0.50014128  -3.30731723
| 38> H    1.57459365  -1.78941753  -3.88396099
| 39> H   -0.43564976  -3.21536321   0.36021562
| 40> H    0.10675214  -3.06693121  -2.42833819
| 41> *
| 42>
| 43>                          ****END OF INPUT****

CARTESIAN COORDINATES (ANGSTROEM)
---------------------------------
  Pd    -2.075848   -1.553265    0.478827
  Cl    -3.572318   -3.231747   -0.163781
  Cl    -0.604539   -4.128391    1.076432
  Cl    -3.883289   -0.154575    0.704227
  N     -0.963106   -0.151939    1.416430
  C     -1.280072    0.393182    2.580177
  C     -0.757096    1.609005    3.010123
  C      0.081141    2.294303    2.167768
  C     -0.051673    0.443154    0.612456
  C      0.450319    1.724094    0.947132
  H      0.471508    3.277643    2.431029
  H     -1.982818   -0.140893    3.207849
  H     -1.050684    2.025360    3.969307
  C      0.376108   -0.244890   -0.579905
  C      1.304891    2.409369    0.041033
  C      1.636323    1.823766   -1.122967
  C      1.202255    0.505294   -1.459116
  H      1.679788    3.395135    0.311903
  H      2.286564    2.343528   -1.816953
  C     -0.066128   -1.576247   -0.841014
  C      1.623967   -0.065426   -2.662722
  C      0.393235   -2.074923   -2.078965
  C      1.217873   -1.342928   -2.960559
  H      2.297317    0.500141   -3.307317
  H      1.574594   -1.789418   -3.883961
  H     -0.435650   -3.215363    0.360216
  H      0.106752   -3.066931   -2.428338

 Total Charge           Charge          ....   -1
 Multiplicity           Mult            ....    1
 Number of Electrons    NEL             ....  164
 Basis Dimension        Dim             ....  313

ORBITAL ENERGIES
----------------

  NO   OCC          E(Eh)            E(eV)
   0   2.0000    -102.133774     -2779.2013
   1   2.0000    -102.083837     -2777.8424
   2   2.0000    -102.069084     -2777.4410
   3   2.0000     -14.594390      -397.1335
   4   2.0000     -10.406197      -283.1670
   5   2.0000     -10.405895      -283.1588
   6   2.0000     -10.388287      -282.6797
   7   2.0000     -10.378893      -282.4240
   8   2.0000     -10.374605      -282.3074
   9   2.0000     -10.367101      -282.1032
  10   2.0000     -10.366177      -282.0780
  11   2.0000     -10.360628      -281.9270
  12   2.0000     -10.353054      -281.7209
  13   2.0000     -10.348014      -281.5838
  14   2.0000     -10.346263      -281.5361
  15   2.0000     -10.335326      -281.2385
  16   2.0000     -10.326149      -280.9888
  17   2.0000      -9.607568      -261.4352
  18   2.0000      -9.547948      -259.8129
  19   2.0000      -9.533123      -259.4095
  20   2.0000      -7.294010      -198.4801
  21   2.0000      -7.287235      -198.2958
  22   2.0000      -7.286811      -198.2842
  23   2.0000      -7.233931      -196.8453
  24   2.0000      -7.228970      -196.7103
  25   2.0000      -7.228572      -196.6994
  26   2.0000      -7.219170      -196.4436
  27   2.0000      -7.214128      -196.3064
  28   2.0000      -7.213769      -196.2966
  29   2.0000      -3.513345       -95.6030
  30   2.0000      -2.164013       -58.8858
  31   2.0000      -2.152728       -58.5787
  32   2.0000      -2.124735       -57.8170
  33   2.0000      -0.986316       -26.8390
  34   2.0000      -0.876625       -23.8542
  35   2.0000      -0.840662       -22.8756
  36   2.0000      -0.807061       -21.9612
  37   2.0000      -0.795390       -21.6437
  38   2.0000      -0.772304       -21.0155
  39   2.0000      -0.732957       -19.9448
  40   2.0000      -0.709999       -19.3201
  41   2.0000      -0.676302       -18.4031
  42   2.0000      -0.657065       -17.8796
  43   2.0000      -0.641413       -17.4537
  44   2.0000      -0.634974       -17.2785
  45   2.0000      -0.601112       -16.3571
  46   2.0000      -0.565191       -15.3796
  47   2.0000      -0.521933       -14.2025
  48   2.0000      -0.511168       -13.9096
  49   2.0000      -0.489857       -13.3297
  50   2.0000      -0.453685       -12.3454
  51   2.0000      -0.452666       -12.3177
  52   2.0000      -0.423781       -11.5317
  53   2.0000      -0.410452       -11.1690
  54   2.0000      -0.402710       -10.9583
  55   2.0000      -0.399195       -10.8627
  56   2.0000      -0.391465       -10.6523
  57   2.0000      -0.377126       -10.2621
  58   2.0000      -0.367252        -9.9934
  59   2.0000      -0.342711        -9.3256
  60   2.0000      -0.338126        -9.2009
  61   2.0000      -0.327993        -8.9251
  62   2.0000      -0.312380        -8.5003
  63   2.0000      -0.298779        -8.1302
  64   2.0000      -0.282972        -7.7001
  65   2.0000      -0.261977        -7.1287
  66   2.0000      -0.252084        -6.8596
  67   2.0000      -0.251800        -6.8518
  68   2.0000      -0.241287        -6.5657
  69   2.0000      -0.234310        -6.3759
  70   2.0000      -0.225431        -6.1343
  71   2.0000      -0.221689        -6.0325
  72   2.0000      -0.207299        -5.6409
  73   2.0000      -0.195958        -5.3323
  74   2.0000      -0.176766        -4.8100
  75   2.0000      -0.169122        -4.6020
  76   2.0000      -0.164589        -4.4787
  77   2.0000      -0.151596        -4.1251
  78   2.0000      -0.146652        -3.9906
  79   2.0000      -0.134931        -3.6717
  80   2.0000      -0.132215        -3.5977
  81   2.0000      -0.111978        -3.0471
  82   0.0000       0.049126         1.3368
  83   0.0000       0.074492         2.0270
  84   0.0000       0.079231         2.1560
  85   0.0000       0.114207         3.1077
  86   0.0000       0.150285         4.0895

MULLIKEN ATOMIC CHARGES
-----------------------
   0 Pd:    0.171340
   1 Cl:   -0.373048
   2 Cl:   -0.343285
   3 Cl:   -0.388499
   4 N :   -0.579727
   5 C :    0.050132
   6 C :   -0.332512
   7 C :   -0.157969
   8 C :    0.385219
   9 C :    0.046792
  10 H :    0.207926
  11 H :    0.273949
  12 H :    0.216627
  13 C :   -0.021195
  14 C :   -0.298293
  15 C :   -0.281210
  16 C :    0.148888
  17 H :    0.190464
  18 H :    0.191020
  19 C :   -0.186840
  20 C :   -0.326172
  21 C :   -0.328232
  22 C :   -0.190663
  23 H :    0.183873
  24 H :    0.187242
  25 H :    0.343381
  26 H :    0.210792
Sum of atomic charges:   -1.0000000

LOEWDIN ATOMIC CHARGES
----------------------
   0 Pd:   -0.853890
   1 Cl:   -0.129282
   2 Cl:   -0.123421
   3 Cl:   -0.110179
   4 N :    0.040696
   5 C :    0.009236
   6 C :   -0.171511
   7 C :   -0.086859
   8 C :    0.098924
   9 C :   -0.054307
  10 H :    0.133908
  11 H :    0.162777
  12 H :    0.139367
  13 C :   -0.035901
  14 C :   -0.146660
  15 C :   -0.115597
  16 C :   -0.036421
  17 H :    0.128464
  18 H :    0.128709
  19 C :   -0.123276
  20 C :   -0.157240
  21 C :   -0.140878
  22 C :   -0.134626
  23 H :    0.122077
  24 H :    0.122765
  25 H :    0.200502
  26 H :    0.132622

  Mayer bond orders larger than 0.100000
B(  0-Pd,  1-Cl) :   0.8993 B(  0-Pd,  2-Cl) :   0.1176 B(  0-Pd,  3-Cl) :   0.8351
B(  0-Pd,  4-N ) :   0.4228 B(  0-Pd, 19-C ) :   0.4433 B(  2-Cl, 25-H ) :   0.7436
B(  4-N ,  5-C ) :   1.4544 B(  4-N ,  8-C ) :   1.1378 B(  5-C ,  6-C ) :   1.3317
B(  5-C , 11-H ) :   0.8948 B(  6-C ,  7-C ) :   1.4454 B(  6-C , 12-H ) :   0.9203
B(  7-C ,  9-C ) :   1.2908 B(  7-C , 10-H ) :   0.9288 B(  8-C ,  9-C ) :   1.2220
B(  8-C , 13-C ) :   1.1425 B(  9-C , 14-C ) :   1.1635 B( 13-C , 16-C ) :   1.2587
B( 13-C , 19-C ) :   1.2463 B( 14-C , 15-C ) :   1.6433 B( 14-C , 17-H ) :   0.9302
B( 15-C , 16-C ) :   1.1534 B( 15-C , 18-H ) :   0.9285 B( 16-C , 20-C ) :   1.2933
B( 19-C , 21-C ) :   1.4702 B( 20-C , 22-C ) :   1.4792 B( 20-C , 23-H ) :   0.9307
B( 21-C , 22-C ) :   1.3554 B( 21-C , 26-H ) :   0.9176 B( 22-C , 24-H ) :   0.9245

Dispersion correction           -0.024523801
FINAL SINGLE POINT ENERGY     -2061.436363373897
Dispersion correction            ... done

DIPOLE MOMENT
-------------
                                X             Y             Z
Electronic contribution:    -80.26215     -56.70744      20.24550
Nuclear contribution   :     83.51047      59.50137     -19.43193
                        -----------------------------------------
Total Dipole Moment    :      3.24833       2.79393       0.81357
                        -----------------------------------------
Magnitude (a.u.)       :      4.36115
Magnitude (Debye)      :     11.08515

Rotational constants in cm-1:     0.011995     0.007960     0.005993
Rotational constants in MHz :   359.601727   238.633288   179.654139

                             ****ORCA TERMINATED NORMALLY****
TOTAL RUN TIME: 0 days 0 hours 8 minutes 31 seconds 361 msec
