                         Program Version 5.0.3 -  RELEASE  -
|  1> ! EnGrad PBEh-3c
|  2> %output
|  3> xyzfile=True
|  4> end
|  5> %scf
|  6> maxiter 250
|  7> end
|  8> %output
|  9> Print[P_Hirshfeld] = 1
| 10> end
| 11> % maxcore
| 12> 4000
| 13> *xyz -1 1
| 14> Pt  -1.00216567  -0.88420620   0.53807994
| 15> Cl  -0.25659770  -0.57917390   2.74604651
| 16> Cl  -2.71094976  -2.29113647   1.16588056
| 17> Cl  -1.62910366  -1.08489525  -1.71085030
| 18> C    1.03703522   1.03096117  -0.59756058
| 19> H    1.44637133   1.88995824  -0.06798388
| 20> H    1.32863525  -0.10832563   0.36425772
| 21> H    1.70212647   0.71052271  -1.40092788
| 22> H    0.08464852   1.31628963  -1.03693350
| 23> *
| 24>
| 25>                          ****END OF INPUT****

CARTESIAN COORDINATES (ANGSTROEM)
---------------------------------
  Pt    -1.002166   -0.884206    0.538080
  Cl    -0.256598   -0.579174    2.746047
  Cl    -2.710950   -2.291136    1.165881
  Cl    -1.629104   -1.084895   -1.710850
  C      1.037035    1.030961   -0.597561
  H      1.446371    1.889958   -0.067984
  H      1.328635   -0.108326    0.364258
  H      1.702126    0.710523   -1.400928
  H      0.084649    1.316290   -1.036933

 Total Charge           Charge          ....   -1
 Multiplicity           Mult            ....    1
 Number of Electrons    NEL             ....   80
 Basis Dimension        Dim             ....  109

ORBITAL ENERGIES
----------------

  NO   OCC          E(Eh)            E(eV)
   0   2.0000    -102.109748     -2778.5475
   1   2.0000    -102.088080     -2777.9579
   2   2.0000    -102.087684     -2777.9471
   3   2.0000     -10.360874      -281.9337
   4   2.0000      -9.573029      -260.4954
   5   2.0000      -9.551875      -259.9197
   6   2.0000      -9.551454      -259.9083
   7   2.0000      -7.260481      -197.5677
   8   2.0000      -7.253230      -197.3704
   9   2.0000      -7.252904      -197.3616
  10   2.0000      -7.237807      -196.9507
  11   2.0000      -7.237338      -196.9380
  12   2.0000      -7.232847      -196.8158
  13   2.0000      -7.232785      -196.8141
  14   2.0000      -7.232471      -196.8056
  15   2.0000      -7.232375      -196.8029
  16   2.0000      -3.941502      -107.2537
  17   2.0000      -2.156775       -58.6888
  18   2.0000      -2.154890       -58.6375
  19   2.0000      -2.118474       -57.6466
  20   2.0000      -0.698451       -19.0058
  21   2.0000      -0.682714       -18.5776
  22   2.0000      -0.674150       -18.3446
  23   2.0000      -0.665442       -18.1076
  24   2.0000      -0.363112        -9.8808
  25   2.0000      -0.359902        -9.7934
  26   2.0000      -0.302861        -8.2413
  27   2.0000      -0.279360        -7.6018
  28   2.0000      -0.263901        -7.1811
  29   2.0000      -0.254799        -6.9334
  30   2.0000      -0.226452        -6.1621
  31   2.0000      -0.221302        -6.0219
  32   2.0000      -0.198713        -5.4073
  33   2.0000      -0.178033        -4.8445
  34   2.0000      -0.172603        -4.6968
  35   2.0000      -0.154632        -4.2078
  36   2.0000      -0.144071        -3.9204
  37   2.0000      -0.137968        -3.7543
  38   2.0000      -0.128636        -3.5004
  39   2.0000      -0.116619        -3.1734
  40   0.0000       0.069629         1.8947
  41   0.0000       0.148643         4.0448
  42   0.0000       0.195713         5.3256
  43   0.0000       0.218438         5.9440
  44   0.0000       0.264088         7.1862

MULLIKEN ATOMIC CHARGES
-----------------------
   0 Pt:    0.112609
   1 Cl:   -0.439256
   2 Cl:   -0.323541
   3 Cl:   -0.440806
   4 C :   -0.848620
   5 H :    0.225244
   6 H :    0.197608
   7 H :    0.231965
   8 H :    0.284798
Sum of atomic charges:   -1.0000000

LOEWDIN ATOMIC CHARGES
----------------------
   0 Pt:   -0.871174
   1 Cl:   -0.154305
   2 Cl:   -0.012543
   3 Cl:   -0.150903
   4 C :   -0.455195
   5 H :    0.127027
   6 H :    0.208948
   7 H :    0.130633
   8 H :    0.177512

  Mayer bond orders larger than 0.100000
B(  0-Pt,  1-Cl) :   0.7937 B(  0-Pt,  2-Cl) :   0.9803 B(  0-Pt,  3-Cl) :   0.7877
B(  0-Pt,  4-C ) :   0.1211 B(  1-Cl,  3-Cl) :   0.1107 B(  4-C ,  5-H ) :   0.9115
B(  4-C ,  6-H ) :   0.8367 B(  4-C ,  7-H ) :   0.9127 B(  4-C ,  8-H ) :   0.8884

Dispersion correction           -0.005094535
FINAL SINGLE POINT ENERGY     -1538.985332530889
Dispersion correction            ... done

DIPOLE MOMENT
-------------
                                X             Y             Z
Electronic contribution:      1.97797      -0.18564       2.92435
Nuclear contribution   :     -0.83773       1.16623      -3.47211
                        -----------------------------------------
Total Dipole Moment    :      1.14024       0.98059      -0.54776
                        -----------------------------------------
Magnitude (a.u.)       :      1.60054
Magnitude (Debye)      :      4.06826

Rotational constants in cm-1:     0.050567     0.042486     0.023241
Rotational constants in MHz :  1515.951105  1273.711174   696.740942

                             ****ORCA TERMINATED NORMALLY****
TOTAL RUN TIME: 0 days 0 hours 0 minutes 44 seconds 812 msec
