                         Program Version 5.0.3 -  RELEASE  -
|  1> ! EnGrad PBEh-3c
|  2> %output
|  3> xyzfile=True
|  4> end
|  5> %scf
|  6> maxiter 250
|  7> end
|  8> %output
|  9> Print[P_Hirshfeld] = 1
| 10> end
| 11> % maxcore
| 12> 4000
| 13> *xyz -1 1
| 14> Pt  -0.97407522  -0.89327338   0.53255804
| 15> Cl  -0.24111073  -0.52109224   2.69360127
| 16> Cl  -2.64652408  -2.19462680   1.14678506
| 17> Cl  -1.54744978  -1.09924411  -1.70200935
| 18> C    1.13774373   0.81782210  -0.41788248
| 19> H    1.44515407   1.81653130  -0.01156989
| 20> H    1.16473122   0.03970086   0.11075203
| 21> H    1.63375484   0.73438774  -1.40047850
| 22> H    0.02340372   1.29924124  -0.95140915
| 23> *
| 24>
| 25>                          ****END OF INPUT****

CARTESIAN COORDINATES (ANGSTROEM)
---------------------------------
  Pt    -0.974075   -0.893273    0.532558
  Cl    -0.241111   -0.521092    2.693601
  Cl    -2.646524   -2.194627    1.146785
  Cl    -1.547450   -1.099244   -1.702009
  C      1.137744    0.817822   -0.417882
  H      1.445154    1.816531   -0.011570
  H      1.164731    0.039701    0.110752
  H      1.633755    0.734388   -1.400478
  H      0.023404    1.299241   -0.951409

 Total Charge           Charge          ....   -1
 Multiplicity           Mult            ....    1
 Number of Electrons    NEL             ....   80
 Basis Dimension        Dim             ....  109

ORBITAL ENERGIES
----------------

  NO   OCC          E(Eh)            E(eV)
   0   2.0000    -102.113647     -2778.6536
   1   2.0000    -102.088521     -2777.9699
   2   2.0000    -102.086383     -2777.9117
   3   2.0000     -10.333514      -281.1892
   4   2.0000      -9.578254      -260.6376
   5   2.0000      -9.552749      -259.9435
   6   2.0000      -9.550616      -259.8855
   7   2.0000      -7.265798      -197.7124
   8   2.0000      -7.258253      -197.5071
   9   2.0000      -7.257904      -197.4976
  10   2.0000      -7.238538      -196.9706
  11   2.0000      -7.236492      -196.9149
  12   2.0000      -7.233847      -196.8430
  13   2.0000      -7.233587      -196.8359
  14   2.0000      -7.231589      -196.7816
  15   2.0000      -7.231494      -196.7789
  16   2.0000      -3.939313      -107.1942
  17   2.0000      -2.157819       -58.7172
  18   2.0000      -2.152965       -58.5851
  19   2.0000      -2.116239       -57.5858
  20   2.0000      -0.709511       -19.3068
  21   2.0000      -0.687862       -18.7177
  22   2.0000      -0.679316       -18.4851
  23   2.0000      -0.675452       -18.3800
  24   2.0000      -0.416241       -11.3265
  25   2.0000      -0.338751        -9.2179
  26   2.0000      -0.298832        -8.1316
  27   2.0000      -0.285977        -7.7818
  28   2.0000      -0.277407        -7.5486
  29   2.0000      -0.265791        -7.2325
  30   2.0000      -0.233917        -6.3652
  31   2.0000      -0.229015        -6.2318
  32   2.0000      -0.202005        -5.4968
  33   2.0000      -0.179586        -4.8868
  34   2.0000      -0.175929        -4.7873
  35   2.0000      -0.154902        -4.2151
  36   2.0000      -0.142196        -3.8694
  37   2.0000      -0.133495        -3.6326
  38   2.0000      -0.123932        -3.3724
  39   2.0000      -0.112839        -3.0705
  40   0.0000       0.079371         2.1598
  41   0.0000       0.196897         5.3579
  42   0.0000       0.199960         5.4412
  43   0.0000       0.227259         6.1840
  44   0.0000       0.271687         7.3930

MULLIKEN ATOMIC CHARGES
-----------------------
   0 Pt:    0.096586
   1 Cl:   -0.436791
   2 Cl:   -0.295960
   3 Cl:   -0.439632
   4 C :   -0.909486
   5 H :    0.223765
   6 H :    0.305459
   7 H :    0.231253
   8 H :    0.224807
Sum of atomic charges:   -1.0000000

LOEWDIN ATOMIC CHARGES
----------------------
   0 Pt:   -0.909141
   1 Cl:   -0.136431
   2 Cl:    0.045490
   3 Cl:   -0.140874
   4 C :   -0.473925
   5 H :    0.132447
   6 H :    0.164407
   7 H :    0.133502
   8 H :    0.184525

  Mayer bond orders larger than 0.100000
B(  0-Pt,  1-Cl) :   0.8070 B(  0-Pt,  2-Cl) :   1.0288 B(  0-Pt,  3-Cl) :   0.7905
B(  1-Cl,  3-Cl) :   0.1111 B(  4-C ,  5-H ) :   0.9193 B(  4-C ,  6-H ) :   0.8496
B(  4-C ,  7-H ) :   0.9147 B(  4-C ,  8-H ) :   0.9077

Dispersion correction           -0.004863714
FINAL SINGLE POINT ENERGY     -1538.988720578209
Dispersion correction            ... done

DIPOLE MOMENT
-------------
                                X             Y             Z
Electronic contribution:      0.72668      -1.91923       2.78154
Nuclear contribution   :      0.19375       2.75938      -3.25725
                        -----------------------------------------
Total Dipole Moment    :      0.92044       0.84015      -0.47571
                        -----------------------------------------
Magnitude (a.u.)       :      1.33392
Magnitude (Debye)      :      3.39057

Rotational constants in cm-1:     0.054391     0.044035     0.024477
Rotational constants in MHz :  1630.600270  1320.123773   733.800119

                             ****ORCA TERMINATED NORMALLY****
TOTAL RUN TIME: 0 days 0 hours 0 minutes 44 seconds 47 msec
