                         Program Version 5.0.3 -  RELEASE  -
|  1> ! EnGrad PBEh-3c
|  2> %output
|  3> xyzfile=True
|  4> end
|  5> %scf
|  6> maxiter 250
|  7> end
|  8> %output
|  9> Print[P_Hirshfeld] = 1
| 10> end
| 11> % maxcore
| 12> 4000
| 13> *xyz -1 1
| 14> Pt  -0.99033772  -0.88802409   0.53575485
| 15> Cl  -0.25007665  -0.55471765   2.72396357
| 16> Cl  -2.68382226  -2.25049947   1.15784008
| 17> Cl  -1.59472194  -1.09093708  -1.70712767
| 18> C    1.07944021   0.94121542  -0.52190413
| 19> H    1.44585878   1.85904061  -0.04422983
| 20> H    1.25962073  -0.04599661   0.25751493
| 21> H    1.67333746   0.72057148  -1.40073866
| 22> H    0.05886038   1.30911112  -1.00092205
| 23> *
| 24>
| 25>                          ****END OF INPUT****

CARTESIAN COORDINATES (ANGSTROEM)
---------------------------------
  Pt    -0.990338   -0.888024    0.535755
  Cl    -0.250077   -0.554718    2.723964
  Cl    -2.683822   -2.250499    1.157840
  Cl    -1.594722   -1.090937   -1.707128
  C      1.079440    0.941215   -0.521904
  H      1.445859    1.859041   -0.044230
  H      1.259621   -0.045997    0.257515
  H      1.673337    0.720571   -1.400739
  H      0.058860    1.309111   -1.000922

 Total Charge           Charge          ....   -1
 Multiplicity           Mult            ....    1
 Number of Electrons    NEL             ....   80
 Basis Dimension        Dim             ....  109

ORBITAL ENERGIES
----------------

  NO   OCC          E(Eh)            E(eV)
   0   2.0000    -102.112197     -2778.6141
   1   2.0000    -102.088359     -2777.9655
   2   2.0000    -102.087624     -2777.9455
   3   2.0000     -10.348522      -281.5976
   4   2.0000      -9.575979      -260.5756
   5   2.0000      -9.552319      -259.9318
   6   2.0000      -9.551598      -259.9122
   7   2.0000      -7.263490      -197.6496
   8   2.0000      -7.256088      -197.4482
   9   2.0000      -7.255754      -197.4391
  10   2.0000      -7.238162      -196.9604
  11   2.0000      -7.237509      -196.9426
  12   2.0000      -7.233373      -196.8301
  13   2.0000      -7.233205      -196.8255
  14   2.0000      -7.232568      -196.8082
  15   2.0000      -7.232498      -196.8063
  16   2.0000      -3.940980      -107.2395
  17   2.0000      -2.157622       -58.7119
  18   2.0000      -2.154468       -58.6261
  19   2.0000      -2.117892       -57.6308
  20   2.0000      -0.703371       -19.1397
  21   2.0000      -0.684788       -18.6340
  22   2.0000      -0.675039       -18.3687
  23   2.0000      -0.663317       -18.0498
  24   2.0000      -0.355294        -9.6680
  25   2.0000      -0.347390        -9.4530
  26   2.0000      -0.322810        -8.7841
  27   2.0000      -0.283267        -7.7081
  28   2.0000      -0.268828        -7.3152
  29   2.0000      -0.264982        -7.2105
  30   2.0000      -0.228686        -6.2229
  31   2.0000      -0.226400        -6.1607
  32   2.0000      -0.200521        -5.4565
  33   2.0000      -0.178877        -4.8675
  34   2.0000      -0.175076        -4.7641
  35   2.0000      -0.155250        -4.2246
  36   2.0000      -0.143736        -3.9112
  37   2.0000      -0.136848        -3.7238
  38   2.0000      -0.127185        -3.4609
  39   2.0000      -0.115341        -3.1386
  40   0.0000       0.073164         1.9909
  41   0.0000       0.185653         5.0519
  42   0.0000       0.199134         5.4187
  43   0.0000       0.235530         6.4091
  44   0.0000       0.265371         7.2211

MULLIKEN ATOMIC CHARGES
-----------------------
   0 Pt:    0.115524
   1 Cl:   -0.438917
   2 Cl:   -0.310815
   3 Cl:   -0.439788
   4 C :   -0.893364
   5 H :    0.222596
   6 H :    0.246817
   7 H :    0.233624
   8 H :    0.264323
Sum of atomic charges:   -1.0000000

LOEWDIN ATOMIC CHARGES
----------------------
   0 Pt:   -0.883523
   1 Cl:   -0.147238
   2 Cl:    0.012946
   3 Cl:   -0.146108
   4 C :   -0.483573
   5 H :    0.125983
   6 H :    0.207677
   7 H :    0.129060
   8 H :    0.184775

  Mayer bond orders larger than 0.100000
B(  0-Pt,  1-Cl) :   0.8003 B(  0-Pt,  2-Cl) :   1.0028 B(  0-Pt,  3-Cl) :   0.7898
B(  1-Cl,  3-Cl) :   0.1110 B(  4-C ,  5-H ) :   0.9144 B(  4-C ,  6-H ) :   0.8529
B(  4-C ,  7-H ) :   0.9106 B(  4-C ,  8-H ) :   0.8961

Dispersion correction           -0.004754088
FINAL SINGLE POINT ENERGY     -1539.019341273807
Dispersion correction            ... done

DIPOLE MOMENT
-------------
                                X             Y             Z
Electronic contribution:      1.43447      -0.94743       2.88139
Nuclear contribution   :     -0.40341       1.83705      -3.38164
                        -----------------------------------------
Total Dipole Moment    :      1.03107       0.88962      -0.50025
                        -----------------------------------------
Magnitude (a.u.)       :      1.45078
Magnitude (Debye)      :      3.68760

Rotational constants in cm-1:     0.052120     0.043175     0.023759
Rotational constants in MHz :  1562.505550  1294.344297   712.274735

                             ****ORCA TERMINATED NORMALLY****
TOTAL RUN TIME: 0 days 0 hours 0 minutes 44 seconds 204 msec
