                         Program Version 5.0.3 -  RELEASE  -
|  1> ! EnGrad PBEh-3c
|  2> %output
|  3> xyzfile=True
|  4> end
|  5> %scf
|  6> maxiter 250
|  7> end
|  8> %output
|  9> Print[P_Hirshfeld] = 1
| 10> end
| 11> % maxcore
| 12> 4000
| 13> *xyz -1 1
| 14> Pt  -0.96521813  -0.88533296   0.52521305
| 15> Cl  -0.23659747  -0.51126869   2.69147990
| 16> Cl  -2.64647192  -2.18945145   1.14765656
| 17> Cl  -1.53729412  -1.10355595  -1.70552118
| 18> C    1.07155101   0.84510914  -0.44292279
| 19> H    1.44840356   1.79555068   0.00065226
| 20> H    1.15897987   0.04358425   0.09902065
| 21> H    1.63332942   0.72896977  -1.40224044
| 22> H    0.06821214   1.27591975  -0.91292382
| 23> *
| 24>
| 25>                          ****END OF INPUT****

CARTESIAN COORDINATES (ANGSTROEM)
---------------------------------
  Pt    -0.965218   -0.885333    0.525213
  Cl    -0.236597   -0.511269    2.691480
  Cl    -2.646472   -2.189451    1.147657
  Cl    -1.537294   -1.103556   -1.705521
  C      1.071551    0.845109   -0.442923
  H      1.448404    1.795551    0.000652
  H      1.158980    0.043584    0.099021
  H      1.633329    0.728970   -1.402240
  H      0.068212    1.275920   -0.912924

 Total Charge           Charge          ....   -1
 Multiplicity           Mult            ....    1
 Number of Electrons    NEL             ....   80
 Basis Dimension        Dim             ....  109

ORBITAL ENERGIES
----------------

  NO   OCC          E(Eh)            E(eV)
   0   2.0000    -102.113348     -2778.6455
   1   2.0000    -102.088002     -2777.9557
   2   2.0000    -102.087344     -2777.9379
   3   2.0000     -10.324409      -280.9414
   4   2.0000      -9.577794      -260.6250
   5   2.0000      -9.552194      -259.9284
   6   2.0000      -9.551590      -259.9120
   7   2.0000      -7.265326      -197.6996
   8   2.0000      -7.257815      -197.4952
   9   2.0000      -7.257473      -197.4859
  10   2.0000      -7.237994      -196.9558
  11   2.0000      -7.237463      -196.9414
  12   2.0000      -7.233278      -196.8275
  13   2.0000      -7.233044      -196.8211
  14   2.0000      -7.232567      -196.8082
  15   2.0000      -7.232463      -196.8053
  16   2.0000      -3.939846      -107.2087
  17   2.0000      -2.158047       -58.7234
  18   2.0000      -2.153531       -58.6005
  19   2.0000      -2.116755       -57.5998
  20   2.0000      -0.708568       -19.2811
  21   2.0000      -0.688442       -18.7334
  22   2.0000      -0.681166       -18.5355
  23   2.0000      -0.675745       -18.3879
  24   2.0000      -0.407035       -11.0760
  25   2.0000      -0.335655        -9.1336
  26   2.0000      -0.318510        -8.6671
  27   2.0000      -0.286370        -7.7925
  28   2.0000      -0.275792        -7.5047
  29   2.0000      -0.269898        -7.3443
  30   2.0000      -0.232961        -6.3392
  31   2.0000      -0.229300        -6.2396
  32   2.0000      -0.202038        -5.4977
  33   2.0000      -0.179711        -4.8902
  34   2.0000      -0.176586        -4.8051
  35   2.0000      -0.155178        -4.2226
  36   2.0000      -0.142752        -3.8845
  37   2.0000      -0.134433        -3.6581
  38   2.0000      -0.124614        -3.3909
  39   2.0000      -0.113198        -3.0803
  40   0.0000       0.078977         2.1491
  41   0.0000       0.198966         5.4142
  42   0.0000       0.202787         5.5181
  43   0.0000       0.252922         6.8824
  44   0.0000       0.271558         7.3895

MULLIKEN ATOMIC CHARGES
-----------------------
   0 Pt:    0.098400
   1 Cl:   -0.436850
   2 Cl:   -0.297608
   3 Cl:   -0.438853
   4 C :   -0.935150
   5 H :    0.220333
   6 H :    0.302468
   7 H :    0.222537
   8 H :    0.264723
Sum of atomic charges:   -1.0000000

LOEWDIN ATOMIC CHARGES
----------------------
   0 Pt:   -0.901597
   1 Cl:   -0.138570
   2 Cl:    0.039298
   3 Cl:   -0.138135
   4 C :   -0.483736
   5 H :    0.129805
   6 H :    0.172752
   7 H :    0.131379
   8 H :    0.188805

  Mayer bond orders larger than 0.100000
B(  0-Pt,  1-Cl) :   0.8073 B(  0-Pt,  2-Cl) :   1.0249 B(  0-Pt,  3-Cl) :   0.7913
B(  1-Cl,  3-Cl) :   0.1114 B(  4-C ,  5-H ) :   0.9226 B(  4-C ,  6-H ) :   0.8441
B(  4-C ,  7-H ) :   0.9227 B(  4-C ,  8-H ) :   0.8924

Dispersion correction           -0.004852415
FINAL SINGLE POINT ENERGY     -1539.018071576630
Dispersion correction            ... done

DIPOLE MOMENT
-------------
                                X             Y             Z
Electronic contribution:      1.33687      -1.72006       2.51142
Nuclear contribution   :     -0.40734       2.55662      -2.99671
                        -----------------------------------------
Total Dipole Moment    :      0.92954       0.83656      -0.48529
                        -----------------------------------------
Magnitude (a.u.)       :      1.34141
Magnitude (Debye)      :      3.40960

Rotational constants in cm-1:     0.054715     0.044006     0.024528
Rotational constants in MHz :  1640.308154  1319.280490   735.326892

                             ****ORCA TERMINATED NORMALLY****
TOTAL RUN TIME: 0 days 0 hours 0 minutes 43 seconds 586 msec
