                         Program Version 5.0.3 -  RELEASE  -
|  1> ! EnGrad PBEh-3c
|  2> %output
|  3> xyzfile=True
|  4> end
|  5> %scf
|  6> maxiter 250
|  7> end
|  8> %output
|  9> Print[P_Hirshfeld] = 1
| 10> end
| 11> % maxcore
| 12> 4000
| 13> *xyz -1 1
| 14> Pt  -0.96860457  -0.88529524   0.52414691
| 15> Cl  -0.23641467  -0.51246133   2.68892602
| 16> Cl  -2.64783369  -2.19167681   1.14944391
| 17> Cl  -1.53788294  -1.10190603  -1.70383412
| 18> C    1.05526740   0.91495368  -0.49561538
| 19> H    1.45022311   1.78274850   0.00282954
| 20> H    1.15311795   0.01963729   0.11682785
| 21> H    1.63487024   0.72491184  -1.39177813
| 22> H    0.09118644   1.24873751  -0.89050651
| 23> *
| 24>
| 25>                          ****END OF INPUT****

CARTESIAN COORDINATES (ANGSTROEM)
---------------------------------
  Pt    -0.968605   -0.885295    0.524147
  Cl    -0.236415   -0.512461    2.688926
  Cl    -2.647834   -2.191677    1.149444
  Cl    -1.537883   -1.101906   -1.703834
  C      1.055267    0.914954   -0.495615
  H      1.450223    1.782749    0.002830
  H      1.153118    0.019637    0.116828
  H      1.634870    0.724912   -1.391778
  H      0.091186    1.248738   -0.890507

 Total Charge           Charge          ....   -1
 Multiplicity           Mult            ....    1
 Number of Electrons    NEL             ....   80
 Basis Dimension        Dim             ....  109

ORBITAL ENERGIES
----------------

  NO   OCC          E(Eh)            E(eV)
   0   2.0000    -102.113567     -2778.6514
   1   2.0000    -102.088161     -2777.9601
   2   2.0000    -102.087850     -2777.9516
   3   2.0000     -10.318239      -280.7735
   4   2.0000      -9.578008      -260.6309
   5   2.0000      -9.552433      -259.9349
   6   2.0000      -9.552065      -259.9249
   7   2.0000      -7.265535      -197.7053
   8   2.0000      -7.258034      -197.5012
   9   2.0000      -7.257690      -197.4918
  10   2.0000      -7.238293      -196.9640
  11   2.0000      -7.237872      -196.9525
  12   2.0000      -7.233424      -196.8315
  13   2.0000      -7.233298      -196.8281
  14   2.0000      -7.233137      -196.8237
  15   2.0000      -7.232917      -196.8177
  16   2.0000      -3.940276      -107.2204
  17   2.0000      -2.158399       -58.7330
  18   2.0000      -2.153942       -58.6117
  19   2.0000      -2.117170       -57.6111
  20   2.0000      -0.708694       -19.2845
  21   2.0000      -0.688532       -18.7359
  22   2.0000      -0.680913       -18.5286
  23   2.0000      -0.676119       -18.3981
  24   2.0000      -0.377644       -10.2762
  25   2.0000      -0.349681        -9.5153
  26   2.0000      -0.338407        -9.2085
  27   2.0000      -0.287019        -7.8102
  28   2.0000      -0.275391        -7.4938
  29   2.0000      -0.272264        -7.4087
  30   2.0000      -0.233206        -6.3459
  31   2.0000      -0.229908        -6.2561
  32   2.0000      -0.202513        -5.5107
  33   2.0000      -0.180114        -4.9011
  34   2.0000      -0.177164        -4.8209
  35   2.0000      -0.155663        -4.2358
  36   2.0000      -0.143094        -3.8938
  37   2.0000      -0.134807        -3.6683
  38   2.0000      -0.124680        -3.3927
  39   2.0000      -0.113341        -3.0842
  40   0.0000       0.078734         2.1425
  41   0.0000       0.197519         5.3748
  42   0.0000       0.203071         5.5258
  43   0.0000       0.265455         7.2234
  44   0.0000       0.271174         7.3790

MULLIKEN ATOMIC CHARGES
-----------------------
   0 Pt:    0.097419
   1 Cl:   -0.436346
   2 Cl:   -0.298899
   3 Cl:   -0.438489
   4 C :   -0.925773
   5 H :    0.225160
   6 H :    0.271143
   7 H :    0.227615
   8 H :    0.278170
Sum of atomic charges:   -1.0000000

LOEWDIN ATOMIC CHARGES
----------------------
   0 Pt:   -0.904808
   1 Cl:   -0.138736
   2 Cl:    0.038190
   3 Cl:   -0.135850
   4 C :   -0.483797
   5 H :    0.128815
   6 H :    0.186159
   7 H :    0.131018
   8 H :    0.179009

  Mayer bond orders larger than 0.100000
B(  0-Pt,  1-Cl) :   0.8079 B(  0-Pt,  2-Cl) :   1.0213 B(  0-Pt,  3-Cl) :   0.7924
B(  0-Pt,  4-C ) :   0.1005 B(  1-Cl,  3-Cl) :   0.1114 B(  4-C ,  5-H ) :   0.9208
B(  4-C ,  6-H ) :   0.8499 B(  4-C ,  7-H ) :   0.9215 B(  4-C ,  8-H ) :   0.8887

Dispersion correction           -0.004847821
FINAL SINGLE POINT ENERGY     -1539.042217682956
Dispersion correction            ... done

DIPOLE MOMENT
-------------
                                X             Y             Z
Electronic contribution:      1.23949      -2.01999       2.67585
Nuclear contribution   :     -0.30288       2.82832      -3.14596
                        -----------------------------------------
Total Dipole Moment    :      0.93662       0.80834      -0.47011
                        -----------------------------------------
Magnitude (a.u.)       :      1.32351
Magnitude (Debye)      :      3.36408

Rotational constants in cm-1:     0.054152     0.044050     0.024428
Rotational constants in MHz :  1623.422193  1320.575007   732.340674

                             ****ORCA TERMINATED NORMALLY****
TOTAL RUN TIME: 0 days 0 hours 0 minutes 44 seconds 318 msec
