                         Program Version 5.0.3 -  RELEASE  -
|  1> ! EnGrad PBEh-3c
|  2> %output
|  3> xyzfile=True
|  4> end
|  5> %scf
|  6> maxiter 250
|  7> end
|  8> %output
|  9> Print[P_Hirshfeld] = 1
| 10> end
| 11> % maxcore
| 12> 4000
| 13> *xyz -1 1
| 14> Pt  -0.96682359  -0.88346341   0.52261268
| 15> Cl  -0.23530429  -0.50976718   2.68672577
| 16> Cl  -2.64850382  -2.19059490   1.15066378
| 17> Cl  -1.53445785  -1.10238152  -1.70440096
| 18> C    1.05294117   0.92532091  -0.50850052
| 19> H    1.45401977   1.77816759   0.01041676
| 20> H    1.14412288   0.02033470   0.11346120
| 21> H    1.63500264   0.72396548  -1.39117810
| 22> H    0.09202608   1.23810659  -0.87923058
| 23> *
| 24>
| 25>                          ****END OF INPUT****

CARTESIAN COORDINATES (ANGSTROEM)
---------------------------------
  Pt    -0.966824   -0.883463    0.522613
  Cl    -0.235304   -0.509767    2.686726
  Cl    -2.648504   -2.190595    1.150664
  Cl    -1.534458   -1.102382   -1.704401
  C      1.052941    0.925321   -0.508501
  H      1.454020    1.778168    0.010417
  H      1.144123    0.020335    0.113461
  H      1.635003    0.723965   -1.391178
  H      0.092026    1.238107   -0.879231

 Total Charge           Charge          ....   -1
 Multiplicity           Mult            ....    1
 Number of Electrons    NEL             ....   80
 Basis Dimension        Dim             ....  109

ORBITAL ENERGIES
----------------

  NO   OCC          E(Eh)            E(eV)
   0   2.0000    -102.113593     -2778.6521
   1   2.0000    -102.088387     -2777.9662
   2   2.0000    -102.087915     -2777.9534
   3   2.0000     -10.317007      -280.7400
   4   2.0000      -9.577986      -260.6303
   5   2.0000      -9.552671      -259.9414
   6   2.0000      -9.552140      -259.9270
   7   2.0000      -7.265512      -197.7046
   8   2.0000      -7.258018      -197.5007
   9   2.0000      -7.257675      -197.4914
  10   2.0000      -7.238528      -196.9704
  11   2.0000      -7.237949      -196.9546
  12   2.0000      -7.233663      -196.8380
  13   2.0000      -7.233535      -196.8345
  14   2.0000      -7.233210      -196.8256
  15   2.0000      -7.232991      -196.8197
  16   2.0000      -3.940442      -107.2249
  17   2.0000      -2.158477       -58.7351
  18   2.0000      -2.154151       -58.6174
  19   2.0000      -2.117340       -57.6157
  20   2.0000      -0.708523       -19.2799
  21   2.0000      -0.688887       -18.7456
  22   2.0000      -0.681620       -18.5478
  23   2.0000      -0.676300       -18.4030
  24   2.0000      -0.373222       -10.1559
  25   2.0000      -0.351970        -9.5776
  26   2.0000      -0.343388        -9.3441
  27   2.0000      -0.287295        -7.8177
  28   2.0000      -0.275142        -7.4870
  29   2.0000      -0.272200        -7.4069
  30   2.0000      -0.232969        -6.3394
  31   2.0000      -0.230132        -6.2622
  32   2.0000      -0.202654        -5.5145
  33   2.0000      -0.180285        -4.9058
  34   2.0000      -0.177347        -4.8259
  35   2.0000      -0.155849        -4.2409
  36   2.0000      -0.143273        -3.8987
  37   2.0000      -0.135101        -3.6763
  38   2.0000      -0.124806        -3.3962
  39   2.0000      -0.113412        -3.0861
  40   0.0000       0.078274         2.1299
  41   0.0000       0.197307         5.3690
  42   0.0000       0.202958         5.5228
  43   0.0000       0.266632         7.2554
  44   0.0000       0.271008         7.3745

MULLIKEN ATOMIC CHARGES
-----------------------
   0 Pt:    0.095598
   1 Cl:   -0.435850
   2 Cl:   -0.299568
   3 Cl:   -0.438319
   4 C :   -0.922503
   5 H :    0.224361
   6 H :    0.266150
   7 H :    0.229439
   8 H :    0.280692
Sum of atomic charges:   -1.0000000

LOEWDIN ATOMIC CHARGES
----------------------
   0 Pt:   -0.904659
   1 Cl:   -0.138226
   2 Cl:    0.036425
   3 Cl:   -0.135102
   4 C :   -0.481675
   5 H :    0.128954
   6 H :    0.185935
   7 H :    0.131386
   8 H :    0.176961

  Mayer bond orders larger than 0.100000
B(  0-Pt,  1-Cl) :   0.8086 B(  0-Pt,  2-Cl) :   1.0194 B(  0-Pt,  3-Cl) :   0.7928
B(  0-Pt,  4-C ) :   0.1024 B(  1-Cl,  3-Cl) :   0.1115 B(  4-C ,  5-H ) :   0.9215
B(  4-C ,  6-H ) :   0.8497 B(  4-C ,  7-H ) :   0.9210 B(  4-C ,  8-H ) :   0.8872

Dispersion correction           -0.004851572
FINAL SINGLE POINT ENERGY     -1539.043340567825
Dispersion correction            ... done

DIPOLE MOMENT
-------------
                                X             Y             Z
Electronic contribution:      1.30380      -2.00669       2.66451
Nuclear contribution   :     -0.36515       2.81071      -3.13185
                        -----------------------------------------
Total Dipole Moment    :      0.93864       0.80402      -0.46735
                        -----------------------------------------
Magnitude (a.u.)       :      1.32133
Magnitude (Debye)      :      3.35855

Rotational constants in cm-1:     0.054043     0.044074     0.024413
Rotational constants in MHz :  1620.170730  1321.294356   731.884770

                             ****ORCA TERMINATED NORMALLY****
TOTAL RUN TIME: 0 days 0 hours 0 minutes 43 seconds 594 msec
