                         Program Version 5.0.3 -  RELEASE  -
|  1> ! EnGrad PBEh-3c
|  2> %output
|  3> xyzfile=True
|  4> end
|  5> %scf
|  6> maxiter 250
|  7> end
|  8> %output
|  9> Print[P_Hirshfeld] = 1
| 10> end
| 11> % maxcore
| 12> 4000
| 13> *xyz -1 1
| 14> Pt  -0.95880045  -0.87575991   0.51585916
| 15> Cl  -0.22911951  -0.49504779   2.67517834
| 16> Cl  -2.65149191  -2.18419405   1.15732444
| 17> Cl  -1.51618744  -1.10463600  -1.70862445
| 18> C    1.06439654   0.94925978  -0.53508856
| 19> H    1.47461241   1.75637626   0.04915981
| 20> H    1.09347859   0.04122299   0.08343470
| 21> H    1.64343561   0.71888956  -1.40252141
| 22> H    0.06740604   1.19376639  -0.83331740
| 23> *
| 24>
| 25>                          ****END OF INPUT****

CARTESIAN COORDINATES (ANGSTROEM)
---------------------------------
  Pt    -0.958800   -0.875760    0.515859
  Cl    -0.229120   -0.495048    2.675178
  Cl    -2.651492   -2.184194    1.157324
  Cl    -1.516187   -1.104636   -1.708624
  C      1.064397    0.949260   -0.535089
  H      1.474612    1.756376    0.049160
  H      1.093479    0.041223    0.083435
  H      1.643436    0.718890   -1.402521
  H      0.067406    1.193766   -0.833317

 Total Charge           Charge          ....   -1
 Multiplicity           Mult            ....    1
 Number of Electrons    NEL             ....   80
 Basis Dimension        Dim             ....  109

ORBITAL ENERGIES
----------------

  NO   OCC          E(Eh)            E(eV)
   0   2.0000    -102.114271     -2778.6706
   1   2.0000    -102.089468     -2777.9957
   2   2.0000    -102.088721     -2777.9753
   3   2.0000     -10.315297      -280.6935
   4   2.0000      -9.578458      -260.6431
   5   2.0000      -9.553803      -259.9722
   6   2.0000      -9.552997      -259.9503
   7   2.0000      -7.265993      -197.7177
   8   2.0000      -7.258502      -197.5139
   9   2.0000      -7.258168      -197.5048
  10   2.0000      -7.239650      -197.0009
  11   2.0000      -7.238810      -196.9780
  12   2.0000      -7.234802      -196.8690
  13   2.0000      -7.234659      -196.8651
  14   2.0000      -7.234061      -196.8488
  15   2.0000      -7.233832      -196.8426
  16   2.0000      -3.941385      -107.2505
  17   2.0000      -2.159145       -58.7533
  18   2.0000      -2.155328       -58.6495
  19   2.0000      -2.118303       -57.6420
  20   2.0000      -0.708266       -19.2729
  21   2.0000      -0.690001       -18.7759
  22   2.0000      -0.682529       -18.5726
  23   2.0000      -0.677377       -18.4324
  24   2.0000      -0.360525        -9.8104
  25   2.0000      -0.356710        -9.7066
  26   2.0000      -0.355491        -9.6734
  27   2.0000      -0.288819        -7.8592
  28   2.0000      -0.274859        -7.4793
  29   2.0000      -0.271808        -7.3963
  30   2.0000      -0.232732        -6.3330
  31   2.0000      -0.230972        -6.2851
  32   2.0000      -0.203587        -5.5399
  33   2.0000      -0.181268        -4.9326
  34   2.0000      -0.178545        -4.8585
  35   2.0000      -0.157047        -4.2735
  36   2.0000      -0.144330        -3.9274
  37   2.0000      -0.136649        -3.7184
  38   2.0000      -0.125574        -3.4170
  39   2.0000      -0.114000        -3.1021
  40   0.0000       0.075323         2.0497
  41   0.0000       0.197479         5.3737
  42   0.0000       0.201845         5.4925
  43   0.0000       0.268136         7.2964
  44   0.0000       0.270269         7.3544

MULLIKEN ATOMIC CHARGES
-----------------------
   0 Pt:    0.086884
   1 Cl:   -0.433287
   2 Cl:   -0.300911
   3 Cl:   -0.437322
   4 C :   -0.912024
   5 H :    0.224170
   6 H :    0.260949
   7 H :    0.231585
   8 H :    0.279955
Sum of atomic charges:   -1.0000000

LOEWDIN ATOMIC CHARGES
----------------------
   0 Pt:   -0.903273
   1 Cl:   -0.134851
   2 Cl:    0.030406
   3 Cl:   -0.132261
   4 C :   -0.477173
   5 H :    0.130456
   6 H :    0.178834
   7 H :    0.132809
   8 H :    0.175054

  Mayer bond orders larger than 0.100000
B(  0-Pt,  1-Cl) :   0.8125 B(  0-Pt,  2-Cl) :   1.0132 B(  0-Pt,  3-Cl) :   0.7945
B(  0-Pt,  4-C ) :   0.1090 B(  1-Cl,  3-Cl) :   0.1120 B(  4-C ,  5-H ) :   0.9219
B(  4-C ,  6-H ) :   0.8448 B(  4-C ,  7-H ) :   0.9211 B(  4-C ,  8-H ) :   0.8847

Dispersion correction           -0.004870289
FINAL SINGLE POINT ENERGY     -1539.044760996423
Dispersion correction            ... done

DIPOLE MOMENT
-------------
                                X             Y             Z
Electronic contribution:      1.42214      -1.94505       2.52576
Nuclear contribution   :     -0.49674       2.72263      -2.97287
                        -----------------------------------------
Total Dipole Moment    :      0.92541       0.77759      -0.44711
                        -----------------------------------------
Magnitude (a.u.)       :      1.28877
Magnitude (Debye)      :      3.27578

Rotational constants in cm-1:     0.053627     0.044210     0.024365
Rotational constants in MHz :  1607.687682  1325.380035   730.456372

                             ****ORCA TERMINATED NORMALLY****
TOTAL RUN TIME: 0 days 0 hours 0 minutes 44 seconds 88 msec
