                         Program Version 5.0.3 -  RELEASE  -
|  1> ! EnGrad PBEh-3c
|  2> %output
|  3> xyzfile=True
|  4> end
|  5> %scf
|  6> maxiter 250
|  7> end
|  8> %output
|  9> Print[P_Hirshfeld] = 1
| 10> end
| 11> % maxcore
| 12> 4000
| 13> *xyz -1 1
| 14> Pt  -0.96359337  -0.87641666   0.51702143
| 15> Cl  -0.22718458  -0.49340468   2.67798646
| 16> Cl  -2.65822394  -2.19056252   1.16225428
| 17> Cl  -1.51733099  -1.10456866  -1.71542044
| 18> C    1.05520585   0.95672337  -0.53906261
| 19> H    1.48535792   1.76367346   0.05760883
| 20> H    1.10113488   0.02994175   0.10287945
| 21> H    1.65968538   0.71754868  -1.42124403
| 22> H    0.05009643   1.19716942  -0.83996175
| 23> *
| 24>
| 25>                          ****END OF INPUT****

CARTESIAN COORDINATES (ANGSTROEM)
---------------------------------
  Pt    -0.963593   -0.876417    0.517021
  Cl    -0.227185   -0.493405    2.677986
  Cl    -2.658224   -2.190563    1.162254
  Cl    -1.517331   -1.104569   -1.715420
  C      1.055206    0.956723   -0.539063
  H      1.485358    1.763673    0.057609
  H      1.101135    0.029942    0.102879
  H      1.659685    0.717549   -1.421244
  H      0.050096    1.197169   -0.839962

 Total Charge           Charge          ....   -1
 Multiplicity           Mult            ....    1
 Number of Electrons    NEL             ....   80
 Basis Dimension        Dim             ....  109

ORBITAL ENERGIES
----------------

  NO   OCC          E(Eh)            E(eV)
   0   2.0000    -102.114215     -2778.6690
   1   2.0000    -102.089578     -2777.9987
   2   2.0000    -102.089135     -2777.9866
   3   2.0000     -10.324042      -280.9315
   4   2.0000      -9.578313      -260.6391
   5   2.0000      -9.553819      -259.9726
   6   2.0000      -9.553354      -259.9600
   7   2.0000      -7.265838      -197.7135
   8   2.0000      -7.258371      -197.5103
   9   2.0000      -7.258042      -197.5014
  10   2.0000      -7.239669      -197.0014
  11   2.0000      -7.239179      -196.9881
  12   2.0000      -7.234825      -196.8696
  13   2.0000      -7.234686      -196.8658
  14   2.0000      -7.234413      -196.8584
  15   2.0000      -7.234191      -196.8524
  16   2.0000      -3.941817      -107.2623
  17   2.0000      -2.159370       -58.7595
  18   2.0000      -2.155648       -58.6582
  19   2.0000      -2.118715       -57.6532
  20   2.0000      -0.707489       -19.2517
  21   2.0000      -0.688853       -18.7446
  22   2.0000      -0.677960       -18.4482
  23   2.0000      -0.676497       -18.4084
  24   2.0000      -0.357984        -9.7412
  25   2.0000      -0.354076        -9.6349
  26   2.0000      -0.350509        -9.5378
  27   2.0000      -0.288069        -7.8388
  28   2.0000      -0.273833        -7.4514
  29   2.0000      -0.270746        -7.3674
  30   2.0000      -0.232173        -6.3177
  31   2.0000      -0.230489        -6.2719
  32   2.0000      -0.203542        -5.5387
  33   2.0000      -0.181262        -4.9324
  34   2.0000      -0.178369        -4.8537
  35   2.0000      -0.157359        -4.2820
  36   2.0000      -0.144690        -3.9372
  37   2.0000      -0.137113        -3.7310
  38   2.0000      -0.126106        -3.4315
  39   2.0000      -0.114772        -3.1231
  40   0.0000       0.074195         2.0189
  41   0.0000       0.195890         5.3304
  42   0.0000       0.200656         5.4601
  43   0.0000       0.266545         7.2531
  44   0.0000       0.269564         7.3352

MULLIKEN ATOMIC CHARGES
-----------------------
   0 Pt:    0.089705
   1 Cl:   -0.433682
   2 Cl:   -0.302764
   3 Cl:   -0.438243
   4 C :   -0.899941
   5 H :    0.222282
   6 H :    0.256261
   7 H :    0.225621
   8 H :    0.280761
Sum of atomic charges:   -1.0000000

LOEWDIN ATOMIC CHARGES
----------------------
   0 Pt:   -0.899381
   1 Cl:   -0.136313
   2 Cl:    0.026620
   3 Cl:   -0.135608
   4 C :   -0.475110
   5 H :    0.129852
   6 H :    0.181526
   7 H :    0.132303
   8 H :    0.176111

  Mayer bond orders larger than 0.100000
B(  0-Pt,  1-Cl) :   0.8110 B(  0-Pt,  2-Cl) :   1.0102 B(  0-Pt,  3-Cl) :   0.7924
B(  0-Pt,  4-C ) :   0.1098 B(  1-Cl,  3-Cl) :   0.1118 B(  4-C ,  5-H ) :   0.9202
B(  4-C ,  6-H ) :   0.8432 B(  4-C ,  7-H ) :   0.9226 B(  4-C ,  8-H ) :   0.8827

Dispersion correction           -0.004856871
FINAL SINGLE POINT ENERGY     -1539.044751096791
Dispersion correction            ... done

DIPOLE MOMENT
-------------
                                X             Y             Z
Electronic contribution:      1.27424      -1.94451       2.60350
Nuclear contribution   :     -0.33966       2.72830      -3.04443
                        -----------------------------------------
Total Dipole Moment    :      0.93458       0.78379      -0.44094
                        -----------------------------------------
Magnitude (a.u.)       :      1.29699
Magnitude (Debye)      :      3.29669

Rotational constants in cm-1:     0.053367     0.043994     0.024250
Rotational constants in MHz :  1599.898833  1318.896773   727.007069

                             ****ORCA TERMINATED NORMALLY****
TOTAL RUN TIME: 0 days 0 hours 0 minutes 48 seconds 22 msec
