                         Program Version 5.0.3 -  RELEASE  -
|  1> ! EnGrad PBEh-3c
|  2> %output
|  3> xyzfile=True
|  4> end
|  5> %scf
|  6> maxiter 250
|  7> end
|  8> %output
|  9> Print[P_Hirshfeld] = 1
| 10> end
| 11> % maxcore
| 12> 4000
| 13> *xyz 0 1
| 14> Lu   0.18079854  -0.23161083   0.16195955
| 15> C    0.50490491   0.62727201   2.61287014
| 16> C    1.59546335  -0.18923701   2.28336073
| 17> C    2.36517953   0.48821986   1.33168508
| 18> C    1.70269489   1.67041158   0.98758698
| 19> C    0.58661808   1.77830297   1.82802102
| 20> H    2.02306623   2.41380979   0.27577990
| 21> H   -0.04815013   2.64423035   1.91616898
| 22> H   -0.20496386   0.45228165   3.40336610
| 23> H    1.79461724  -1.15343731   2.72350557
| 24> H    3.26451440   0.11636790   0.87167827
| 25> C    0.77320539  -0.13409054  -2.34775275
| 26> C   -0.43032451  -0.85569712  -2.32375005
| 27> C    1.14646272  -2.10982613  -1.29900869
| 28> C    1.76210242  -0.94000111  -1.76456773
| 29> H    0.91926606   0.82384215  -2.82163669
| 30> C   -0.21780909  -2.05192031  -1.63421646
| 31> H   -1.34048038  -0.60816325  -2.84362623
| 32> H    2.79686377  -0.66985078  -1.63154830
| 33> H    1.61271233  -2.92075635  -0.76044081
| 34> H   -0.95477880  -2.82594887  -1.49444010
| 35> C   -2.10804218  -1.48758376   1.18677433
| 36> H   -2.34088474  -1.17045011   2.20630760
| 37> H   -2.10041206  -2.58629521   1.22002617
| 38> H   -2.98236307  -1.27883164   0.56100050
| 39> C   -1.93125418   2.15603180  -1.02879026
| 40> H   -2.32083787   0.72325735   0.20200830
| 41> H   -1.03074103   2.68017294  -1.34310692
| 42> H   -2.59659172   2.88867236  -0.56620368
| 43> H   -2.42084624   1.75084217  -1.91301894
| 44> *
| 45>
| 46>                          ****END OF INPUT****

CARTESIAN COORDINATES (ANGSTROEM)
---------------------------------
  Lu     0.180799   -0.231611    0.161960
  C      0.504905    0.627272    2.612870
  C      1.595463   -0.189237    2.283361
  C      2.365180    0.488220    1.331685
  C      1.702695    1.670412    0.987587
  C      0.586618    1.778303    1.828021
  H      2.023066    2.413810    0.275780
  H     -0.048150    2.644230    1.916169
  H     -0.204964    0.452282    3.403366
  H      1.794617   -1.153437    2.723506
  H      3.264514    0.116368    0.871678
  C      0.773205   -0.134091   -2.347753
  C     -0.430325   -0.855697   -2.323750
  C      1.146463   -2.109826   -1.299009
  C      1.762102   -0.940001   -1.764568
  H      0.919266    0.823842   -2.821637
  C     -0.217809   -2.051920   -1.634216
  H     -1.340480   -0.608163   -2.843626
  H      2.796864   -0.669851   -1.631548
  H      1.612712   -2.920756   -0.760441
  H     -0.954779   -2.825949   -1.494440
  C     -2.108042   -1.487584    1.186774
  H     -2.340885   -1.170450    2.206308
  H     -2.100412   -2.586295    1.220026
  H     -2.982363   -1.278832    0.561001
  C     -1.931254    2.156032   -1.028790
  H     -2.320838    0.723257    0.202008
  H     -1.030741    2.680173   -1.343107
  H     -2.596592    2.888672   -0.566204
  H     -2.420846    1.750842   -1.913019

 Total Charge           Charge          ....    0
 Multiplicity           Mult            ....    1
 Number of Electrons    NEL             ....  132
 Basis Dimension        Dim             ....  295

ORBITAL ENERGIES
----------------

  NO   OCC          E(Eh)            E(eV)
   0   2.0000     -19.261089      -524.1209
   1   2.0000     -12.633233      -343.7677
   2   2.0000     -12.631221      -343.7130
   3   2.0000     -12.631066      -343.7088
   4   2.0000     -10.481451      -285.2148
   5   2.0000     -10.449119      -284.3350
   6   2.0000     -10.448257      -284.3115
   7   2.0000     -10.445464      -284.2355
   8   2.0000     -10.444957      -284.2217
   9   2.0000     -10.444168      -284.2002
  10   2.0000     -10.444136      -284.1994
  11   2.0000     -10.443446      -284.1806
  12   2.0000     -10.443398      -284.1793
  13   2.0000     -10.441637      -284.1314
  14   2.0000     -10.440690      -284.1056
  15   2.0000     -10.374390      -282.3015
  16   2.0000      -5.902469      -160.6143
  17   2.0000      -5.902109      -160.6046
  18   2.0000      -5.901931      -160.5997
  19   2.0000      -5.900704      -160.5663
  20   2.0000      -5.900667      -160.5653
  21   2.0000      -2.444126       -66.5081
  22   2.0000      -1.282219       -34.8909
  23   2.0000      -1.279878       -34.8272
  24   2.0000      -1.270634       -34.5757
  25   2.0000      -0.989136       -26.9158
  26   2.0000      -0.979164       -26.6444
  27   2.0000      -0.798788       -21.7361
  28   2.0000      -0.798523       -21.7289
  29   2.0000      -0.796636       -21.6776
  30   2.0000      -0.796150       -21.6643
  31   2.0000      -0.772921       -21.0322
  32   2.0000      -0.693436       -18.8694
  33   2.0000      -0.619113       -16.8469
  34   2.0000      -0.614965       -16.7340
  35   2.0000      -0.612850       -16.6765
  36   2.0000      -0.610685       -16.6176
  37   2.0000      -0.601439       -16.3660
  38   2.0000      -0.596499       -16.2316
  39   2.0000      -0.569834       -15.5060
  40   2.0000      -0.569026       -15.4840
  41   2.0000      -0.568120       -15.4593
  42   2.0000      -0.567663       -15.4469
  43   2.0000      -0.567548       -15.4438
  44   2.0000      -0.566297       -15.4097
  45   2.0000      -0.565228       -15.3806
  46   2.0000      -0.476463       -12.9652
  47   2.0000      -0.472551       -12.8588
  48   2.0000      -0.467530       -12.7221
  49   2.0000      -0.455594       -12.3974
  50   2.0000      -0.453786       -12.3481
  51   2.0000      -0.452338       -12.3088
  52   2.0000      -0.452115       -12.3027
  53   2.0000      -0.438270       -11.9259
  54   2.0000      -0.436304       -11.8724
  55   2.0000      -0.434645       -11.8273
  56   2.0000      -0.434048       -11.8110
  57   2.0000      -0.430495       -11.7144
  58   2.0000      -0.396044       -10.7769
  59   2.0000      -0.388157       -10.5623
  60   2.0000      -0.341729        -9.2989
  61   2.0000      -0.291782        -7.9398
  62   2.0000      -0.288764        -7.8577
  63   2.0000      -0.280933        -7.6446
  64   2.0000      -0.275924        -7.5083
  65   2.0000      -0.230425        -6.2702
  66   0.0000      -0.051655        -1.4056
  67   0.0000      -0.010638        -0.2895
  68   0.0000       0.015884         0.4322
  69   0.0000       0.045303         1.2327
  70   0.0000       0.050877         1.3844

MULLIKEN ATOMIC CHARGES
-----------------------
   0 Lu:    0.753565
   1 C :   -0.257167
   2 C :   -0.336596
   3 C :   -0.234912
   4 C :   -0.345976
   5 C :   -0.252382
   6 H :    0.240373
   7 H :    0.234991
   8 H :    0.240423
   9 H :    0.249813
  10 H :    0.238024
  11 C :   -0.342406
  12 C :   -0.243509
  13 C :   -0.312935
  14 C :   -0.247018
  15 H :    0.236677
  16 C :   -0.270148
  17 H :    0.230131
  18 H :    0.238037
  19 H :    0.245422
  20 H :    0.245602
  21 C :   -0.980695
  22 H :    0.201547
  23 H :    0.204615
  24 H :    0.188305
  25 C :   -0.834840
  26 H :    0.167511
  27 H :    0.242986
  28 H :    0.249998
  29 H :    0.250562
Sum of atomic charges:   -0.0000000

LOEWDIN ATOMIC CHARGES
----------------------
   0 Lu:   -0.077518
   1 C :   -0.123146
   2 C :   -0.150479
   3 C :   -0.128584
   4 C :   -0.157167
   5 C :   -0.131297
   6 H :    0.155062
   7 H :    0.153599
   8 H :    0.159053
   9 H :    0.159364
  10 H :    0.153752
  11 C :   -0.157048
  12 C :   -0.127098
  13 C :   -0.150035
  14 C :   -0.129071
  15 H :    0.153251
  16 C :   -0.122280
  17 H :    0.152996
  18 H :    0.153913
  19 H :    0.157036
  20 H :    0.161515
  21 C :   -0.642208
  22 H :    0.116221
  23 H :    0.124625
  24 H :    0.112372
  25 C :   -0.467701
  26 H :    0.222922
  27 H :    0.149825
  28 H :    0.138976
  29 H :    0.139149

  Mayer bond orders larger than 0.100000
B(  0-Lu,  1-C ) :   0.2367 B(  0-Lu,  2-C ) :   0.2843 B(  0-Lu,  3-C ) :   0.2732
B(  0-Lu,  4-C ) :   0.2850 B(  0-Lu,  5-C ) :   0.2512 B(  0-Lu, 11-C ) :   0.2835
B(  0-Lu, 12-C ) :   0.2485 B(  0-Lu, 13-C ) :   0.2853 B(  0-Lu, 14-C ) :   0.2744
B(  0-Lu, 16-C ) :   0.2417 B(  0-Lu, 21-C ) :   0.6892 B(  0-Lu, 25-C ) :   0.1959
B(  0-Lu, 26-H ) :   0.1785 B(  1-C ,  2-C ) :   1.2827 B(  1-C ,  5-C ) :   1.3185
B(  1-C ,  8-H ) :   0.9226 B(  2-C ,  3-C ) :   1.2852 B(  2-C ,  9-H ) :   0.9092
B(  3-C ,  4-C ) :   1.2796 B(  3-C , 10-H ) :   0.9114 B(  4-C ,  5-C ) :   1.2762
B(  4-C ,  6-H ) :   0.9146 B(  5-C ,  7-H ) :   0.9219 B( 11-C , 12-C ) :   1.2728
B( 11-C , 14-C ) :   1.2840 B( 11-C , 15-H ) :   0.9170 B( 12-C , 16-C ) :   1.3207
B( 12-C , 17-H ) :   0.9254 B( 13-C , 14-C ) :   1.2819 B( 13-C , 16-C ) :   1.2797
B( 13-C , 19-H ) :   0.9095 B( 14-C , 18-H ) :   0.9120 B( 16-C , 20-H ) :   0.9189
B( 21-C , 22-H ) :   0.9209 B( 21-C , 23-H ) :   0.9184 B( 21-C , 24-H ) :   0.9188
B( 25-C , 26-H ) :   0.7047 B( 25-C , 27-H ) :   0.9037 B( 25-C , 28-H ) :   0.9077
B( 25-C , 29-H ) :   0.9029

Dispersion correction           -0.017748748
FINAL SINGLE POINT ENERGY     -1702.238925075397
Dispersion correction            ... done

DIPOLE MOMENT
-------------
                                X             Y             Z
Electronic contribution:      2.00108      -9.36708       7.72575
Nuclear contribution   :     -1.59106      10.16042      -8.26305
                        -----------------------------------------
Total Dipole Moment    :      0.41001       0.79333      -0.53729
                        -----------------------------------------
Magnitude (a.u.)       :      1.04220
Magnitude (Debye)      :      2.64905

Rotational constants in cm-1:     0.027980     0.019037     0.017421
Rotational constants in MHz :   838.817220   570.720626   522.272039

                             ****ORCA TERMINATED NORMALLY****
TOTAL RUN TIME: 0 days 0 hours 9 minutes 28 seconds 888 msec
