                         Program Version 5.0.3 -  RELEASE  -
|  1> ! EnGrad PBEh-3c
|  2> %output
|  3> xyzfile=True
|  4> end
|  5> %scf
|  6> maxiter 250
|  7> end
|  8> %output
|  9> Print[P_Hirshfeld] = 1
| 10> end
| 11> % maxcore
| 12> 4000
| 13> *xyz 0 1
| 14> Lu   0.16627831   0.06556657  -0.02722119
| 15> C    0.36447747   0.94316472   2.42907467
| 16> C    1.33197391  -0.08377681   2.15900632
| 17> C    2.27754370   0.42504282   1.27992315
| 18> C    1.91347469   1.71839467   0.89454541
| 19> C    0.74770812   2.05442143   1.62057244
| 20> H    2.56116648   2.40496635   0.37825721
| 21> H    0.25536007   3.00047975   1.60484270
| 22> H   -0.42214715   0.90233109   3.08545510
| 23> H    1.36508941  -1.02194360   2.67788169
| 24> H    3.17836874  -0.09561154   0.99754518
| 25> C    1.02128508  -0.05015882  -2.49888460
| 26> C   -0.26482885  -0.61308420  -2.57201466
| 27> C    1.01983858  -1.93049397  -1.22499657
| 28> C    1.81156383  -0.88891002  -1.70334351
| 29> H    1.40677700   0.73882628  -3.13131444
| 30> C   -0.30085041  -1.79154931  -1.76142975
| 31> H   -1.08954374  -0.21750652  -3.12680186
| 32> H    2.87920206  -0.82333174  -1.57580172
| 33> H    1.35105406  -2.77270442  -0.64687988
| 34> H   -1.09182172  -2.44316065  -1.63907937
| 35> C   -2.42604803  -1.31966749   1.19134452
| 36> H   -2.19491353  -1.36082853   2.26667513
| 37> H   -1.98716838  -2.24795512   0.82151261
| 38> H   -3.55352841  -1.36419978   1.15744210
| 39> C   -1.94664485   1.33938089  -0.52475355
| 40> H   -2.06367646   0.23361460   0.07467599
| 41> H   -1.19627203   2.02956351  -1.00587640
| 42> H   -2.43933953   1.98179846   0.18965990
| 43> H   -2.65329048   1.19733166  -1.32081712
| 44> *
| 45>
| 46>                          ****END OF INPUT****

CARTESIAN COORDINATES (ANGSTROEM)
---------------------------------
  Lu     0.166278    0.065567   -0.027221
  C      0.364477    0.943165    2.429075
  C      1.331974   -0.083777    2.159006
  C      2.277544    0.425043    1.279923
  C      1.913475    1.718395    0.894545
  C      0.747708    2.054421    1.620572
  H      2.561166    2.404966    0.378257
  H      0.255360    3.000480    1.604843
  H     -0.422147    0.902331    3.085455
  H      1.365089   -1.021944    2.677882
  H      3.178369   -0.095612    0.997545
  C      1.021285   -0.050159   -2.498885
  C     -0.264829   -0.613084   -2.572015
  C      1.019839   -1.930494   -1.224997
  C      1.811564   -0.888910   -1.703344
  H      1.406777    0.738826   -3.131314
  C     -0.300850   -1.791549   -1.761430
  H     -1.089544   -0.217507   -3.126802
  H      2.879202   -0.823332   -1.575802
  H      1.351054   -2.772704   -0.646880
  H     -1.091822   -2.443161   -1.639079
  C     -2.426048   -1.319667    1.191345
  H     -2.194914   -1.360829    2.266675
  H     -1.987168   -2.247955    0.821513
  H     -3.553528   -1.364200    1.157442
  C     -1.946645    1.339381   -0.524754
  H     -2.063676    0.233615    0.074676
  H     -1.196272    2.029564   -1.005876
  H     -2.439340    1.981798    0.189660
  H     -2.653290    1.197332   -1.320817

 Total Charge           Charge          ....    0
 Multiplicity           Mult            ....    1
 Number of Electrons    NEL             ....  132
 Basis Dimension        Dim             ....  295

ORBITAL ENERGIES
----------------

  NO   OCC          E(Eh)            E(eV)
   0   2.0000     -19.263269      -524.1802
   1   2.0000     -12.634614      -343.8053
   2   2.0000     -12.633699      -343.7804
   3   2.0000     -12.633541      -343.7761
   4   2.0000     -10.455217      -284.5009
   5   2.0000     -10.453997      -284.4677
   6   2.0000     -10.452354      -284.4230
   7   2.0000     -10.451994      -284.4132
   8   2.0000     -10.451683      -284.4048
   9   2.0000     -10.451351      -284.3957
  10   2.0000     -10.450226      -284.3651
  11   2.0000     -10.449140      -284.3356
  12   2.0000     -10.448766      -284.3254
  13   2.0000     -10.447959      -284.3034
  14   2.0000     -10.426657      -283.7238
  15   2.0000     -10.368818      -282.1499
  16   2.0000      -5.903954      -160.6547
  17   2.0000      -5.903912      -160.6536
  18   2.0000      -5.903811      -160.6509
  19   2.0000      -5.903233      -160.6351
  20   2.0000      -5.903094      -160.6313
  21   2.0000      -2.446661       -66.5770
  22   2.0000      -1.286467       -35.0066
  23   2.0000      -1.282742       -34.9052
  24   2.0000      -1.278453       -34.7885
  25   2.0000      -0.988058       -26.8864
  26   2.0000      -0.977650       -26.6032
  27   2.0000      -0.804569       -21.8934
  28   2.0000      -0.802309       -21.8319
  29   2.0000      -0.800964       -21.7953
  30   2.0000      -0.800437       -21.7810
  31   2.0000      -0.786801       -21.4099
  32   2.0000      -0.681867       -18.5546
  33   2.0000      -0.627965       -17.0878
  34   2.0000      -0.624901       -17.0044
  35   2.0000      -0.620330       -16.8800
  36   2.0000      -0.614998       -16.7350
  37   2.0000      -0.607188       -16.5224
  38   2.0000      -0.602219       -16.3872
  39   2.0000      -0.571547       -15.5526
  40   2.0000      -0.570706       -15.5297
  41   2.0000      -0.569907       -15.5079
  42   2.0000      -0.569723       -15.5029
  43   2.0000      -0.569559       -15.4985
  44   2.0000      -0.569338       -15.4925
  45   2.0000      -0.568399       -15.4669
  46   2.0000      -0.488492       -13.2925
  47   2.0000      -0.477110       -12.9828
  48   2.0000      -0.466531       -12.6949
  49   2.0000      -0.464765       -12.6469
  50   2.0000      -0.460614       -12.5339
  51   2.0000      -0.459882       -12.5140
  52   2.0000      -0.455325       -12.3900
  53   2.0000      -0.446867       -12.1599
  54   2.0000      -0.444066       -12.0837
  55   2.0000      -0.433775       -11.8036
  56   2.0000      -0.433368       -11.7925
  57   2.0000      -0.431101       -11.7308
  58   2.0000      -0.421671       -11.4743
  59   2.0000      -0.385635       -10.4937
  60   2.0000      -0.366100        -9.9621
  61   2.0000      -0.296631        -8.0717
  62   2.0000      -0.295881        -8.0513
  63   2.0000      -0.287522        -7.8239
  64   2.0000      -0.277821        -7.5599
  65   2.0000      -0.206697        -5.6245
  66   0.0000      -0.025375        -0.6905
  67   0.0000       0.009900         0.2694
  68   0.0000       0.036732         0.9995
  69   0.0000       0.048551         1.3211
  70   0.0000       0.054752         1.4899

MULLIKEN ATOMIC CHARGES
-----------------------
   0 Lu:    0.693452
   1 C :   -0.232869
   2 C :   -0.351994
   3 C :   -0.228674
   4 C :   -0.333016
   5 C :   -0.258419
   6 H :    0.233737
   7 H :    0.240234
   8 H :    0.255316
   9 H :    0.253352
  10 H :    0.243067
  11 C :   -0.322078
  12 C :   -0.221941
  13 C :   -0.329961
  14 C :   -0.252557
  15 H :    0.233312
  16 C :   -0.267181
  17 H :    0.238691
  18 H :    0.238984
  19 H :    0.250508
  20 H :    0.256678
  21 C :   -0.985268
  22 H :    0.185872
  23 H :    0.184685
  24 H :    0.186702
  25 C :   -1.103268
  26 H :    0.355281
  27 H :    0.253050
  28 H :    0.294680
  29 H :    0.289623
Sum of atomic charges:   -0.0000000

LOEWDIN ATOMIC CHARGES
----------------------
   0 Lu:   -0.126099
   1 C :   -0.112251
   2 C :   -0.144347
   3 C :   -0.120918
   4 C :   -0.148733
   5 C :   -0.124674
   6 H :    0.157608
   7 H :    0.152533
   8 H :    0.160575
   9 H :    0.162676
  10 H :    0.156583
  11 C :   -0.147868
  12 C :   -0.115245
  13 C :   -0.145855
  14 C :   -0.124833
  15 H :    0.155486
  16 C :   -0.121611
  17 H :    0.152727
  18 H :    0.155699
  19 H :    0.160618
  20 H :    0.162059
  21 C :   -0.712362
  22 H :    0.107233
  23 H :    0.108727
  24 H :    0.114642
  25 C :   -0.552142
  26 H :    0.290479
  27 H :    0.186946
  28 H :    0.156699
  29 H :    0.155648

  Mayer bond orders larger than 0.100000
B(  0-Lu,  1-C ) :   0.2478 B(  0-Lu,  2-C ) :   0.3091 B(  0-Lu,  3-C ) :   0.2846
B(  0-Lu,  4-C ) :   0.2985 B(  0-Lu,  5-C ) :   0.2498 B(  0-Lu, 11-C ) :   0.2826
B(  0-Lu, 12-C ) :   0.2436 B(  0-Lu, 13-C ) :   0.3195 B(  0-Lu, 14-C ) :   0.2907
B(  0-Lu, 16-C ) :   0.2631 B(  0-Lu, 21-C ) :   0.4794 B(  0-Lu, 25-C ) :   0.3913
B(  0-Lu, 26-H ) :   0.1470 B(  1-C ,  2-C ) :   1.2663 B(  1-C ,  5-C ) :   1.3238
B(  1-C ,  8-H ) :   0.9141 B(  2-C ,  3-C ) :   1.2750 B(  2-C ,  9-H ) :   0.9141
B(  3-C ,  4-C ) :   1.2632 B(  3-C , 10-H ) :   0.9155 B(  4-C ,  5-C ) :   1.2675
B(  4-C ,  6-H ) :   0.9304 B(  5-C ,  7-H ) :   0.9174 B( 11-C , 12-C ) :   1.2842
B( 11-C , 14-C ) :   1.2738 B( 11-C , 15-H ) :   0.9270 B( 12-C , 16-C ) :   1.3165
B( 12-C , 17-H ) :   0.9149 B( 13-C , 14-C ) :   1.2648 B( 13-C , 16-C ) :   1.2595
B( 13-C , 19-H ) :   0.9127 B( 14-C , 18-H ) :   0.9206 B( 16-C , 20-H ) :   0.9141
B( 21-C , 22-H ) :   0.9285 B( 21-C , 23-H ) :   0.9185 B( 21-C , 24-H ) :   0.9316
B( 21-C , 26-H ) :   0.2409 B( 25-C , 26-H ) :   0.4997 B( 25-C , 27-H ) :   0.8253
B( 25-C , 28-H ) :   0.8805 B( 25-C , 29-H ) :   0.8836

Dispersion correction           -0.018097797
FINAL SINGLE POINT ENERGY     -1702.300644238612
Dispersion correction            ... done

DIPOLE MOMENT
-------------
                                X             Y             Z
Electronic contribution:      2.14839       4.25538      -1.09012
Nuclear contribution   :     -1.10229      -3.50000       0.51742
                        -----------------------------------------
Total Dipole Moment    :      1.04610       0.75538      -0.57270
                        -----------------------------------------
Magnitude (a.u.)       :      1.41171
Magnitude (Debye)      :      3.58827

Rotational constants in cm-1:     0.029964     0.021061     0.017217
Rotational constants in MHz :   898.285816   631.392484   516.139264

                             ****ORCA TERMINATED NORMALLY****
TOTAL RUN TIME: 0 days 0 hours 10 minutes 24 seconds 421 msec
