                         Program Version 5.0.3 -  RELEASE  -
|  1> ! EnGrad PBEh-3c
|  2> %output
|  3> xyzfile=True
|  4> end
|  5> %scf
|  6> maxiter 250
|  7> end
|  8> %output
|  9> Print[P_Hirshfeld] = 1
| 10> end
| 11> % maxcore
| 12> 4000
| 13> *xyz 0 1
| 14> Lu   0.07642250   0.05600381  -0.01110032
| 15> C    0.39402842   0.91059833   2.45915671
| 16> C    1.37002086  -0.10003851   2.19724217
| 17> C    2.30298152   0.41502194   1.27586039
| 18> C    1.90692323   1.73053378   0.92232430
| 19> C    0.73956436   2.04377729   1.66852463
| 20> H    2.50361841   2.42358419   0.35528091
| 21> H    0.19588219   2.97206146   1.63681456
| 22> H   -0.39636301   0.85441853   3.15935566
| 23> H    1.41558462  -1.05534284   2.68946127
| 24> H    3.21680620  -0.07547485   0.99031650
| 25> C    1.00174634  -0.07050628  -2.51081100
| 26> C   -0.28693009  -0.65350117  -2.56523948
| 27> C    1.03566882  -1.96816407  -1.23060520
| 28> C    1.81893730  -0.89456940  -1.70164820
| 29> H    1.34355233   0.76772531  -3.09675069
| 30> C   -0.27815037  -1.82891367  -1.76574855
| 31> H   -1.13534886  -0.25832345  -3.10092920
| 32> H    2.88543395  -0.81665563  -1.59528602
| 33> H    1.38844692  -2.80975667  -0.65644150
| 34> H   -1.08197800  -2.50613380  -1.62495416
| 35> C   -2.39721928  -1.39973917   1.21203117
| 36> H   -2.22283029  -1.38921257   2.29587764
| 37> H   -2.02232201  -2.39552651   0.92605597
| 38> H   -3.50609933  -1.37024701   1.09245937
| 39> C   -1.95867194   1.47391024  -0.58334279
| 40> H   -1.95345112   0.32887920   0.04123804
| 41> H   -1.22304718   2.15377264  -1.06190319
| 42> H   -2.48993024   2.16719821   0.06004513
| 43> H   -2.63160134   1.30081003  -1.41221840
| 44> *
| 45>
| 46>                          ****END OF INPUT****

CARTESIAN COORDINATES (ANGSTROEM)
---------------------------------
  Lu     0.076423    0.056004   -0.011100
  C      0.394028    0.910598    2.459157
  C      1.370021   -0.100039    2.197242
  C      2.302982    0.415022    1.275860
  C      1.906923    1.730534    0.922324
  C      0.739564    2.043777    1.668525
  H      2.503618    2.423584    0.355281
  H      0.195882    2.972061    1.636815
  H     -0.396363    0.854419    3.159356
  H      1.415585   -1.055343    2.689461
  H      3.216806   -0.075475    0.990316
  C      1.001746   -0.070506   -2.510811
  C     -0.286930   -0.653501   -2.565239
  C      1.035669   -1.968164   -1.230605
  C      1.818937   -0.894569   -1.701648
  H      1.343552    0.767725   -3.096751
  C     -0.278150   -1.828914   -1.765749
  H     -1.135349   -0.258323   -3.100929
  H      2.885434   -0.816656   -1.595286
  H      1.388447   -2.809757   -0.656442
  H     -1.081978   -2.506134   -1.624954
  C     -2.397219   -1.399739    1.212031
  H     -2.222830   -1.389213    2.295878
  H     -2.022322   -2.395527    0.926056
  H     -3.506099   -1.370247    1.092459
  C     -1.958672    1.473910   -0.583343
  H     -1.953451    0.328879    0.041238
  H     -1.223047    2.153773   -1.061903
  H     -2.489930    2.167198    0.060045
  H     -2.631601    1.300810   -1.412218

 Total Charge           Charge          ....    0
 Multiplicity           Mult            ....    1
 Number of Electrons    NEL             ....  132
 Basis Dimension        Dim             ....  295

ORBITAL ENERGIES
----------------

  NO   OCC          E(Eh)            E(eV)
   0   2.0000     -19.267122      -524.2851
   1   2.0000     -12.638502      -343.9111
   2   2.0000     -12.637562      -343.8855
   3   2.0000     -12.637466      -343.8829
   4   2.0000     -10.453897      -284.4650
   5   2.0000     -10.452170      -284.4180
   6   2.0000     -10.452155      -284.4176
   7   2.0000     -10.451677      -284.4046
   8   2.0000     -10.451574      -284.4018
   9   2.0000     -10.451146      -284.3901
  10   2.0000     -10.448751      -284.3250
  11   2.0000     -10.448185      -284.3096
  12   2.0000     -10.447841      -284.3002
  13   2.0000     -10.447447      -284.2895
  14   2.0000     -10.446820      -284.2724
  15   2.0000     -10.378107      -282.4027
  16   2.0000      -5.907868      -160.7613
  17   2.0000      -5.907822      -160.7600
  18   2.0000      -5.907752      -160.7581
  19   2.0000      -5.907161      -160.7420
  20   2.0000      -5.907076      -160.7397
  21   2.0000      -2.450119       -66.6711
  22   2.0000      -1.286554       -35.0089
  23   2.0000      -1.286281       -35.0015
  24   2.0000      -1.280329       -34.8395
  25   2.0000      -0.978922       -26.6378
  26   2.0000      -0.970638       -26.4124
  27   2.0000      -0.798835       -21.7374
  28   2.0000      -0.796984       -21.6870
  29   2.0000      -0.795742       -21.6532
  30   2.0000      -0.794722       -21.6255
  31   2.0000      -0.793277       -21.5862
  32   2.0000      -0.686691       -18.6858
  33   2.0000      -0.618413       -16.8279
  34   2.0000      -0.618074       -16.8187
  35   2.0000      -0.615944       -16.7607
  36   2.0000      -0.612839       -16.6762
  37   2.0000      -0.599990       -16.3266
  38   2.0000      -0.595620       -16.2076
  39   2.0000      -0.575448       -15.6587
  40   2.0000      -0.574432       -15.6311
  41   2.0000      -0.573909       -15.6169
  42   2.0000      -0.573680       -15.6106
  43   2.0000      -0.573458       -15.6046
  44   2.0000      -0.573374       -15.6023
  45   2.0000      -0.572082       -15.5671
  46   2.0000      -0.494066       -13.4442
  47   2.0000      -0.473289       -12.8788
  48   2.0000      -0.465627       -12.6704
  49   2.0000      -0.457987       -12.4625
  50   2.0000      -0.456492       -12.4218
  51   2.0000      -0.455535       -12.3957
  52   2.0000      -0.454889       -12.3782
  53   2.0000      -0.439999       -11.9730
  54   2.0000      -0.437024       -11.8920
  55   2.0000      -0.436595       -11.8803
  56   2.0000      -0.433388       -11.7931
  57   2.0000      -0.431703       -11.7472
  58   2.0000      -0.428329       -11.6554
  59   2.0000      -0.387866       -10.5544
  60   2.0000      -0.373601       -10.1662
  61   2.0000      -0.294451        -8.0124
  62   2.0000      -0.288313        -7.8454
  63   2.0000      -0.282657        -7.6915
  64   2.0000      -0.270080        -7.3493
  65   2.0000      -0.217360        -5.9147
  66   0.0000      -0.021752        -0.5919
  67   0.0000       0.015708         0.4274
  68   0.0000       0.035589         0.9684
  69   0.0000       0.052579         1.4307
  70   0.0000       0.055383         1.5071

MULLIKEN ATOMIC CHARGES
-----------------------
   0 Lu:    0.658256
   1 C :   -0.271241
   2 C :   -0.311367
   3 C :   -0.260414
   4 C :   -0.317124
   5 C :   -0.253706
   6 H :    0.232947
   7 H :    0.238618
   8 H :    0.250702
   9 H :    0.249928
  10 H :    0.236791
  11 C :   -0.300216
  12 C :   -0.250711
  13 C :   -0.315363
  14 C :   -0.268462
  15 H :    0.234017
  16 C :   -0.266342
  17 H :    0.236892
  18 H :    0.233222
  19 H :    0.246140
  20 H :    0.256516
  21 C :   -0.946994
  22 H :    0.190082
  23 H :    0.184953
  24 H :    0.189997
  25 C :   -1.055296
  26 H :    0.334457
  27 H :    0.263335
  28 H :    0.290687
  29 H :    0.289694
Sum of atomic charges:   -0.0000000

LOEWDIN ATOMIC CHARGES
----------------------
   0 Lu:   -0.136833
   1 C :   -0.127572
   2 C :   -0.144253
   3 C :   -0.127617
   4 C :   -0.149720
   5 C :   -0.135370
   6 H :    0.154048
   7 H :    0.152358
   8 H :    0.161010
   9 H :    0.159994
  10 H :    0.154067
  11 C :   -0.148362
  12 C :   -0.131212
  13 C :   -0.147444
  14 C :   -0.127426
  15 H :    0.152743
  16 C :   -0.126471
  17 H :    0.152919
  18 H :    0.153161
  19 H :    0.158871
  20 H :    0.163264
  21 C :   -0.665337
  22 H :    0.109671
  23 H :    0.110650
  24 H :    0.114477
  25 C :   -0.511938
  26 H :    0.283138
  27 H :    0.184242
  28 H :    0.158019
  29 H :    0.156921

  Mayer bond orders larger than 0.100000
B(  0-Lu,  1-C ) :   0.2512 B(  0-Lu,  2-C ) :   0.2913 B(  0-Lu,  3-C ) :   0.2745
B(  0-Lu,  4-C ) :   0.2814 B(  0-Lu,  5-C ) :   0.2514 B(  0-Lu, 11-C ) :   0.2741
B(  0-Lu, 12-C ) :   0.2521 B(  0-Lu, 13-C ) :   0.3059 B(  0-Lu, 14-C ) :   0.2798
B(  0-Lu, 16-C ) :   0.2586 B(  0-Lu, 21-C ) :   0.5707 B(  0-Lu, 25-C ) :   0.3800
B(  0-Lu, 26-H ) :   0.1915 B(  1-C ,  2-C ) :   1.2738 B(  1-C ,  5-C ) :   1.3077
B(  1-C ,  8-H ) :   0.9163 B(  2-C ,  3-C ) :   1.2830 B(  2-C ,  9-H ) :   0.9130
B(  3-C ,  4-C ) :   1.2763 B(  3-C , 10-H ) :   0.9210 B(  4-C ,  5-C ) :   1.2761
B(  4-C ,  6-H ) :   0.9267 B(  5-C ,  7-H ) :   0.9144 B( 11-C , 12-C ) :   1.2788
B( 11-C , 14-C ) :   1.2891 B( 11-C , 15-H ) :   0.9226 B( 12-C , 16-C ) :   1.3097
B( 12-C , 17-H ) :   0.9142 B( 13-C , 14-C ) :   1.2685 B( 13-C , 16-C ) :   1.2666
B( 13-C , 19-H ) :   0.9153 B( 14-C , 18-H ) :   0.9249 B( 16-C , 20-H ) :   0.9113
B( 21-C , 22-H ) :   0.9260 B( 21-C , 23-H ) :   0.9224 B( 21-C , 24-H ) :   0.9303
B( 21-C , 26-H ) :   0.1883 B( 25-C , 26-H ) :   0.5203 B( 25-C , 27-H ) :   0.8383
B( 25-C , 28-H ) :   0.8854 B( 25-C , 29-H ) :   0.8830

Dispersion correction           -0.017773649
FINAL SINGLE POINT ENERGY     -1702.308062960950
Dispersion correction            ... done

DIPOLE MOMENT
-------------
                                X             Y             Z
Electronic contribution:     -2.78767       4.08803      -0.42605
Nuclear contribution   :      3.47945      -3.21481      -0.17425
                        -----------------------------------------
Total Dipole Moment    :      0.69178       0.87322      -0.60030
                        -----------------------------------------
Magnitude (a.u.)       :      1.26547
Magnitude (Debye)      :      3.21658

Rotational constants in cm-1:     0.029098     0.020424     0.017003
Rotational constants in MHz :   872.338505   612.308680   509.723746

                             ****ORCA TERMINATED NORMALLY****
TOTAL RUN TIME: 0 days 0 hours 10 minutes 14 seconds 308 msec
