                         Program Version 5.0.3 -  RELEASE  -
|  1> ! EnGrad PBEh-3c
|  2> %output
|  3> xyzfile=True
|  4> end
|  5> %scf
|  6> maxiter 250
|  7> end
|  8> %output
|  9> Print[P_Hirshfeld] = 1
| 10> end
| 11> % maxcore
| 12> 4000
| 13> *xyz 0 1
| 14> Lu   0.17801568   0.06850047  -0.02880592
| 15> C    0.41317410   0.95482479   2.35542402
| 16> C    1.29690875  -0.06522759   2.16814308
| 17> C    2.28989559   0.41507531   1.27917395
| 18> C    1.90573453   1.72178841   0.89382632
| 19> C    0.73967330   2.02431339   1.60847973
| 20> H    2.56727344   2.39512114   0.37764457
| 21> H    0.26852334   3.01405753   1.59719043
| 22> H   -0.47349001   0.90428417   3.08230736
| 23> H    1.35526935  -1.01486614   2.67057305
| 24> H    3.15656771  -0.09706983   0.98974548
| 25> C    1.02023318  -0.04065238  -2.50003917
| 26> C   -0.26363724  -0.61614006  -2.53877071
| 27> C    0.99029547  -1.92992681  -1.23180233
| 28> C    1.83014506  -0.89154616  -1.70322345
| 29> H    1.42050345   0.72978102  -3.13346129
| 30> C   -0.25283461  -1.72558730  -1.76631954
| 31> H   -1.08201920  -0.20564204  -3.13354792
| 32> H    2.86856175  -0.81351146  -1.56177879
| 33> H    1.34453828  -2.75866480  -0.63909343
| 34> H   -1.12864945  -2.44700150  -1.63152285
| 35> C   -2.42852602  -1.23372330   1.17693667
| 36> H   -2.17969185  -1.31361082   2.23494235
| 37> H   -1.97754721  -2.17796989   0.75387375
| 38> H   -3.52431146  -1.34513023   1.16010293
| 39> C   -1.93510620   1.28618170  -0.50689780
| 40> H   -2.12592344   0.18544925   0.10808881
| 41> H   -1.17079667   1.94823761  -0.96912663
| 42> H   -2.41319126   1.90158754   0.25397614
| 43> H   -2.66373333   1.14398410  -1.29872344
| 44> *
| 45>
| 46>                          ****END OF INPUT****

CARTESIAN COORDINATES (ANGSTROEM)
---------------------------------
  Lu     0.178016    0.068500   -0.028806
  C      0.413174    0.954825    2.355424
  C      1.296909   -0.065228    2.168143
  C      2.289896    0.415075    1.279174
  C      1.905735    1.721788    0.893826
  C      0.739673    2.024313    1.608480
  H      2.567273    2.395121    0.377645
  H      0.268523    3.014058    1.597190
  H     -0.473490    0.904284    3.082307
  H      1.355269   -1.014866    2.670573
  H      3.156568   -0.097070    0.989745
  C      1.020233   -0.040652   -2.500039
  C     -0.263637   -0.616140   -2.538771
  C      0.990295   -1.929927   -1.231802
  C      1.830145   -0.891546   -1.703223
  H      1.420503    0.729781   -3.133461
  C     -0.252835   -1.725587   -1.766320
  H     -1.082019   -0.205642   -3.133548
  H      2.868562   -0.813511   -1.561779
  H      1.344538   -2.758665   -0.639093
  H     -1.128649   -2.447001   -1.631523
  C     -2.428526   -1.233723    1.176937
  H     -2.179692   -1.313611    2.234942
  H     -1.977547   -2.177970    0.753874
  H     -3.524311   -1.345130    1.160103
  C     -1.935106    1.286182   -0.506898
  H     -2.125923    0.185449    0.108089
  H     -1.170797    1.948238   -0.969127
  H     -2.413191    1.901588    0.253976
  H     -2.663733    1.143984   -1.298723

 Total Charge           Charge          ....    0
 Multiplicity           Mult            ....    1
 Number of Electrons    NEL             ....  132
 Basis Dimension        Dim             ....  295

ORBITAL ENERGIES
----------------

  NO   OCC          E(Eh)            E(eV)
   0   2.0000     -19.262692      -524.1645
   1   2.0000     -12.634089      -343.7910
   2   2.0000     -12.633119      -343.7646
   3   2.0000     -12.632880      -343.7582
   4   2.0000     -10.451094      -284.3887
   5   2.0000     -10.451014      -284.3865
   6   2.0000     -10.450439      -284.3709
   7   2.0000     -10.450337      -284.3681
   8   2.0000     -10.449361      -284.3416
   9   2.0000     -10.448620      -284.3214
  10   2.0000     -10.448379      -284.3148
  11   2.0000     -10.446833      -284.2728
  12   2.0000     -10.445620      -284.2398
  13   2.0000     -10.445473      -284.2358
  14   2.0000     -10.416913      -283.4586
  15   2.0000     -10.367432      -282.1122
  16   2.0000      -5.903440      -160.6408
  17   2.0000      -5.903372      -160.6389
  18   2.0000      -5.903147      -160.6328
  19   2.0000      -5.902588      -160.6176
  20   2.0000      -5.902443      -160.6136
  21   2.0000      -2.446306       -66.5674
  22   2.0000      -1.288297       -35.0564
  23   2.0000      -1.282301       -34.8932
  24   2.0000      -1.278442       -34.7882
  25   2.0000      -1.003317       -27.3017
  26   2.0000      -0.990625       -26.9563
  27   2.0000      -0.808208       -21.9925
  28   2.0000      -0.806416       -21.9437
  29   2.0000      -0.804227       -21.8841
  30   2.0000      -0.802737       -21.8436
  31   2.0000      -0.779250       -21.2045
  32   2.0000      -0.686447       -18.6792
  33   2.0000      -0.629575       -17.1316
  34   2.0000      -0.623713       -16.9721
  35   2.0000      -0.615243       -16.7416
  36   2.0000      -0.612594       -16.6695
  37   2.0000      -0.604746       -16.4560
  38   2.0000      -0.600234       -16.3332
  39   2.0000      -0.570998       -15.5376
  40   2.0000      -0.570227       -15.5167
  41   2.0000      -0.569443       -15.4953
  42   2.0000      -0.569190       -15.4884
  43   2.0000      -0.568966       -15.4824
  44   2.0000      -0.568594       -15.4722
  45   2.0000      -0.567388       -15.4394
  46   2.0000      -0.490174       -13.3383
  47   2.0000      -0.483827       -13.1656
  48   2.0000      -0.464238       -12.6326
  49   2.0000      -0.462757       -12.5923
  50   2.0000      -0.459269       -12.4973
  51   2.0000      -0.458855       -12.4861
  52   2.0000      -0.452773       -12.3206
  53   2.0000      -0.450974       -12.2716
  54   2.0000      -0.448658       -12.2086
  55   2.0000      -0.440307       -11.9814
  56   2.0000      -0.425020       -11.5654
  57   2.0000      -0.423953       -11.5363
  58   2.0000      -0.411269       -11.1912
  59   2.0000      -0.383359       -10.4317
  60   2.0000      -0.369553       -10.0560
  61   2.0000      -0.301554        -8.2057
  62   2.0000      -0.299102        -8.1390
  63   2.0000      -0.288603        -7.8533
  64   2.0000      -0.281732        -7.6663
  65   2.0000      -0.209178        -5.6920
  66   0.0000      -0.027443        -0.7468
  67   0.0000       0.016298         0.4435
  68   0.0000       0.038177         1.0388
  69   0.0000       0.046846         1.2747
  70   0.0000       0.055708         1.5159

MULLIKEN ATOMIC CHARGES
-----------------------
   0 Lu:    0.716977
   1 C :   -0.221952
   2 C :   -0.342436
   3 C :   -0.246783
   4 C :   -0.332966
   5 C :   -0.250959
   6 H :    0.233306
   7 H :    0.240595
   8 H :    0.251706
   9 H :    0.254298
  10 H :    0.242630
  11 C :   -0.329314
  12 C :   -0.211394
  13 C :   -0.320318
  14 C :   -0.262519
  15 H :    0.231954
  16 C :   -0.259950
  17 H :    0.238819
  18 H :    0.239037
  19 H :    0.251606
  20 H :    0.252910
  21 C :   -1.012479
  22 H :    0.195301
  23 H :    0.172507
  24 H :    0.201063
  25 C :   -1.113495
  26 H :    0.352214
  27 H :    0.252124
  28 H :    0.292969
  29 H :    0.284548
Sum of atomic charges:   -0.0000000

LOEWDIN ATOMIC CHARGES
----------------------
   0 Lu:   -0.112409
   1 C :   -0.112242
   2 C :   -0.147000
   3 C :   -0.120254
   4 C :   -0.142323
   5 C :   -0.130440
   6 H :    0.156493
   7 H :    0.157570
   8 H :    0.166822
   9 H :    0.164546
  10 H :    0.153718
  11 C :   -0.144285
  12 C :   -0.118222
  13 C :   -0.149606
  14 C :   -0.121930
  15 H :    0.154124
  16 C :   -0.122359
  17 H :    0.156714
  18 H :    0.152979
  19 H :    0.162549
  20 H :    0.167305
  21 C :   -0.726847
  22 H :    0.110741
  23 H :    0.107741
  24 H :    0.117962
  25 C :   -0.575610
  26 H :    0.295079
  27 H :    0.186377
  28 H :    0.156956
  29 H :    0.155849

  Mayer bond orders larger than 0.100000
B(  0-Lu,  1-C ) :   0.2408 B(  0-Lu,  2-C ) :   0.3092 B(  0-Lu,  3-C ) :   0.2932
B(  0-Lu,  4-C ) :   0.3016 B(  0-Lu,  5-C ) :   0.2492 B(  0-Lu, 11-C ) :   0.2885
B(  0-Lu, 12-C ) :   0.2421 B(  0-Lu, 13-C ) :   0.3203 B(  0-Lu, 14-C ) :   0.2946
B(  0-Lu, 16-C ) :   0.2557 B(  0-Lu, 21-C ) :   0.4072 B(  0-Lu, 25-C ) :   0.4239
B(  0-Lu, 26-H ) :   0.1277 B(  1-C ,  2-C ) :   1.2738 B(  1-C ,  5-C ) :   1.3228
B(  1-C ,  8-H ) :   0.9089 B(  2-C ,  3-C ) :   1.2640 B(  2-C ,  9-H ) :   0.9124
B(  3-C ,  4-C ) :   1.2833 B(  3-C , 10-H ) :   0.9146 B(  4-C ,  5-C ) :   1.2568
B(  4-C ,  6-H ) :   0.9297 B(  5-C ,  7-H ) :   0.9182 B( 11-C , 12-C ) :   1.2682
B( 11-C , 14-C ) :   1.2920 B( 11-C , 15-H ) :   0.9282 B( 12-C , 16-C ) :   1.3260
B( 12-C , 17-H ) :   0.9161 B( 13-C , 14-C ) :   1.2577 B( 13-C , 16-C ) :   1.2601
B( 13-C , 19-H ) :   0.9104 B( 14-C , 18-H ) :   0.9195 B( 16-C , 20-H ) :   0.9087
B( 21-C , 22-H ) :   0.9240 B( 21-C , 23-H ) :   0.9199 B( 21-C , 24-H ) :   0.9258
B( 21-C , 26-H ) :   0.2981 B( 25-C , 26-H ) :   0.4582 B( 25-C , 27-H ) :   0.8134
B( 25-C , 28-H ) :   0.8799 B( 25-C , 29-H ) :   0.8868

Dispersion correction           -0.018297826
FINAL SINGLE POINT ENERGY     -1702.289620476846
Dispersion correction            ... done

DIPOLE MOMENT
-------------
                                X             Y             Z
Electronic contribution:      2.70011       4.12310      -1.02239
Nuclear contribution   :     -1.60744      -3.51365       0.52443
                        -----------------------------------------
Total Dipole Moment    :      1.09267       0.60945      -0.49796
                        -----------------------------------------
Magnitude (a.u.)       :      1.34659
Magnitude (Debye)      :      3.42277

Rotational constants in cm-1:     0.030552     0.021508     0.017393
Rotational constants in MHz :   915.916482   644.793564   521.423371

                             ****ORCA TERMINATED NORMALLY****
TOTAL RUN TIME: 0 days 0 hours 10 minutes 31 seconds 569 msec
