                         Program Version 5.0.3 -  RELEASE  -
|  1> ! EnGrad PBEh-3c
|  2> %output
|  3> xyzfile=True
|  4> end
|  5> %scf
|  6> maxiter 250
|  7> end
|  8> %output
|  9> Print[P_Hirshfeld] = 1
| 10> end
| 11> % maxcore
| 12> 4000
| 13> *xyz 0 1
| 14> Lu   0.10776991   0.05985976  -0.01656353
| 15> C    0.39993598   0.92424477   2.42714913
| 16> C    1.34746152  -0.08929732   2.18826340
| 17> C    2.29894375   0.41503841   1.27688281
| 18> C    1.90655645   1.72783532   0.91353102
| 19> C    0.73959797   2.03777154   1.64999728
| 20> H    2.52325970   2.41480168   0.36218140
| 21> H    0.21829622   2.98501969   1.62458821
| 22> H   -0.42016118   0.86980499   3.13558177
| 23> H    1.39697385  -1.04285342   2.68363315
| 24> H    3.19821912  -0.08213816   0.99014031
| 25> C    1.00745060  -0.06129461  -2.50748726
| 26> C   -0.27974289  -0.64197309  -2.55707232
| 27> C    1.02166850  -1.95636565  -1.23097458
| 28> C    1.82239555  -0.89363656  -1.70213425
| 29> H    1.36729623   0.75601728  -3.10807805
| 30> C   -0.27033898  -1.79703147  -1.76592474
| 31> H   -1.11889356  -0.24206817  -3.11099397
| 32> H    2.88022789  -0.81568547  -1.58494709
| 33> H    1.37489855  -2.79399186  -0.65108861
| 34> H   -1.09637886  -2.48788804  -1.62698098
| 35> C   -2.40687923  -1.34851361   1.20120247
| 36> H   -2.20951957  -1.36588503   2.27707556
| 37> H   -2.00850638  -2.32839762   0.87292773
| 38> H   -3.51171883  -1.36249702   1.11333135
| 39> C   -1.95140054   1.41598505  -0.55975506
| 40> H   -2.00666887   0.28462271   0.06186540
| 41> H   -1.20692485   2.09035311  -1.03327622
| 42> H   -2.46625180   2.08524185   0.11988414
| 43> H   -2.64151593   1.25242010  -1.37719859
| 44> *
| 45>
| 46>                          ****END OF INPUT****

CARTESIAN COORDINATES (ANGSTROEM)
---------------------------------
  Lu     0.107770    0.059860   -0.016564
  C      0.399936    0.924245    2.427149
  C      1.347462   -0.089297    2.188263
  C      2.298944    0.415038    1.276883
  C      1.906556    1.727835    0.913531
  C      0.739598    2.037772    1.649997
  H      2.523260    2.414802    0.362181
  H      0.218296    2.985020    1.624588
  H     -0.420161    0.869805    3.135582
  H      1.396974   -1.042853    2.683633
  H      3.198219   -0.082138    0.990140
  C      1.007451   -0.061295   -2.507487
  C     -0.279743   -0.641973   -2.557072
  C      1.021669   -1.956366   -1.230975
  C      1.822396   -0.893637   -1.702134
  H      1.367296    0.756017   -3.108078
  C     -0.270339   -1.797031   -1.765925
  H     -1.118894   -0.242068   -3.110994
  H      2.880228   -0.815685   -1.584947
  H      1.374899   -2.793992   -0.651089
  H     -1.096379   -2.487888   -1.626981
  C     -2.406879   -1.348514    1.201202
  H     -2.209520   -1.365885    2.277076
  H     -2.008506   -2.328398    0.872928
  H     -3.511719   -1.362497    1.113331
  C     -1.951401    1.415985   -0.559755
  H     -2.006669    0.284623    0.061865
  H     -1.206925    2.090353   -1.033276
  H     -2.466252    2.085242    0.119884
  H     -2.641516    1.252420   -1.377199

 Total Charge           Charge          ....    0
 Multiplicity           Mult            ....    1
 Number of Electrons    NEL             ....  132
 Basis Dimension        Dim             ....  295

ORBITAL ENERGIES
----------------

  NO   OCC          E(Eh)            E(eV)
   0   2.0000     -19.265476      -524.2403
   1   2.0000     -12.636839      -343.8659
   2   2.0000     -12.635934      -343.8413
   3   2.0000     -12.635788      -343.8373
   4   2.0000     -10.452322      -284.4221
   5   2.0000     -10.451536      -284.4008
   6   2.0000     -10.451469      -284.3989
   7   2.0000     -10.450981      -284.3857
   8   2.0000     -10.450954      -284.3849
   9   2.0000     -10.450577      -284.3747
  10   2.0000     -10.448423      -284.3160
  11   2.0000     -10.447351      -284.2869
  12   2.0000     -10.447187      -284.2824
  13   2.0000     -10.446566      -284.2655
  14   2.0000     -10.437716      -284.0247
  15   2.0000     -10.374345      -282.3003
  16   2.0000      -5.906210      -160.7162
  17   2.0000      -5.906136      -160.7141
  18   2.0000      -5.906103      -160.7132
  19   2.0000      -5.905501      -160.6969
  20   2.0000      -5.905379      -160.6935
  21   2.0000      -2.448626       -66.6305
  22   2.0000      -1.286574       -35.0095
  23   2.0000      -1.284571       -34.9550
  24   2.0000      -1.279422       -34.8149
  25   2.0000      -0.985951       -26.8291
  26   2.0000      -0.976793       -26.5799
  27   2.0000      -0.800714       -21.7885
  28   2.0000      -0.799105       -21.7448
  29   2.0000      -0.797416       -21.6988
  30   2.0000      -0.796574       -21.6759
  31   2.0000      -0.792011       -21.5517
  32   2.0000      -0.686822       -18.6894
  33   2.0000      -0.621285       -16.9060
  34   2.0000      -0.617319       -16.7981
  35   2.0000      -0.615290       -16.7429
  36   2.0000      -0.613950       -16.7064
  37   2.0000      -0.601960       -16.3802
  38   2.0000      -0.597474       -16.2581
  39   2.0000      -0.573763       -15.6129
  40   2.0000      -0.572856       -15.5882
  41   2.0000      -0.572087       -15.5673
  42   2.0000      -0.571986       -15.5645
  43   2.0000      -0.571897       -15.5621
  44   2.0000      -0.571736       -15.5577
  45   2.0000      -0.570416       -15.5218
  46   2.0000      -0.491636       -13.3781
  47   2.0000      -0.475684       -12.9440
  48   2.0000      -0.463361       -12.6087
  49   2.0000      -0.459182       -12.4950
  50   2.0000      -0.457103       -12.4384
  51   2.0000      -0.455812       -12.4033
  52   2.0000      -0.454678       -12.3724
  53   2.0000      -0.441161       -12.0046
  54   2.0000      -0.438708       -11.9378
  55   2.0000      -0.435126       -11.8404
  56   2.0000      -0.433495       -11.7960
  57   2.0000      -0.432275       -11.7628
  58   2.0000      -0.430448       -11.7131
  59   2.0000      -0.386578       -10.5193
  60   2.0000      -0.372960       -10.1488
  61   2.0000      -0.296452        -8.0669
  62   2.0000      -0.291507        -7.9323
  63   2.0000      -0.284646        -7.7456
  64   2.0000      -0.273580        -7.4445
  65   2.0000      -0.215353        -5.8601
  66   0.0000      -0.022475        -0.6116
  67   0.0000       0.016252         0.4422
  68   0.0000       0.036554         0.9947
  69   0.0000       0.051223         1.3939
  70   0.0000       0.056877         1.5477

MULLIKEN ATOMIC CHARGES
-----------------------
   0 Lu:    0.674225
   1 C :   -0.257430
   2 C :   -0.320884
   3 C :   -0.255767
   4 C :   -0.321653
   5 C :   -0.253047
   6 H :    0.232810
   7 H :    0.239282
   8 H :    0.252388
   9 H :    0.251083
  10 H :    0.238641
  11 C :   -0.309066
  12 C :   -0.238944
  13 C :   -0.317185
  14 C :   -0.265950
  15 H :    0.233326
  16 C :   -0.265359
  17 H :    0.237360
  18 H :    0.235028
  19 H :    0.247722
  20 H :    0.256299
  21 C :   -0.967011
  22 H :    0.191669
  23 H :    0.181525
  24 H :    0.193660
  25 C :   -1.076386
  26 H :    0.342914
  27 H :    0.260328
  28 H :    0.291997
  29 H :    0.288425
Sum of atomic charges:    0.0000000

LOEWDIN ATOMIC CHARGES
----------------------
   0 Lu:   -0.130045
   1 C :   -0.122903
   2 C :   -0.145156
   3 C :   -0.125431
   4 C :   -0.147451
   5 C :   -0.133892
   6 H :    0.154647
   7 H :    0.153776
   8 H :    0.163572
   9 H :    0.161238
  10 H :    0.153914
  11 C :   -0.147169
  12 C :   -0.127317
  13 C :   -0.148198
  14 C :   -0.125571
  15 H :    0.153046
  16 C :   -0.125469
  17 H :    0.153966
  18 H :    0.153091
  19 H :    0.159872
  20 H :    0.165160
  21 C :   -0.684896
  22 H :    0.109818
  23 H :    0.109812
  24 H :    0.115343
  25 C :   -0.531536
  26 H :    0.288261
  27 H :    0.185621
  28 H :    0.157375
  29 H :    0.156521

  Mayer bond orders larger than 0.100000
B(  0-Lu,  1-C ) :   0.2477 B(  0-Lu,  2-C ) :   0.2973 B(  0-Lu,  3-C ) :   0.2805
B(  0-Lu,  4-C ) :   0.2878 B(  0-Lu,  5-C ) :   0.2509 B(  0-Lu, 11-C ) :   0.2785
B(  0-Lu, 12-C ) :   0.2490 B(  0-Lu, 13-C ) :   0.3108 B(  0-Lu, 14-C ) :   0.2845
B(  0-Lu, 16-C ) :   0.2575 B(  0-Lu, 21-C ) :   0.5290 B(  0-Lu, 25-C ) :   0.3900
B(  0-Lu, 26-H ) :   0.1742 B(  1-C ,  2-C ) :   1.2745 B(  1-C ,  5-C ) :   1.3126
B(  1-C ,  8-H ) :   0.9135 B(  2-C ,  3-C ) :   1.2768 B(  2-C ,  9-H ) :   0.9130
B(  3-C ,  4-C ) :   1.2786 B(  3-C , 10-H ) :   0.9193 B(  4-C ,  5-C ) :   1.2703
B(  4-C ,  6-H ) :   0.9279 B(  5-C ,  7-H ) :   0.9158 B( 11-C , 12-C ) :   1.2761
B( 11-C , 14-C ) :   1.2901 B( 11-C , 15-H ) :   0.9245 B( 12-C , 16-C ) :   1.3148
B( 12-C , 17-H ) :   0.9150 B( 13-C , 14-C ) :   1.2652 B( 13-C , 16-C ) :   1.2644
B( 13-C , 19-H ) :   0.9140 B( 14-C , 18-H ) :   0.9234 B( 16-C , 20-H ) :   0.9104
B( 21-C , 22-H ) :   0.9257 B( 21-C , 23-H ) :   0.9223 B( 21-C , 24-H ) :   0.9290
B( 21-C , 26-H ) :   0.2158 B( 25-C , 26-H ) :   0.5048 B( 25-C , 27-H ) :   0.8319
B( 25-C , 28-H ) :   0.8832 B( 25-C , 29-H ) :   0.8842

Dispersion correction           -0.017933066
FINAL SINGLE POINT ENERGY     -1702.313101177570
Dispersion correction            ... done

DIPOLE MOMENT
-------------
                                X             Y             Z
Electronic contribution:     -1.09828       4.10197      -0.61208
Nuclear contribution   :      1.90985      -3.30702       0.04133
                        -----------------------------------------
Total Dipole Moment    :      0.81157       0.79495      -0.57075
                        -----------------------------------------
Magnitude (a.u.)       :      1.27136
Magnitude (Debye)      :      3.23154

Rotational constants in cm-1:     0.029558     0.020755     0.017126
Rotational constants in MHz :   886.140906   622.229293   513.434183

                             ****ORCA TERMINATED NORMALLY****
TOTAL RUN TIME: 0 days 0 hours 10 minutes 23 seconds 577 msec
