                         Program Version 5.0.3 -  RELEASE  -
|  1> ! EnGrad PBEh-3c
|  2> %output
|  3> xyzfile=True
|  4> end
|  5> %scf
|  6> maxiter 250
|  7> end
|  8> %output
|  9> Print[P_Hirshfeld] = 1
| 10> end
| 11> % maxcore
| 12> 4000
| 13> *xyz 0 1
| 14> Lu   0.16539887   0.04964922  -0.01497817
| 15> C    0.38425964   0.92570503   2.40135209
| 16> C    1.33344297  -0.08012530   2.17218334
| 17> C    2.28447517   0.42785436   1.28506752
| 18> C    1.89975920   1.70785965   0.90570889
| 19> C    0.72704555   2.02788003   1.60949590
| 20> H    2.52780508   2.39883186   0.36439418
| 21> H    0.24719735   2.98307405   1.61935946
| 22> H   -0.44446162   0.87235290   3.08688314
| 23> H    1.38348829  -1.02644472   2.67478261
| 24> H    3.17277210  -0.08824029   0.97535147
| 25> C    1.01235406  -0.05666831  -2.48394019
| 26> C   -0.27943335  -0.61193849  -2.53107647
| 27> C    1.01917832  -1.94239716  -1.23274925
| 28> C    1.80909036  -0.89321490  -1.71368968
| 29> H    1.38520368   0.74204302  -3.11231753
| 30> C   -0.28052124  -1.77575529  -1.75051676
| 31> H   -1.09824020  -0.23569856  -3.10945525
| 32> H    2.87519392  -0.79952442  -1.56192303
| 33> H    1.36122638  -2.76936647  -0.64582191
| 34> H   -1.10454584  -2.45856287  -1.62198255
| 35> C   -2.38498984  -1.24832479   1.16648495
| 36> H   -2.18755694  -1.28949860   2.22988396
| 37> H   -1.99295837  -2.18578079   0.77759387
| 38> H   -3.48266392  -1.33207707   1.11183475
| 39> C   -1.94791158   1.33690353  -0.53680705
| 40> H   -2.13927754   0.21687437   0.11999821
| 41> H   -1.15151889   1.98502353  -0.98906055
| 42> H   -2.42123923   1.96063929   0.20606768
| 43> H   -2.64773988   1.17788996  -1.33976619
| 44> *
| 45>
| 46>                          ****END OF INPUT****

CARTESIAN COORDINATES (ANGSTROEM)
---------------------------------
  Lu     0.165399    0.049649   -0.014978
  C      0.384260    0.925705    2.401352
  C      1.333443   -0.080125    2.172183
  C      2.284475    0.427854    1.285068
  C      1.899759    1.707860    0.905709
  C      0.727046    2.027880    1.609496
  H      2.527805    2.398832    0.364394
  H      0.247197    2.983074    1.619359
  H     -0.444462    0.872353    3.086883
  H      1.383488   -1.026445    2.674783
  H      3.172772   -0.088240    0.975351
  C      1.012354   -0.056668   -2.483940
  C     -0.279433   -0.611938   -2.531076
  C      1.019178   -1.942397   -1.232749
  C      1.809090   -0.893215   -1.713690
  H      1.385204    0.742043   -3.112318
  C     -0.280521   -1.775755   -1.750517
  H     -1.098240   -0.235699   -3.109455
  H      2.875194   -0.799524   -1.561923
  H      1.361226   -2.769366   -0.645822
  H     -1.104546   -2.458563   -1.621983
  C     -2.384990   -1.248325    1.166485
  H     -2.187557   -1.289499    2.229884
  H     -1.992958   -2.185781    0.777594
  H     -3.482664   -1.332077    1.111835
  C     -1.947912    1.336904   -0.536807
  H     -2.139278    0.216874    0.119998
  H     -1.151519    1.985024   -0.989061
  H     -2.421239    1.960639    0.206068
  H     -2.647740    1.177890   -1.339766

 Total Charge           Charge          ....    0
 Multiplicity           Mult            ....    1
 Number of Electrons    NEL             ....  132
 Basis Dimension        Dim             ....  295

ORBITAL ENERGIES
----------------

  NO   OCC          E(Eh)            E(eV)
   0   2.0000     -19.261622      -524.1354
   1   2.0000     -12.632998      -343.7614
   2   2.0000     -12.632078      -343.7363
   3   2.0000     -12.631847      -343.7300
   4   2.0000     -10.450483      -284.3721
   5   2.0000     -10.450463      -284.3716
   6   2.0000     -10.450112      -284.3620
   7   2.0000     -10.449492      -284.3451
   8   2.0000     -10.449374      -284.3419
   9   2.0000     -10.448782      -284.3258
  10   2.0000     -10.448774      -284.3256
  11   2.0000     -10.446924      -284.2752
  12   2.0000     -10.446615      -284.2669
  13   2.0000     -10.445864      -284.2464
  14   2.0000     -10.417806      -283.4829
  15   2.0000     -10.367234      -282.1068
  16   2.0000      -5.902356      -160.6113
  17   2.0000      -5.902308      -160.6100
  18   2.0000      -5.902124      -160.6050
  19   2.0000      -5.901566      -160.5898
  20   2.0000      -5.901429      -160.5860
  21   2.0000      -2.445059       -66.5334
  22   2.0000      -1.285882       -34.9906
  23   2.0000      -1.280705       -34.8498
  24   2.0000      -1.276908       -34.7464
  25   2.0000      -0.995379       -27.0856
  26   2.0000      -0.983946       -26.7745
  27   2.0000      -0.805615       -21.9219
  28   2.0000      -0.804288       -21.8858
  29   2.0000      -0.801983       -21.8231
  30   2.0000      -0.801262       -21.8034
  31   2.0000      -0.775382       -21.0992
  32   2.0000      -0.694926       -18.9099
  33   2.0000      -0.622262       -16.9326
  34   2.0000      -0.621818       -16.9205
  35   2.0000      -0.619254       -16.8508
  36   2.0000      -0.616016       -16.7626
  37   2.0000      -0.607305       -16.5256
  38   2.0000      -0.601778       -16.3752
  39   2.0000      -0.569924       -15.5084
  40   2.0000      -0.569053       -15.4847
  41   2.0000      -0.568292       -15.4640
  42   2.0000      -0.568176       -15.4608
  43   2.0000      -0.567912       -15.4537
  44   2.0000      -0.567620       -15.4457
  45   2.0000      -0.566570       -15.4171
  46   2.0000      -0.482999       -13.1431
  47   2.0000      -0.478336       -13.0162
  48   2.0000      -0.462317       -12.5803
  49   2.0000      -0.461915       -12.5693
  50   2.0000      -0.460431       -12.5290
  51   2.0000      -0.458073       -12.4648
  52   2.0000      -0.451464       -12.2850
  53   2.0000      -0.441866       -12.0238
  54   2.0000      -0.441175       -12.0050
  55   2.0000      -0.439210       -11.9515
  56   2.0000      -0.437346       -11.9008
  57   2.0000      -0.436350       -11.8737
  58   2.0000      -0.409124       -11.1328
  59   2.0000      -0.387830       -10.5534
  60   2.0000      -0.378563       -10.3012
  61   2.0000      -0.298238        -8.1155
  62   2.0000      -0.296652        -8.0723
  63   2.0000      -0.287087        -7.8120
  64   2.0000      -0.279809        -7.6140
  65   2.0000      -0.214089        -5.8257
  66   0.0000      -0.023490        -0.6392
  67   0.0000       0.015637         0.4255
  68   0.0000       0.038698         1.0530
  69   0.0000       0.047936         1.3044
  70   0.0000       0.056149         1.5279

MULLIKEN ATOMIC CHARGES
-----------------------
   0 Lu:    0.719276
   1 C :   -0.234377
   2 C :   -0.343434
   3 C :   -0.237391
   4 C :   -0.319948
   5 C :   -0.269072
   6 H :    0.234352
   7 H :    0.239882
   8 H :    0.255202
   9 H :    0.253049
  10 H :    0.242455
  11 C :   -0.316590
  12 C :   -0.231473
  13 C :   -0.325888
  14 C :   -0.250718
  15 H :    0.232840
  16 C :   -0.264966
  17 H :    0.237729
  18 H :    0.238644
  19 H :    0.250035
  20 H :    0.254614
  21 C :   -1.017413
  22 H :    0.199505
  23 H :    0.190820
  24 H :    0.202329
  25 C :   -1.096734
  26 H :    0.339579
  27 H :    0.248078
  28 H :    0.288660
  29 H :    0.280954
Sum of atomic charges:    0.0000000

LOEWDIN ATOMIC CHARGES
----------------------
   0 Lu:   -0.112894
   1 C :   -0.113013
   2 C :   -0.145955
   3 C :   -0.123382
   4 C :   -0.143040
   5 C :   -0.130009
   6 H :    0.156514
   7 H :    0.155013
   8 H :    0.164039
   9 H :    0.162484
  10 H :    0.155647
  11 C :   -0.145323
  12 C :   -0.118273
  13 C :   -0.149652
  14 C :   -0.123880
  15 H :    0.154846
  16 C :   -0.121786
  17 H :    0.154490
  18 H :    0.154612
  19 H :    0.160342
  20 H :    0.164105
  21 C :   -0.713294
  22 H :    0.113481
  23 H :    0.113740
  24 H :    0.118866
  25 C :   -0.575081
  26 H :    0.297020
  27 H :    0.184513
  28 H :    0.153403
  29 H :    0.152465

  Mayer bond orders larger than 0.100000
B(  0-Lu,  1-C ) :   0.2469 B(  0-Lu,  2-C ) :   0.3061 B(  0-Lu,  3-C ) :   0.2849
B(  0-Lu,  4-C ) :   0.2935 B(  0-Lu,  5-C ) :   0.2552 B(  0-Lu, 11-C ) :   0.2825
B(  0-Lu, 12-C ) :   0.2477 B(  0-Lu, 13-C ) :   0.3184 B(  0-Lu, 14-C ) :   0.2854
B(  0-Lu, 16-C ) :   0.2607 B(  0-Lu, 21-C ) :   0.4312 B(  0-Lu, 25-C ) :   0.4114
B(  0-Lu, 26-H ) :   0.1354 B(  1-C ,  2-C ) :   1.2759 B(  1-C ,  5-C ) :   1.3162
B(  1-C ,  8-H ) :   0.9116 B(  2-C ,  3-C ) :   1.2691 B(  2-C ,  9-H ) :   0.9125
B(  3-C ,  4-C ) :   1.2790 B(  3-C , 10-H ) :   0.9137 B(  4-C ,  5-C ) :   1.2669
B(  4-C ,  6-H ) :   0.9278 B(  5-C ,  7-H ) :   0.9207 B( 11-C , 12-C ) :   1.2758
B( 11-C , 14-C ) :   1.2882 B( 11-C , 15-H ) :   0.9265 B( 12-C , 16-C ) :   1.3207
B( 12-C , 17-H ) :   0.9185 B( 13-C , 14-C ) :   1.2640 B( 13-C , 16-C ) :   1.2605
B( 13-C , 19-H ) :   0.9113 B( 14-C , 18-H ) :   0.9175 B( 16-C , 20-H ) :   0.9124
B( 21-C , 22-H ) :   0.9240 B( 21-C , 23-H ) :   0.9153 B( 21-C , 24-H ) :   0.9265
B( 21-C , 26-H ) :   0.2907 B( 25-C , 26-H ) :   0.4641 B( 25-C , 27-H ) :   0.8244
B( 25-C , 28-H ) :   0.8807 B( 25-C , 29-H ) :   0.8880

Dispersion correction           -0.018239150
FINAL SINGLE POINT ENERGY     -1702.313346274591
Dispersion correction            ... done

DIPOLE MOMENT
-------------
                                X             Y             Z
Electronic contribution:      2.00656       3.23562      -0.35063
Nuclear contribution   :     -1.01927      -2.67957      -0.09554
                        -----------------------------------------
Total Dipole Moment    :      0.98729       0.55605      -0.44617
                        -----------------------------------------
Magnitude (a.u.)       :      1.21779
Magnitude (Debye)      :      3.09537

Rotational constants in cm-1:     0.030480     0.021311     0.017404
Rotational constants in MHz :   913.760881   638.895855   521.769239

                             ****ORCA TERMINATED NORMALLY****
TOTAL RUN TIME: 0 days 0 hours 10 minutes 18 seconds 875 msec
