                         Program Version 5.0.3 -  RELEASE  -
|  1> ! EnGrad PBEh-3c
|  2> %output
|  3> xyzfile=True
|  4> end
|  5> %scf
|  6> maxiter 250
|  7> end
|  8> %output
|  9> Print[P_Hirshfeld] = 1
| 10> end
| 11> % maxcore
| 12> 4000
| 13> *xyz 0 1
| 14> Lu   0.10794309  -0.17159137   0.14315777
| 15> C    0.48582529   0.67879326   2.61753960
| 16> C    1.56648117  -0.19496079   2.28953781
| 17> C    2.38553415   0.45032558   1.30140434
| 18> C    1.75574152   1.71002934   0.99181542
| 19> C    0.58348657   1.83552889   1.80545743
| 20> H    2.09211698   2.42016749   0.27941403
| 21> H   -0.02208948   2.69026498   1.87097803
| 22> H   -0.23108679   0.51193729   3.37874390
| 23> H    1.74084369  -1.14398735   2.71887980
| 24> H    3.26902120   0.08696085   0.89220849
| 25> C    0.81552512  -0.12119013  -2.40457100
| 26> C   -0.42941458  -0.82750903  -2.36053748
| 27> C    1.13169395  -2.10989897  -1.27040952
| 28> C    1.79421032  -0.92988421  -1.75008125
| 29> H    0.97730654   0.82562070  -2.85784724
| 30> C   -0.22789745  -2.03848512  -1.67693867
| 31> H   -1.31494765  -0.55305128  -2.87956062
| 32> H    2.81793145  -0.69480007  -1.63047063
| 33> H    1.58201149  -2.90868492  -0.74703386
| 34> H   -0.97400031  -2.78350447  -1.51219774
| 35> C   -2.12423719  -1.49044093   1.19107926
| 36> H   -2.33293565  -1.21442046   2.23707818
| 37> H   -2.10586111  -2.61431039   1.19693802
| 38> H   -3.05835514  -1.30023292   0.64084280
| 39> C   -2.03155147   2.04755604  -0.93803720
| 40> H   -2.18792438   0.70174125   0.13910194
| 41> H   -1.03362573   2.63213589  -1.31267698
| 42> H   -2.58440892   2.81115070  -0.49185841
| 43> H   -2.44843703   1.69855256  -1.84645651
| 44> *
| 45>
| 46>                          ****END OF INPUT****

CARTESIAN COORDINATES (ANGSTROEM)
---------------------------------
  Lu     0.107943   -0.171591    0.143158
  C      0.485825    0.678793    2.617540
  C      1.566481   -0.194961    2.289538
  C      2.385534    0.450326    1.301404
  C      1.755742    1.710029    0.991815
  C      0.583487    1.835529    1.805457
  H      2.092117    2.420167    0.279414
  H     -0.022089    2.690265    1.870978
  H     -0.231087    0.511937    3.378744
  H      1.740844   -1.143987    2.718880
  H      3.269021    0.086961    0.892208
  C      0.815525   -0.121190   -2.404571
  C     -0.429415   -0.827509   -2.360537
  C      1.131694   -2.109899   -1.270410
  C      1.794210   -0.929884   -1.750081
  H      0.977307    0.825621   -2.857847
  C     -0.227897   -2.038485   -1.676939
  H     -1.314948   -0.553051   -2.879561
  H      2.817931   -0.694800   -1.630471
  H      1.582011   -2.908685   -0.747034
  H     -0.974000   -2.783504   -1.512198
  C     -2.124237   -1.490441    1.191079
  H     -2.332936   -1.214420    2.237078
  H     -2.105861   -2.614310    1.196938
  H     -3.058355   -1.300233    0.640843
  C     -2.031551    2.047556   -0.938037
  H     -2.187924    0.701741    0.139102
  H     -1.033626    2.632136   -1.312677
  H     -2.584409    2.811151   -0.491858
  H     -2.448437    1.698553   -1.846457

 Total Charge           Charge          ....    0
 Multiplicity           Mult            ....    1
 Number of Electrons    NEL             ....  132
 Basis Dimension        Dim             ....  295

ORBITAL ENERGIES
----------------

  NO   OCC          E(Eh)            E(eV)
   0   2.0000     -19.264932      -524.2254
   1   2.0000     -12.637035      -343.8712
   2   2.0000     -12.635138      -343.8196
   3   2.0000     -12.634948      -343.8144
   4   2.0000     -10.488589      -285.4090
   5   2.0000     -10.452753      -284.4339
   6   2.0000     -10.452238      -284.4198
   7   2.0000     -10.452020      -284.4139
   8   2.0000     -10.449754      -284.3523
   9   2.0000     -10.448540      -284.3192
  10   2.0000     -10.448357      -284.3142
  11   2.0000     -10.446949      -284.2759
  12   2.0000     -10.445546      -284.2378
  13   2.0000     -10.445209      -284.2286
  14   2.0000     -10.443709      -284.1878
  15   2.0000     -10.378250      -282.4065
  16   2.0000      -5.906318      -160.7191
  17   2.0000      -5.905965      -160.7095
  18   2.0000      -5.905828      -160.7057
  19   2.0000      -5.904642      -160.6735
  20   2.0000      -5.904601      -160.6724
  21   2.0000      -2.447628       -66.6033
  22   2.0000      -1.283115       -34.9153
  23   2.0000      -1.282906       -34.9096
  24   2.0000      -1.273480       -34.6531
  25   2.0000      -0.971547       -26.4371
  26   2.0000      -0.963158       -26.2089
  27   2.0000      -0.796297       -21.6683
  28   2.0000      -0.793303       -21.5869
  29   2.0000      -0.792108       -21.5544
  30   2.0000      -0.791366       -21.5342
  31   2.0000      -0.779750       -21.2181
  32   2.0000      -0.690666       -18.7940
  33   2.0000      -0.624370       -16.9900
  34   2.0000      -0.618885       -16.8407
  35   2.0000      -0.616401       -16.7731
  36   2.0000      -0.612278       -16.6609
  37   2.0000      -0.599899       -16.3241
  38   2.0000      -0.595265       -16.1980
  39   2.0000      -0.573527       -15.6064
  40   2.0000      -0.572871       -15.5886
  41   2.0000      -0.572095       -15.5675
  42   2.0000      -0.571598       -15.5540
  43   2.0000      -0.571440       -15.5497
  44   2.0000      -0.570299       -15.5186
  45   2.0000      -0.569073       -15.4853
  46   2.0000      -0.492666       -13.4061
  47   2.0000      -0.466270       -12.6878
  48   2.0000      -0.458331       -12.4718
  49   2.0000      -0.454399       -12.3648
  50   2.0000      -0.453760       -12.3474
  51   2.0000      -0.452877       -12.3234
  52   2.0000      -0.447462       -12.1761
  53   2.0000      -0.437134       -11.8950
  54   2.0000      -0.435076       -11.8390
  55   2.0000      -0.432057       -11.7569
  56   2.0000      -0.430260       -11.7080
  57   2.0000      -0.425647       -11.5824
  58   2.0000      -0.404212       -10.9992
  59   2.0000      -0.384639       -10.4666
  60   2.0000      -0.362941        -9.8761
  61   2.0000      -0.289044        -7.8653
  62   2.0000      -0.285666        -7.7734
  63   2.0000      -0.277729        -7.5574
  64   2.0000      -0.269743        -7.3401
  65   2.0000      -0.236450        -6.4341
  66   0.0000      -0.035075        -0.9544
  67   0.0000      -0.007300        -0.1986
  68   0.0000       0.019121         0.5203
  69   0.0000       0.046402         1.2627
  70   0.0000       0.054632         1.4866

MULLIKEN ATOMIC CHARGES
-----------------------
   0 Lu:    0.743462
   1 C :   -0.242153
   2 C :   -0.319685
   3 C :   -0.276723
   4 C :   -0.290456
   5 C :   -0.302034
   6 H :    0.240266
   7 H :    0.236453
   8 H :    0.244664
   9 H :    0.249832
  10 H :    0.238602
  11 C :   -0.301237
  12 C :   -0.301292
  13 C :   -0.332863
  14 C :   -0.261719
  15 H :    0.237551
  16 C :   -0.226176
  17 H :    0.229877
  18 H :    0.235916
  19 H :    0.244507
  20 H :    0.250910
  21 C :   -0.975551
  22 H :    0.199492
  23 H :    0.196097
  24 H :    0.191277
  25 C :   -0.851487
  26 H :    0.192089
  27 H :    0.212358
  28 H :    0.269369
  29 H :    0.268654
Sum of atomic charges:    0.0000000

LOEWDIN ATOMIC CHARGES
----------------------
   0 Lu:   -0.074298
   1 C :   -0.122422
   2 C :   -0.146592
   3 C :   -0.132135
   4 C :   -0.148274
   5 C :   -0.143333
   6 H :    0.151764
   7 H :    0.153049
   8 H :    0.158398
   9 H :    0.157169
  10 H :    0.152051
  11 C :   -0.153301
  12 C :   -0.142538
  13 C :   -0.153625
  14 C :   -0.128557
  15 H :    0.150973
  16 C :   -0.116846
  17 H :    0.151963
  18 H :    0.151250
  19 H :    0.155399
  20 H :    0.161069
  21 C :   -0.641097
  22 H :    0.115588
  23 H :    0.122362
  24 H :    0.112513
  25 C :   -0.463385
  26 H :    0.237788
  27 H :    0.152899
  28 H :    0.140527
  29 H :    0.141644

  Mayer bond orders larger than 0.100000
B(  0-Lu,  1-C ) :   0.2382 B(  0-Lu,  2-C ) :   0.2820 B(  0-Lu,  3-C ) :   0.2735
B(  0-Lu,  4-C ) :   0.2748 B(  0-Lu,  5-C ) :   0.2652 B(  0-Lu, 11-C ) :   0.2750
B(  0-Lu, 12-C ) :   0.2607 B(  0-Lu, 13-C ) :   0.2879 B(  0-Lu, 14-C ) :   0.2693
B(  0-Lu, 16-C ) :   0.2325 B(  0-Lu, 21-C ) :   0.6993 B(  0-Lu, 25-C ) :   0.2061
B(  0-Lu, 26-H ) :   0.1727 B(  1-C ,  2-C ) :   1.2888 B(  1-C ,  5-C ) :   1.3028
B(  1-C ,  8-H ) :   0.9199 B(  2-C ,  3-C ) :   1.2786 B(  2-C ,  9-H ) :   0.9109
B(  3-C ,  4-C ) :   1.2874 B(  3-C , 10-H ) :   0.9181 B(  4-C ,  5-C ) :   1.2748
B(  4-C ,  6-H ) :   0.9128 B(  5-C ,  7-H ) :   0.9236 B( 11-C , 12-C ) :   1.2631
B( 11-C , 14-C ) :   1.3014 B( 11-C , 15-H ) :   0.9147 B( 12-C , 16-C ) :   1.3180
B( 12-C , 17-H ) :   0.9263 B( 13-C , 14-C ) :   1.2716 B( 13-C , 16-C ) :   1.2863
B( 13-C , 19-H ) :   0.9144 B( 14-C , 18-H ) :   0.9170 B( 16-C , 20-H ) :   0.9135
B( 21-C , 22-H ) :   0.9193 B( 21-C , 23-H ) :   0.9210 B( 21-C , 24-H ) :   0.9181
B( 25-C , 26-H ) :   0.7066 B( 25-C , 27-H ) :   0.9129 B( 25-C , 28-H ) :   0.8932
B( 25-C , 29-H ) :   0.8896

Dispersion correction           -0.017585425
FINAL SINGLE POINT ENERGY     -1702.254728386006
Dispersion correction            ... done

DIPOLE MOMENT
-------------
                                X             Y             Z
Electronic contribution:     -1.64678      -6.33628       6.79942
Nuclear contribution   :      1.97134       7.25711      -7.35736
                        -----------------------------------------
Total Dipole Moment    :      0.32457       0.92083      -0.55794
                        -----------------------------------------
Magnitude (a.u.)       :      1.12453
Magnitude (Debye)      :      2.85833

Rotational constants in cm-1:     0.027702     0.019052     0.017152
Rotational constants in MHz :   830.494675   571.175318   514.189216

                             ****ORCA TERMINATED NORMALLY****
TOTAL RUN TIME: 0 days 0 hours 9 minutes 38 seconds 531 msec
