                         Program Version 5.0.3 -  RELEASE  -
|  1> ! EnGrad PBEh-3c
|  2> %output
|  3> xyzfile=True
|  4> end
|  5> %scf
|  6> maxiter 250
|  7> end
|  8> %output
|  9> Print[P_Hirshfeld] = 1
| 10> end
| 11> % maxcore
| 12> 4000
| 13> *xyz 0 1
| 14> Lu   0.04200391  -0.10921606   0.11703313
| 15> C    0.48783412   0.73372059   2.59109886
| 16> C    1.53131293  -0.16075828   2.27487869
| 17> C    2.34655176   0.44329444   1.29906204
| 18> C    1.80089846   1.71359308   1.01424348
| 19> C    0.62072414   1.86590879   1.77951184
| 20> H    2.17419504   2.43713693   0.27595824
| 21> H   -0.00364666   2.75979271   1.82297954
| 22> H   -0.26985456   0.57707122   3.36053629
| 23> H    1.68144049  -1.14838723   2.72124562
| 24> H    3.29733061   0.04329286   0.90294307
| 25> C    0.85782145  -0.13796165  -2.44241045
| 26> C   -0.39655242  -0.79575876  -2.39771127
| 27> C    1.10693238  -2.07482373  -1.26413035
| 28> C    1.78591543  -0.92877897  -1.73982572
| 29> H    1.04462152   0.83738417  -2.90572283
| 30> C   -0.22476890  -2.00754238  -1.71575712
| 31> H   -1.29519837  -0.49097867  -2.92593974
| 32> H    2.85580128  -0.71882326  -1.62671021
| 33> H    1.55338822  -2.90821616  -0.72239008
| 34> H   -1.00139705  -2.74156457  -1.53237223
| 35> C   -2.15967138  -1.49765506   1.19782770
| 36> H   -2.32037916  -1.26486832   2.26746125
| 37> H   -2.10895907  -2.63134217   1.16949911
| 38> H   -3.13811823  -1.32266310   0.73100629
| 39> C   -2.03848927   1.92675770  -0.85109676
| 40> H   -2.05761639   0.67402804   0.07469961
| 41> H   -1.08285317   2.55558715  -1.26551993
| 42> H   -2.59619385   2.74576740  -0.39151869
| 43> H   -2.49476809   1.63257411  -1.78792096
| 44> *
| 45>
| 46>                          ****END OF INPUT****

CARTESIAN COORDINATES (ANGSTROEM)
---------------------------------
  Lu     0.042004   -0.109216    0.117033
  C      0.487834    0.733721    2.591099
  C      1.531313   -0.160758    2.274879
  C      2.346552    0.443294    1.299062
  C      1.800898    1.713593    1.014243
  C      0.620724    1.865909    1.779512
  H      2.174195    2.437137    0.275958
  H     -0.003647    2.759793    1.822980
  H     -0.269855    0.577071    3.360536
  H      1.681440   -1.148387    2.721246
  H      3.297331    0.043293    0.902943
  C      0.857821   -0.137962   -2.442410
  C     -0.396552   -0.795759   -2.397711
  C      1.106932   -2.074824   -1.264130
  C      1.785915   -0.928779   -1.739826
  H      1.044622    0.837384   -2.905723
  C     -0.224769   -2.007542   -1.715757
  H     -1.295198   -0.490979   -2.925940
  H      2.855801   -0.718823   -1.626710
  H      1.553388   -2.908216   -0.722390
  H     -1.001397   -2.741565   -1.532372
  C     -2.159671   -1.497655    1.197828
  H     -2.320379   -1.264868    2.267461
  H     -2.108959   -2.631342    1.169499
  H     -3.138118   -1.322663    0.731006
  C     -2.038489    1.926758   -0.851097
  H     -2.057616    0.674028    0.074700
  H     -1.082853    2.555587   -1.265520
  H     -2.596194    2.745767   -0.391519
  H     -2.494768    1.632574   -1.787921

 Total Charge           Charge          ....    0
 Multiplicity           Mult            ....    1
 Number of Electrons    NEL             ....  132
 Basis Dimension        Dim             ....  295

ORBITAL ENERGIES
----------------

  NO   OCC          E(Eh)            E(eV)
   0   2.0000     -19.270598      -524.3796
   1   2.0000     -12.642618      -344.0231
   2   2.0000     -12.640895      -343.9762
   3   2.0000     -12.640646      -343.9695
   4   2.0000     -10.497042      -285.6390
   5   2.0000     -10.451537      -284.4008
   6   2.0000     -10.450840      -284.3818
   7   2.0000     -10.450321      -284.3677
   8   2.0000     -10.449330      -284.3407
   9   2.0000     -10.447654      -284.2951
  10   2.0000     -10.446325      -284.2590
  11   2.0000     -10.445038      -284.2239
  12   2.0000     -10.443940      -284.1941
  13   2.0000     -10.443826      -284.1910
  14   2.0000     -10.442244      -284.1479
  15   2.0000     -10.380235      -282.4606
  16   2.0000      -5.911944      -160.8722
  17   2.0000      -5.911599      -160.8628
  18   2.0000      -5.911509      -160.8603
  19   2.0000      -5.910410      -160.8304
  20   2.0000      -5.910356      -160.8290
  21   2.0000      -2.453125       -66.7529
  22   2.0000      -1.288525       -35.0625
  23   2.0000      -1.287366       -35.0310
  24   2.0000      -1.278947       -34.8019
  25   2.0000      -0.980762       -26.6879
  26   2.0000      -0.973193       -26.4819
  27   2.0000      -0.794683       -21.6244
  28   2.0000      -0.791722       -21.5438
  29   2.0000      -0.790799       -21.5187
  30   2.0000      -0.790151       -21.5011
  31   2.0000      -0.783505       -21.3202
  32   2.0000      -0.689532       -18.7631
  33   2.0000      -0.612429       -16.6650
  34   2.0000      -0.609591       -16.5878
  35   2.0000      -0.607603       -16.5337
  36   2.0000      -0.606987       -16.5170
  37   2.0000      -0.593835       -16.1591
  38   2.0000      -0.589348       -16.0370
  39   2.0000      -0.579014       -15.7558
  40   2.0000      -0.578453       -15.7405
  41   2.0000      -0.577575       -15.7166
  42   2.0000      -0.577047       -15.7022
  43   2.0000      -0.577012       -15.7013
  44   2.0000      -0.575875       -15.6704
  45   2.0000      -0.574511       -15.6332
  46   2.0000      -0.485968       -13.2239
  47   2.0000      -0.469352       -12.7717
  48   2.0000      -0.454700       -12.3730
  49   2.0000      -0.452533       -12.3141
  50   2.0000      -0.448136       -12.1944
  51   2.0000      -0.447872       -12.1872
  52   2.0000      -0.447519       -12.1776
  53   2.0000      -0.435985       -11.8638
  54   2.0000      -0.432863       -11.7788
  55   2.0000      -0.430873       -11.7247
  56   2.0000      -0.429485       -11.6869
  57   2.0000      -0.428972       -11.6729
  58   2.0000      -0.427537       -11.6339
  59   2.0000      -0.382202       -10.4002
  60   2.0000      -0.370108       -10.0711
  61   2.0000      -0.291807        -7.9405
  62   2.0000      -0.285001        -7.7553
  63   2.0000      -0.277777        -7.5587
  64   2.0000      -0.268190        -7.2978
  65   2.0000      -0.239137        -6.5072
  66   0.0000      -0.027143        -0.7386
  67   0.0000       0.002211         0.0602
  68   0.0000       0.023585         0.6418
  69   0.0000       0.049991         1.3603
  70   0.0000       0.053700         1.4613

MULLIKEN ATOMIC CHARGES
-----------------------
   0 Lu:    0.731471
   1 C :   -0.242818
   2 C :   -0.297545
   3 C :   -0.309338
   4 C :   -0.243916
   5 C :   -0.336044
   6 H :    0.235956
   7 H :    0.235791
   8 H :    0.245368
   9 H :    0.247485
  10 H :    0.233644
  11 C :   -0.264461
  12 C :   -0.341392
  13 C :   -0.341005
  14 C :   -0.272308
  15 H :    0.234141
  16 C :   -0.203585
  17 H :    0.229735
  18 H :    0.231360
  19 H :    0.241226
  20 H :    0.253232
  21 C :   -0.965424
  22 H :    0.197036
  23 H :    0.189742
  24 H :    0.194423
  25 C :   -0.881825
  26 H :    0.230334
  27 H :    0.225127
  28 H :    0.268608
  29 H :    0.274978
Sum of atomic charges:   -0.0000000

LOEWDIN ATOMIC CHARGES
----------------------
   0 Lu:   -0.076217
   1 C :   -0.129227
   2 C :   -0.147494
   3 C :   -0.138116
   4 C :   -0.146431
   5 C :   -0.154776
   6 H :    0.152031
   7 H :    0.154232
   8 H :    0.160191
   9 H :    0.158903
  10 H :    0.154458
  11 C :   -0.151444
  12 C :   -0.154939
  13 C :   -0.155854
  14 C :   -0.132989
  15 H :    0.150781
  16 C :   -0.119331
  17 H :    0.152254
  18 H :    0.152079
  19 H :    0.156532
  20 H :    0.162303
  21 C :   -0.637487
  22 H :    0.114928
  23 H :    0.119647
  24 H :    0.112703
  25 C :   -0.464308
  26 H :    0.250981
  27 H :    0.160931
  28 H :    0.148655
  29 H :    0.147004

  Mayer bond orders larger than 0.100000
B(  0-Lu,  1-C ) :   0.2392 B(  0-Lu,  2-C ) :   0.2735 B(  0-Lu,  3-C ) :   0.2656
B(  0-Lu,  4-C ) :   0.2607 B(  0-Lu,  5-C ) :   0.2731 B(  0-Lu, 11-C ) :   0.2649
B(  0-Lu, 12-C ) :   0.2690 B(  0-Lu, 13-C ) :   0.2839 B(  0-Lu, 14-C ) :   0.2608
B(  0-Lu, 16-C ) :   0.2292 B(  0-Lu, 21-C ) :   0.7098 B(  0-Lu, 25-C ) :   0.2353
B(  0-Lu, 26-H ) :   0.1771 B(  1-C ,  2-C ) :   1.2938 B(  1-C ,  5-C ) :   1.2970
B(  1-C ,  8-H ) :   0.9160 B(  2-C ,  3-C ) :   1.2800 B(  2-C ,  9-H ) :   0.9099
B(  3-C ,  4-C ) :   1.2968 B(  3-C , 10-H ) :   0.9198 B(  4-C ,  5-C ) :   1.2726
B(  4-C ,  6-H ) :   0.9114 B(  5-C ,  7-H ) :   0.9190 B( 11-C , 12-C ) :   1.2611
B( 11-C , 14-C ) :   1.3115 B( 11-C , 15-H ) :   0.9123 B( 12-C , 16-C ) :   1.3111
B( 12-C , 17-H ) :   0.9228 B( 13-C , 14-C ) :   1.2708 B( 13-C , 16-C ) :   1.2920
B( 13-C , 19-H ) :   0.9158 B( 14-C , 18-H ) :   0.9196 B( 16-C , 20-H ) :   0.9086
B( 21-C , 22-H ) :   0.9194 B( 21-C , 23-H ) :   0.9236 B( 21-C , 24-H ) :   0.9187
B( 25-C , 26-H ) :   0.6853 B( 25-C , 27-H ) :   0.8976 B( 25-C , 28-H ) :   0.8938
B( 25-C , 29-H ) :   0.8842

Dispersion correction           -0.017256717
FINAL SINGLE POINT ENERGY     -1702.282203031080
Dispersion correction            ... done

DIPOLE MOMENT
-------------
                                X             Y             Z
Electronic contribution:     -5.01810      -3.20667       5.51228
Nuclear contribution   :      5.26385       4.25119      -6.10667
                        -----------------------------------------
Total Dipole Moment    :      0.24575       1.04452      -0.59439
                        -----------------------------------------
Magnitude (a.u.)       :      1.22667
Magnitude (Debye)      :      3.11795

Rotational constants in cm-1:     0.027999     0.019202     0.017037
Rotational constants in MHz :   839.399105   575.660057   510.767878

                             ****ORCA TERMINATED NORMALLY****
TOTAL RUN TIME: 0 days 0 hours 9 minutes 40 seconds 274 msec
