                         Program Version 5.0.3 -  RELEASE  -
|  1> ! EnGrad PBEh-3c
|  2> %output
|  3> xyzfile=True
|  4> end
|  5> %scf
|  6> maxiter 250
|  7> end
|  8> %output
|  9> Print[P_Hirshfeld] = 1
| 10> end
| 11> % maxcore
| 12> 4000
| 13> *xyz 0 1
| 14> Lu   0.08414715  -0.14908155   0.13372999
| 15> C    0.48655023   0.69861527   2.60799774
| 16> C    1.55378976  -0.18261789   2.28424767
| 17> C    2.37146630   0.44778821   1.30055906
| 18> C    1.77203762   1.71131541   0.99990919
| 19> C    0.59692476   1.84649230   1.79609426
| 20> H    2.12173707   2.42629137   0.27816692
| 21> H   -0.01543389   2.71535595   1.85365647
| 22> H   -0.24507719   0.53544263   3.37217319
| 23> H    1.71940644  -1.14557517   2.71973357
| 24> H    3.27923741   0.07120207   0.89608236
| 25> C    0.83078889  -0.12724259  -2.41822639
| 26> C   -0.41755538  -0.81605109  -2.37395265
| 27> C    1.12275807  -2.09724112  -1.26814351
| 28> C    1.79121688  -0.92948536  -1.74638026
| 29> H    1.00159897   0.82986586  -2.87512445
| 30> C   -0.22676843  -2.02731860  -1.69094736
| 31> H   -1.30782059  -0.53065070  -2.89629779
| 32> H    2.83159780  -0.70346949  -1.62911358
| 33> H    1.57168201  -2.90851575  -0.73814048
| 34> H   -0.98388717  -2.76836932  -1.51947825
| 35> C   -2.13702458  -1.49304434   1.19351461
| 36> H   -2.32840430  -1.23262593   2.24804273
| 37> H   -2.10697909  -2.62045676   1.18703594
| 38> H   -3.08713981  -1.30832746   0.67338074
| 39> C   -2.03405517   2.00396268  -0.90666239
| 40> H   -2.14089922   0.69174019   0.11586062
| 41> H   -1.05139079   2.60451120  -1.29565908
| 42> H   -2.58866183   2.78755537  -0.45564811
| 43> H   -2.46515685   1.67474245  -1.82533237
| 44> *
| 45>
| 46>                          ****END OF INPUT****

CARTESIAN COORDINATES (ANGSTROEM)
---------------------------------
  Lu     0.084147   -0.149082    0.133730
  C      0.486550    0.698615    2.607998
  C      1.553790   -0.182618    2.284248
  C      2.371466    0.447788    1.300559
  C      1.772038    1.711315    0.999909
  C      0.596925    1.846492    1.796094
  H      2.121737    2.426291    0.278167
  H     -0.015434    2.715356    1.853656
  H     -0.245077    0.535443    3.372173
  H      1.719406   -1.145575    2.719734
  H      3.279237    0.071202    0.896082
  C      0.830789   -0.127243   -2.418226
  C     -0.417555   -0.816051   -2.373953
  C      1.122758   -2.097241   -1.268144
  C      1.791217   -0.929485   -1.746380
  H      1.001599    0.829866   -2.875124
  C     -0.226768   -2.027319   -1.690947
  H     -1.307821   -0.530651   -2.896298
  H      2.831598   -0.703469   -1.629114
  H      1.571682   -2.908516   -0.738140
  H     -0.983887   -2.768369   -1.519478
  C     -2.137025   -1.493044    1.193515
  H     -2.328404   -1.232626    2.248043
  H     -2.106979   -2.620457    1.187036
  H     -3.087140   -1.308327    0.673381
  C     -2.034055    2.003963   -0.906662
  H     -2.140899    0.691740    0.115861
  H     -1.051391    2.604511   -1.295659
  H     -2.588662    2.787555   -0.455648
  H     -2.465157    1.674742   -1.825332

 Total Charge           Charge          ....    0
 Multiplicity           Mult            ....    1
 Number of Electrons    NEL             ....  132
 Basis Dimension        Dim             ....  295

ORBITAL ENERGIES
----------------

  NO   OCC          E(Eh)            E(eV)
   0   2.0000     -19.266889      -524.2787
   1   2.0000     -12.638963      -343.9237
   2   2.0000     -12.637129      -343.8738
   3   2.0000     -12.636920      -343.8681
   4   2.0000     -10.491292      -285.4826
   5   2.0000     -10.452250      -284.4202
   6   2.0000     -10.451528      -284.4005
   7   2.0000     -10.451481      -284.3993
   8   2.0000     -10.449556      -284.3469
   9   2.0000     -10.448119      -284.3078
  10   2.0000     -10.447568      -284.2928
  11   2.0000     -10.446199      -284.2555
  12   2.0000     -10.444897      -284.2201
  13   2.0000     -10.444633      -284.2129
  14   2.0000     -10.443129      -284.1720
  15   2.0000     -10.378996      -282.4268
  16   2.0000      -5.908262      -160.7720
  17   2.0000      -5.907914      -160.7625
  18   2.0000      -5.907794      -160.7592
  19   2.0000      -5.906638      -160.7278
  20   2.0000      -5.906594      -160.7266
  21   2.0000      -2.449517       -66.6548
  22   2.0000      -1.284759       -34.9601
  23   2.0000      -1.284564       -34.9548
  24   2.0000      -1.275355       -34.7042
  25   2.0000      -0.974722       -26.5235
  26   2.0000      -0.966923       -26.3113
  27   2.0000      -0.795618       -21.6499
  28   2.0000      -0.792658       -21.5693
  29   2.0000      -0.791627       -21.5413
  30   2.0000      -0.790880       -21.5209
  31   2.0000      -0.780547       -21.2398
  32   2.0000      -0.690604       -18.7923
  33   2.0000      -0.619740       -16.8640
  34   2.0000      -0.615137       -16.7387
  35   2.0000      -0.613294       -16.6886
  36   2.0000      -0.610341       -16.6082
  37   2.0000      -0.597690       -16.2640
  38   2.0000      -0.593183       -16.1413
  39   2.0000      -0.575414       -15.6578
  40   2.0000      -0.574804       -15.6412
  41   2.0000      -0.573988       -15.6190
  42   2.0000      -0.573507       -15.6059
  43   2.0000      -0.573369       -15.6022
  44   2.0000      -0.572256       -15.5719
  45   2.0000      -0.570987       -15.5373
  46   2.0000      -0.489712       -13.3257
  47   2.0000      -0.466215       -12.6864
  48   2.0000      -0.456904       -12.4330
  49   2.0000      -0.453063       -12.3285
  50   2.0000      -0.451665       -12.2904
  51   2.0000      -0.451319       -12.2810
  52   2.0000      -0.448041       -12.1918
  53   2.0000      -0.435858       -11.8603
  54   2.0000      -0.434083       -11.8120
  55   2.0000      -0.431873       -11.7519
  56   2.0000      -0.430177       -11.7057
  57   2.0000      -0.427315       -11.6278
  58   2.0000      -0.412492       -11.2245
  59   2.0000      -0.384152       -10.4533
  60   2.0000      -0.367130        -9.9901
  61   2.0000      -0.290014        -7.8917
  62   2.0000      -0.285450        -7.7675
  63   2.0000      -0.277788        -7.5590
  64   2.0000      -0.269222        -7.3259
  65   2.0000      -0.237595        -6.4653
  66   0.0000      -0.031593        -0.8597
  67   0.0000      -0.003901        -0.1061
  68   0.0000       0.021362         0.5813
  69   0.0000       0.047478         1.2919
  70   0.0000       0.055131         1.5002

MULLIKEN ATOMIC CHARGES
-----------------------
   0 Lu:    0.740497
   1 C :   -0.242514
   2 C :   -0.311566
   3 C :   -0.289783
   4 C :   -0.273354
   5 C :   -0.314820
   6 H :    0.239066
   7 H :    0.236501
   8 H :    0.245078
   9 H :    0.249145
  10 H :    0.237389
  11 C :   -0.288039
  12 C :   -0.315979
  13 C :   -0.336122
  14 C :   -0.265933
  15 H :    0.236696
  16 C :   -0.217707
  17 H :    0.229835
  18 H :    0.234435
  19 H :    0.243436
  20 H :    0.251845
  21 C :   -0.972355
  22 H :    0.198910
  23 H :    0.193975
  24 H :    0.192892
  25 C :   -0.863963
  26 H :    0.206007
  27 H :    0.216903
  28 H :    0.268745
  29 H :    0.270778
Sum of atomic charges:   -0.0000000

LOEWDIN ATOMIC CHARGES
----------------------
   0 Lu:   -0.074596
   1 C :   -0.124973
   2 C :   -0.147052
   3 C :   -0.134506
   4 C :   -0.147711
   5 C :   -0.147650
   6 H :    0.151995
   7 H :    0.153655
   8 H :    0.159099
   9 H :    0.157867
  10 H :    0.153288
  11 C :   -0.152673
  12 C :   -0.147068
  13 C :   -0.154522
  14 C :   -0.130226
  15 H :    0.151038
  16 C :   -0.117758
  17 H :    0.152134
  18 H :    0.151668
  19 H :    0.155878
  20 H :    0.161509
  21 C :   -0.639736
  22 H :    0.115478
  23 H :    0.121537
  24 H :    0.112703
  25 C :   -0.465638
  26 H :    0.244150
  27 H :    0.155604
  28 H :    0.143240
  29 H :    0.143267

  Mayer bond orders larger than 0.100000
B(  0-Lu,  1-C ) :   0.2386 B(  0-Lu,  2-C ) :   0.2789 B(  0-Lu,  3-C ) :   0.2708
B(  0-Lu,  4-C ) :   0.2697 B(  0-Lu,  5-C ) :   0.2682 B(  0-Lu, 11-C ) :   0.2714
B(  0-Lu, 12-C ) :   0.2639 B(  0-Lu, 13-C ) :   0.2865 B(  0-Lu, 14-C ) :   0.2663
B(  0-Lu, 16-C ) :   0.2313 B(  0-Lu, 21-C ) :   0.7021 B(  0-Lu, 25-C ) :   0.2155
B(  0-Lu, 26-H ) :   0.1744 B(  1-C ,  2-C ) :   1.2907 B(  1-C ,  5-C ) :   1.3007
B(  1-C ,  8-H ) :   0.9184 B(  2-C ,  3-C ) :   1.2792 B(  2-C ,  9-H ) :   0.9105
B(  3-C ,  4-C ) :   1.2912 B(  3-C , 10-H ) :   0.9189 B(  4-C ,  5-C ) :   1.2742
B(  4-C ,  6-H ) :   0.9121 B(  5-C ,  7-H ) :   0.9219 B( 11-C , 12-C ) :   1.2626
B( 11-C , 14-C ) :   1.3052 B( 11-C , 15-H ) :   0.9136 B( 12-C , 16-C ) :   1.3156
B( 12-C , 17-H ) :   0.9251 B( 13-C , 14-C ) :   1.2712 B( 13-C , 16-C ) :   1.2885
B( 13-C , 19-H ) :   0.9150 B( 14-C , 18-H ) :   0.9181 B( 16-C , 20-H ) :   0.9116
B( 21-C , 22-H ) :   0.9193 B( 21-C , 23-H ) :   0.9220 B( 21-C , 24-H ) :   0.9182
B( 25-C , 26-H ) :   0.6985 B( 25-C , 27-H ) :   0.9077 B( 25-C , 28-H ) :   0.8935
B( 25-C , 29-H ) :   0.8876

Dispersion correction           -0.017448906
FINAL SINGLE POINT ENERGY     -1702.269506929606
Dispersion correction            ... done

DIPOLE MOMENT
-------------
                                X             Y             Z
Electronic contribution:     -2.86138      -5.21248       6.33826
Nuclear contribution   :      3.15953       6.17235      -6.90602
                        -----------------------------------------
Total Dipole Moment    :      0.29816       0.95987      -0.56776
                        -----------------------------------------
Magnitude (a.u.)       :      1.15438
Magnitude (Debye)      :      2.93420

Rotational constants in cm-1:     0.027823     0.019105     0.017117
Rotational constants in MHz :   834.111770   572.764577   513.143213

                             ****ORCA TERMINATED NORMALLY****
TOTAL RUN TIME: 0 days 0 hours 9 minutes 36 seconds 827 msec
