                         Program Version 5.0.3 -  RELEASE  -
|  1> ! EnGrad PBEh-3c
|  2> %output
|  3> xyzfile=True
|  4> end
|  5> %scf
|  6> maxiter 250
|  7> end
|  8> %output
|  9> Print[P_Hirshfeld] = 1
| 10> end
| 11> % maxcore
| 12> 4000
| 13> *xyz 0 1
| 14> Lu   0.04255731  -0.10287013   0.10883454
| 15> C    0.48624658   0.73681441   2.58065549
| 16> C    1.52483351  -0.15109679   2.27012346
| 17> C    2.33604696   0.45028400   1.30300945
| 18> C    1.80259213   1.70647036   1.01084243
| 19> C    0.63739251   1.87127282   1.77666241
| 20> H    2.18882839   2.43766570   0.27952119
| 21> H    0.00228280   2.77205825   1.81514196
| 22> H   -0.27527259   0.58962053   3.35422969
| 23> H    1.66920254  -1.14685212   2.72096764
| 24> H    3.29624156   0.03694260   0.90666227
| 25> C    0.86269594  -0.14004870  -2.44051603
| 26> C   -0.38421201  -0.78889464  -2.40777701
| 27> C    1.10408867  -2.06423603  -1.26946746
| 28> C    1.77985620  -0.92908032  -1.73900180
| 29> H    1.05724720   0.83515968  -2.91473555
| 30> C   -0.22525854  -1.99765132  -1.71373343
| 31> H   -1.29046656  -0.48137630  -2.93487384
| 32> H    2.85876630  -0.72351963  -1.62572371
| 33> H    1.54706729  -2.90728263  -0.71733057
| 34> H   -1.00560302  -2.73307744  -1.53720583
| 35> C   -2.17452307  -1.50145034   1.20189574
| 36> H   -2.31531232  -1.27407801   2.26947791
| 37> H   -2.10628349  -2.62152672   1.16251775
| 38> H   -3.15398873  -1.32423860   0.74568459
| 39> C   -1.99131202   1.91433181  -0.84365243
| 40> H   -2.05031447   0.66436475   0.06951041
| 41> H   -1.11404864   2.52875712  -1.25020420
| 42> H   -2.60216767   2.73123432  -0.36962244
| 43> H   -2.50850873   1.61809169  -1.77979112
| 44> *
| 45>
| 46>                          ****END OF INPUT****

CARTESIAN COORDINATES (ANGSTROEM)
---------------------------------
  Lu     0.042557   -0.102870    0.108835
  C      0.486247    0.736814    2.580655
  C      1.524834   -0.151097    2.270123
  C      2.336047    0.450284    1.303009
  C      1.802592    1.706470    1.010842
  C      0.637393    1.871273    1.776662
  H      2.188828    2.437666    0.279521
  H      0.002283    2.772058    1.815142
  H     -0.275273    0.589621    3.354230
  H      1.669203   -1.146852    2.720968
  H      3.296242    0.036943    0.906662
  C      0.862696   -0.140049   -2.440516
  C     -0.384212   -0.788895   -2.407777
  C      1.104089   -2.064236   -1.269467
  C      1.779856   -0.929080   -1.739002
  H      1.057247    0.835160   -2.914736
  C     -0.225259   -1.997651   -1.713733
  H     -1.290467   -0.481376   -2.934874
  H      2.858766   -0.723520   -1.625724
  H      1.547067   -2.907283   -0.717331
  H     -1.005603   -2.733077   -1.537206
  C     -2.174523   -1.501450    1.201896
  H     -2.315312   -1.274078    2.269478
  H     -2.106283   -2.621527    1.162518
  H     -3.153989   -1.324239    0.745685
  C     -1.991312    1.914332   -0.843652
  H     -2.050314    0.664365    0.069510
  H     -1.114049    2.528757   -1.250204
  H     -2.602168    2.731234   -0.369622
  H     -2.508509    1.618092   -1.779791

 Total Charge           Charge          ....    0
 Multiplicity           Mult            ....    1
 Number of Electrons    NEL             ....  132
 Basis Dimension        Dim             ....  295

ORBITAL ENERGIES
----------------

  NO   OCC          E(Eh)            E(eV)
   0   2.0000     -19.270795      -524.3850
   1   2.0000     -12.642789      -344.0278
   2   2.0000     -12.641089      -343.9815
   3   2.0000     -12.640867      -343.9755
   4   2.0000     -10.493998      -285.5562
   5   2.0000     -10.449685      -284.3504
   6   2.0000     -10.449000      -284.3317
   7   2.0000     -10.448666      -284.3227
   8   2.0000     -10.448113      -284.3076
   9   2.0000     -10.446930      -284.2754
  10   2.0000     -10.444892      -284.2200
  11   2.0000     -10.443702      -284.1876
  12   2.0000     -10.443564      -284.1838
  13   2.0000     -10.443430      -284.1802
  14   2.0000     -10.441467      -284.1268
  15   2.0000     -10.379123      -282.4303
  16   2.0000      -5.912117      -160.8769
  17   2.0000      -5.911782      -160.8678
  18   2.0000      -5.911691      -160.8653
  19   2.0000      -5.910619      -160.8361
  20   2.0000      -5.910568      -160.8347
  21   2.0000      -2.453342       -66.7588
  22   2.0000      -1.288788       -35.0697
  23   2.0000      -1.287792       -35.0426
  24   2.0000      -1.279368       -34.8134
  25   2.0000      -0.985784       -26.8246
  26   2.0000      -0.977908       -26.6102
  27   2.0000      -0.794451       -21.6181
  28   2.0000      -0.793375       -21.5888
  29   2.0000      -0.792093       -21.5539
  30   2.0000      -0.791042       -21.5254
  31   2.0000      -0.783469       -21.3193
  32   2.0000      -0.691459       -18.8155
  33   2.0000      -0.610463       -16.6115
  34   2.0000      -0.608496       -16.5580
  35   2.0000      -0.606626       -16.5071
  36   2.0000      -0.605881       -16.4869
  37   2.0000      -0.593740       -16.1565
  38   2.0000      -0.589121       -16.0308
  39   2.0000      -0.579200       -15.7608
  40   2.0000      -0.578596       -15.7444
  41   2.0000      -0.577702       -15.7201
  42   2.0000      -0.577203       -15.7065
  43   2.0000      -0.577184       -15.7060
  44   2.0000      -0.576098       -15.6764
  45   2.0000      -0.574722       -15.6390
  46   2.0000      -0.475212       -12.9312
  47   2.0000      -0.470264       -12.7965
  48   2.0000      -0.465556       -12.6684
  49   2.0000      -0.451503       -12.2860
  50   2.0000      -0.448477       -12.2037
  51   2.0000      -0.447826       -12.1860
  52   2.0000      -0.446126       -12.1397
  53   2.0000      -0.437858       -11.9147
  54   2.0000      -0.433036       -11.7835
  55   2.0000      -0.431255       -11.7350
  56   2.0000      -0.430631       -11.7181
  57   2.0000      -0.429112       -11.6767
  58   2.0000      -0.426216       -11.5979
  59   2.0000      -0.384161       -10.4535
  60   2.0000      -0.373506       -10.1636
  61   2.0000      -0.291768        -7.9394
  62   2.0000      -0.286168        -7.7870
  63   2.0000      -0.279151        -7.5961
  64   2.0000      -0.268837        -7.3154
  65   2.0000      -0.237379        -6.4594
  66   0.0000      -0.027715        -0.7542
  67   0.0000       0.005942         0.1617
  68   0.0000       0.025714         0.6997
  69   0.0000       0.049766         1.3542
  70   0.0000       0.054496         1.4829

MULLIKEN ATOMIC CHARGES
-----------------------
   0 Lu:    0.724692
   1 C :   -0.254813
   2 C :   -0.292762
   3 C :   -0.303549
   4 C :   -0.252901
   5 C :   -0.320969
   6 H :    0.235345
   7 H :    0.234933
   8 H :    0.244154
   9 H :    0.246504
  10 H :    0.232034
  11 C :   -0.268384
  12 C :   -0.328213
  13 C :   -0.331539
  14 C :   -0.272056
  15 H :    0.233668
  16 C :   -0.217761
  17 H :    0.230202
  18 H :    0.230907
  19 H :    0.240747
  20 H :    0.252510
  21 C :   -0.964175
  22 H :    0.198088
  23 H :    0.192432
  24 H :    0.194407
  25 C :   -0.906119
  26 H :    0.242034
  27 H :    0.251067
  28 H :    0.261786
  29 H :    0.267731
Sum of atomic charges:   -0.0000000

LOEWDIN ATOMIC CHARGES
----------------------
   0 Lu:   -0.079347
   1 C :   -0.131838
   2 C :   -0.147462
   3 C :   -0.138335
   4 C :   -0.148276
   5 C :   -0.152696
   6 H :    0.152524
   7 H :    0.153958
   8 H :    0.160269
   9 H :    0.159077
  10 H :    0.154225
  11 C :   -0.151695
  12 C :   -0.152035
  13 C :   -0.153798
  14 C :   -0.133965
  15 H :    0.151095
  16 C :   -0.122466
  17 H :    0.152565
  18 H :    0.152569
  19 H :    0.156852
  20 H :    0.162625
  21 C :   -0.636250
  22 H :    0.115231
  23 H :    0.119937
  24 H :    0.112794
  25 C :   -0.475443
  26 H :    0.257917
  27 H :    0.164898
  28 H :    0.149569
  29 H :    0.147501

  Mayer bond orders larger than 0.100000
B(  0-Lu,  1-C ) :   0.2408 B(  0-Lu,  2-C ) :   0.2725 B(  0-Lu,  3-C ) :   0.2654
B(  0-Lu,  4-C ) :   0.2609 B(  0-Lu,  5-C ) :   0.2707 B(  0-Lu, 11-C ) :   0.2661
B(  0-Lu, 12-C ) :   0.2679 B(  0-Lu, 13-C ) :   0.2828 B(  0-Lu, 14-C ) :   0.2620
B(  0-Lu, 16-C ) :   0.2341 B(  0-Lu, 21-C ) :   0.7041 B(  0-Lu, 25-C ) :   0.2442
B(  0-Lu, 26-H ) :   0.1832 B(  1-C ,  2-C ) :   1.2946 B(  1-C ,  5-C ) :   1.2982
B(  1-C ,  8-H ) :   0.9168 B(  2-C ,  3-C ) :   1.2822 B(  2-C ,  9-H ) :   0.9096
B(  3-C ,  4-C ) :   1.2972 B(  3-C , 10-H ) :   0.9192 B(  4-C ,  5-C ) :   1.2759
B(  4-C ,  6-H ) :   0.9125 B(  5-C ,  7-H ) :   0.9174 B( 11-C , 12-C ) :   1.2664
B( 11-C , 14-C ) :   1.3072 B( 11-C , 15-H ) :   0.9128 B( 12-C , 16-C ) :   1.3092
B( 12-C , 17-H ) :   0.9214 B( 13-C , 14-C ) :   1.2742 B( 13-C , 16-C ) :   1.2917
B( 13-C , 19-H ) :   0.9148 B( 14-C , 18-H ) :   0.9196 B( 16-C , 20-H ) :   0.9096
B( 21-C , 22-H ) :   0.9201 B( 21-C , 23-H ) :   0.9235 B( 21-C , 24-H ) :   0.9204
B( 25-C , 26-H ) :   0.6684 B( 25-C , 27-H ) :   0.8848 B( 25-C , 28-H ) :   0.8995
B( 25-C , 29-H ) :   0.8903

Dispersion correction           -0.017238502
FINAL SINGLE POINT ENERGY     -1702.285855203207
Dispersion correction            ... done

DIPOLE MOMENT
-------------
                                X             Y             Z
Electronic contribution:     -5.02954      -2.94648       5.12106
Nuclear contribution   :      5.28813       3.96934      -5.71941
                        -----------------------------------------
Total Dipole Moment    :      0.25859       1.02287      -0.59835
                        -----------------------------------------
Magnitude (a.u.)       :      1.21291
Magnitude (Debye)      :      3.08297

Rotational constants in cm-1:     0.028194     0.019251     0.017094
Rotational constants in MHz :   845.225201   577.126253   512.479662

                             ****ORCA TERMINATED NORMALLY****
TOTAL RUN TIME: 0 days 0 hours 9 minutes 30 seconds 32 msec
