                         Program Version 5.0.3 -  RELEASE  -
|  1> ! EnGrad PBEh-3c
|  2> %output
|  3> xyzfile=True
|  4> end
|  5> %scf
|  6> maxiter 250
|  7> end
|  8> %output
|  9> Print[P_Hirshfeld] = 1
| 10> end
| 11> % maxcore
| 12> 4000
| 13> *xyz 0 1
| 14> Lu   0.01787917  -0.06921061   0.08849486
| 15> C    0.47128326   0.76340844   2.56915364
| 16> C    1.50334070  -0.14633897   2.26834437
| 17> C    2.33726880   0.43930508   1.29478690
| 18> C    1.82684097   1.71852353   1.00172789
| 19> C    0.65489433   1.90659567   1.76450609
| 20> H    2.23748743   2.43935047   0.28796609
| 21> H    0.02461949   2.80605514   1.78592367
| 22> H   -0.29236737   0.63211441   3.33291258
| 23> H    1.62951346  -1.13777986   2.71727753
| 24> H    3.29303525   0.01743492   0.92079317
| 25> C    0.88763778  -0.13071187  -2.46289687
| 26> C   -0.37137399  -0.76870812  -2.43818789
| 27> C    1.09490828  -2.05589857  -1.26176246
| 28> C    1.79187286  -0.92379882  -1.73130942
| 29> H    1.09898743   0.82986583  -2.94183501
| 30> C   -0.23336807  -1.97724029  -1.72733095
| 31> H   -1.27078825  -0.44594834  -2.96188341
| 32> H    2.86810651  -0.74053914  -1.62390269
| 33> H    1.52414380  -2.89770558  -0.70629701
| 34> H   -1.01825927  -2.70213286  -1.55175117
| 35> C   -2.20209898  -1.50643855   1.20864588
| 36> H   -2.30461286  -1.30417830   2.28519163
| 37> H   -2.10395358  -2.61561958   1.14171375
| 38> H   -3.21178769  -1.33455298   0.79871534
| 39> C   -1.97983695   1.85517186  -0.80092854
| 40> H   -1.99077931   0.63177125   0.04467336
| 41> H   -1.15187041   2.47545421  -1.21988403
| 42> H   -2.59851224   2.67024487  -0.31066378
| 43> H   -2.53339944   1.57745497  -1.73316711
| 44> *
| 45>
| 46>                          ****END OF INPUT****

CARTESIAN COORDINATES (ANGSTROEM)
---------------------------------
  Lu     0.017879   -0.069211    0.088495
  C      0.471283    0.763408    2.569154
  C      1.503341   -0.146339    2.268344
  C      2.337269    0.439305    1.294787
  C      1.826841    1.718524    1.001728
  C      0.654894    1.906596    1.764506
  H      2.237487    2.439350    0.287966
  H      0.024619    2.806055    1.785924
  H     -0.292367    0.632114    3.332913
  H      1.629513   -1.137780    2.717278
  H      3.293035    0.017435    0.920793
  C      0.887638   -0.130712   -2.462897
  C     -0.371374   -0.768708   -2.438188
  C      1.094908   -2.055899   -1.261762
  C      1.791873   -0.923799   -1.731309
  H      1.098987    0.829866   -2.941835
  C     -0.233368   -1.977240   -1.727331
  H     -1.270788   -0.445948   -2.961883
  H      2.868107   -0.740539   -1.623903
  H      1.524144   -2.897706   -0.706297
  H     -1.018259   -2.702133   -1.551751
  C     -2.202099   -1.506439    1.208646
  H     -2.304613   -1.304178    2.285192
  H     -2.103954   -2.615620    1.141714
  H     -3.211788   -1.334553    0.798715
  C     -1.979837    1.855172   -0.800929
  H     -1.990779    0.631771    0.044673
  H     -1.151870    2.475454   -1.219884
  H     -2.598512    2.670245   -0.310664
  H     -2.533399    1.577455   -1.733167

 Total Charge           Charge          ....    0
 Multiplicity           Mult            ....    1
 Number of Electrons    NEL             ....  132
 Basis Dimension        Dim             ....  295

ORBITAL ENERGIES
----------------

  NO   OCC          E(Eh)            E(eV)
   0   2.0000     -19.272153      -524.4220
   1   2.0000     -12.644082      -344.0630
   2   2.0000     -12.642470      -344.0191
   3   2.0000     -12.642255      -344.0133
   4   2.0000     -10.492252      -285.5087
   5   2.0000     -10.450774      -284.3800
   6   2.0000     -10.449926      -284.3570
   7   2.0000     -10.449884      -284.3558
   8   2.0000     -10.449192      -284.3370
   9   2.0000     -10.448794      -284.3261
  10   2.0000     -10.446168      -284.2547
  11   2.0000     -10.445208      -284.2285
  12   2.0000     -10.444654      -284.2135
  13   2.0000     -10.444459      -284.2082
  14   2.0000     -10.442568      -284.1567
  15   2.0000     -10.379754      -282.4475
  16   2.0000      -5.913425      -160.9125
  17   2.0000      -5.913099      -160.9036
  18   2.0000      -5.913027      -160.9016
  19   2.0000      -5.912014      -160.8741
  20   2.0000      -5.911964      -160.8727
  21   2.0000      -2.454649       -66.7944
  22   2.0000      -1.290408       -35.1138
  23   2.0000      -1.288390       -35.0589
  24   2.0000      -1.280835       -34.8533
  25   2.0000      -0.979868       -26.6636
  26   2.0000      -0.972957       -26.4755
  27   2.0000      -0.793309       -21.5870
  28   2.0000      -0.792000       -21.5514
  29   2.0000      -0.791641       -21.5417
  30   2.0000      -0.789498       -21.4833
  31   2.0000      -0.788659       -21.4605
  32   2.0000      -0.690669       -18.7941
  33   2.0000      -0.611456       -16.6386
  34   2.0000      -0.609095       -16.5743
  35   2.0000      -0.607362       -16.5272
  36   2.0000      -0.606418       -16.5015
  37   2.0000      -0.593330       -16.1453
  38   2.0000      -0.588781       -16.0215
  39   2.0000      -0.580523       -15.7968
  40   2.0000      -0.579891       -15.7796
  41   2.0000      -0.579069       -15.7573
  42   2.0000      -0.578614       -15.7449
  43   2.0000      -0.578499       -15.7418
  44   2.0000      -0.577481       -15.7141
  45   2.0000      -0.576072       -15.6757
  46   2.0000      -0.481482       -13.1018
  47   2.0000      -0.469897       -12.7865
  48   2.0000      -0.467030       -12.7085
  49   2.0000      -0.452072       -12.3015
  50   2.0000      -0.449209       -12.2236
  51   2.0000      -0.448454       -12.2030
  52   2.0000      -0.446715       -12.1557
  53   2.0000      -0.438454       -11.9309
  54   2.0000      -0.434663       -11.8278
  55   2.0000      -0.432043       -11.7565
  56   2.0000      -0.430430       -11.7126
  57   2.0000      -0.429749       -11.6941
  58   2.0000      -0.426339       -11.6013
  59   2.0000      -0.382716       -10.4142
  60   2.0000      -0.375676       -10.2227
  61   2.0000      -0.291305        -7.9268
  62   2.0000      -0.284322        -7.7368
  63   2.0000      -0.278439        -7.5767
  64   2.0000      -0.266359        -7.2480
  65   2.0000      -0.236008        -6.4221
  66   0.0000      -0.026957        -0.7335
  67   0.0000       0.012656         0.3444
  68   0.0000       0.026101         0.7102
  69   0.0000       0.050130         1.3641
  70   0.0000       0.050886         1.3847

MULLIKEN ATOMIC CHARGES
-----------------------
   0 Lu:    0.706229
   1 C :   -0.265959
   2 C :   -0.283542
   3 C :   -0.309248
   4 C :   -0.253215
   5 C :   -0.315740
   6 H :    0.235364
   7 H :    0.235626
   8 H :    0.244774
   9 H :    0.246806
  10 H :    0.231522
  11 C :   -0.263532
  12 C :   -0.329309
  13 C :   -0.326600
  14 C :   -0.277801
  15 H :    0.234093
  16 C :   -0.221581
  17 H :    0.231634
  18 H :    0.230196
  19 H :    0.240808
  20 H :    0.253592
  21 C :   -0.955651
  22 H :    0.196794
  23 H :    0.192477
  24 H :    0.191534
  25 C :   -0.928072
  26 H :    0.259816
  27 H :    0.264687
  28 H :    0.264327
  29 H :    0.269971
Sum of atomic charges:    0.0000000

LOEWDIN ATOMIC CHARGES
----------------------
   0 Lu:   -0.088515
   1 C :   -0.134809
   2 C :   -0.145741
   3 C :   -0.139134
   4 C :   -0.148261
   5 C :   -0.153461
   6 H :    0.151853
   7 H :    0.153431
   8 H :    0.160075
   9 H :    0.158529
  10 H :    0.153738
  11 C :   -0.151318
  12 C :   -0.153352
  13 C :   -0.152675
  14 C :   -0.133922
  15 H :    0.150669
  16 C :   -0.123779
  17 H :    0.152455
  18 H :    0.152018
  19 H :    0.156727
  20 H :    0.162696
  21 C :   -0.633454
  22 H :    0.114589
  23 H :    0.118554
  24 H :    0.112184
  25 C :   -0.473132
  26 H :    0.261799
  27 H :    0.168696
  28 H :    0.153068
  29 H :    0.150473

  Mayer bond orders larger than 0.100000
B(  0-Lu,  1-C ) :   0.2435 B(  0-Lu,  2-C ) :   0.2699 B(  0-Lu,  3-C ) :   0.2645
B(  0-Lu,  4-C ) :   0.2584 B(  0-Lu,  5-C ) :   0.2705 B(  0-Lu, 11-C ) :   0.2648
B(  0-Lu, 12-C ) :   0.2694 B(  0-Lu, 13-C ) :   0.2826 B(  0-Lu, 14-C ) :   0.2612
B(  0-Lu, 16-C ) :   0.2367 B(  0-Lu, 21-C ) :   0.6998 B(  0-Lu, 25-C ) :   0.2688
B(  0-Lu, 26-H ) :   0.1920 B(  1-C ,  2-C ) :   1.2951 B(  1-C ,  5-C ) :   1.2935
B(  1-C ,  8-H ) :   0.9172 B(  2-C ,  3-C ) :   1.2826 B(  2-C ,  9-H ) :   0.9099
B(  3-C ,  4-C ) :   1.2959 B(  3-C , 10-H ) :   0.9211 B(  4-C ,  5-C ) :   1.2788
B(  4-C ,  6-H ) :   0.9138 B(  5-C ,  7-H ) :   0.9159 B( 11-C , 12-C ) :   1.2665
B( 11-C , 14-C ) :   1.3073 B( 11-C , 15-H ) :   0.9132 B( 12-C , 16-C ) :   1.3061
B( 12-C , 17-H ) :   0.9198 B( 13-C , 14-C ) :   1.2744 B( 13-C , 16-C ) :   1.2905
B( 13-C , 19-H ) :   0.9157 B( 14-C , 18-H ) :   0.9216 B( 16-C , 20-H ) :   0.9092
B( 21-C , 22-H ) :   0.9206 B( 21-C , 23-H ) :   0.9233 B( 21-C , 24-H ) :   0.9235
B( 25-C , 26-H ) :   0.6459 B( 25-C , 27-H ) :   0.8735 B( 25-C , 28-H ) :   0.8998
B( 25-C , 29-H ) :   0.8904

Dispersion correction           -0.017204714
FINAL SINGLE POINT ENERGY     -1702.292981065050
Dispersion correction            ... done

DIPOLE MOMENT
-------------
                                X             Y             Z
Electronic contribution:     -6.29624      -1.32405       4.13520
Nuclear contribution   :      6.54394       2.38343      -4.75784
                        -----------------------------------------
Total Dipole Moment    :      0.24770       1.05938      -0.62264
                        -----------------------------------------
Magnitude (a.u.)       :      1.25353
Magnitude (Debye)      :      3.18621

Rotational constants in cm-1:     0.028164     0.019311     0.017012
Rotational constants in MHz :   844.349805   578.938438   510.021185

                             ****ORCA TERMINATED NORMALLY****
TOTAL RUN TIME: 0 days 0 hours 9 minutes 40 seconds 186 msec
