                         Program Version 5.0.3 -  RELEASE  -
|  1> ! EnGrad PBEh-3c
|  2> %output
|  3> xyzfile=True
|  4> end
|  5> %scf
|  6> maxiter 250
|  7> end
|  8> %output
|  9> Print[P_Hirshfeld] = 1
| 10> end
| 11> % maxcore
| 12> 4000
| 13> *xyz 0 1
| 14> Lu  -0.03188738   0.02780068   0.02450684
| 15> C    0.43377753   0.84852477   2.51192237
| 16> C    1.43577312  -0.12173738   2.25035605
| 17> C    2.33168685   0.41323402   1.27660009
| 18> C    1.88855828   1.73497137   0.97198964
| 19> C    0.71031160   2.00326911   1.73052879
| 20> H    2.38944735   2.44548290   0.31494265
| 21> H    0.10191481   2.90848385   1.69925804
| 22> H   -0.34987365   0.76021219   3.26304209
| 23> H    1.50880247  -1.10705380   2.70585092
| 24> H    3.27200198  -0.03838749   0.96460907
| 25> C    0.96284428  -0.10677463  -2.51260129
| 26> C   -0.32700980  -0.71118603  -2.52686128
| 27> C    1.06346138  -2.02320414  -1.24430460
| 28> C    1.81620620  -0.90622342  -1.71084831
| 29> H    1.22978504   0.81035903  -3.02897416
| 30> C   -0.25072012  -1.89891946  -1.76107588
| 31> H   -1.20766322  -0.33861747  -3.04554752
| 32> H    2.89195107  -0.79064274  -1.61666498
| 33> H    1.45289210  -2.86360331  -0.67387598
| 34> H   -1.05872140  -2.60576697  -1.59533752
| 35> C   -2.30343008  -1.49882223   1.21861227
| 36> H   -2.26755256  -1.38701132   2.32827254
| 37> H   -2.08317074  -2.57093069   1.06487697
| 38> H   -3.39632093  -1.36286225   0.96274763
| 39> C   -1.98474850   1.67391486  -0.68103244
| 40> H   -1.85149679   0.48340756   0.01038339
| 41> H   -1.22869028   2.32946511  -1.14376796
| 42> H   -2.55790177   2.44450157  -0.13551256
| 43> H   -2.58978261   1.45289191  -1.56667064
| 44> *
| 45>
| 46>                          ****END OF INPUT****

CARTESIAN COORDINATES (ANGSTROEM)
---------------------------------
  Lu    -0.031887    0.027801    0.024507
  C      0.433778    0.848525    2.511922
  C      1.435773   -0.121737    2.250356
  C      2.331687    0.413234    1.276600
  C      1.888558    1.734971    0.971990
  C      0.710312    2.003269    1.730529
  H      2.389447    2.445483    0.314943
  H      0.101915    2.908484    1.699258
  H     -0.349874    0.760212    3.263042
  H      1.508802   -1.107054    2.705851
  H      3.272002   -0.038387    0.964609
  C      0.962844   -0.106775   -2.512601
  C     -0.327010   -0.711186   -2.526861
  C      1.063461   -2.023204   -1.244305
  C      1.816206   -0.906223   -1.710848
  H      1.229785    0.810359   -3.028974
  C     -0.250720   -1.898919   -1.761076
  H     -1.207663   -0.338617   -3.045548
  H      2.891951   -0.790643   -1.616665
  H      1.452892   -2.863603   -0.673876
  H     -1.058721   -2.605767   -1.595338
  C     -2.303430   -1.498822    1.218612
  H     -2.267553   -1.387011    2.328273
  H     -2.083171   -2.570931    1.064877
  H     -3.396321   -1.362862    0.962748
  C     -1.984748    1.673915   -0.681032
  H     -1.851497    0.483408    0.010383
  H     -1.228690    2.329465   -1.143768
  H     -2.557902    2.444502   -0.135513
  H     -2.589783    1.452892   -1.566671

 Total Charge           Charge          ....    0
 Multiplicity           Mult            ....    1
 Number of Electrons    NEL             ....  132
 Basis Dimension        Dim             ....  295

ORBITAL ENERGIES
----------------

  NO   OCC          E(Eh)            E(eV)
   0   2.0000     -19.274438      -524.4841
   1   2.0000     -12.646032      -344.1160
   2   2.0000     -12.644854      -344.0840
   3   2.0000     -12.644648      -344.0784
   4   2.0000     -10.480454      -285.1876
   5   2.0000     -10.452412      -284.4246
   6   2.0000     -10.451898      -284.4106
   7   2.0000     -10.451689      -284.4049
   8   2.0000     -10.451404      -284.3972
   9   2.0000     -10.450824      -284.3814
  10   2.0000     -10.448812      -284.3266
  11   2.0000     -10.448007      -284.3047
  12   2.0000     -10.446688      -284.2688
  13   2.0000     -10.446331      -284.2591
  14   2.0000     -10.445179      -284.2278
  15   2.0000     -10.387521      -282.6588
  16   2.0000      -5.915426      -160.9669
  17   2.0000      -5.915163      -160.9598
  18   2.0000      -5.915154      -160.9595
  19   2.0000      -5.914418      -160.9395
  20   2.0000      -5.914376      -160.9384
  21   2.0000      -2.457101       -66.8611
  22   2.0000      -1.295051       -35.2401
  23   2.0000      -1.289722       -35.0951
  24   2.0000      -1.284834       -34.9621
  25   2.0000      -0.971684       -26.4409
  26   2.0000      -0.964876       -26.2556
  27   2.0000      -0.808237       -21.9932
  28   2.0000      -0.790549       -21.5119
  29   2.0000      -0.789429       -21.4814
  30   2.0000      -0.788132       -21.4462
  31   2.0000      -0.785934       -21.3863
  32   2.0000      -0.687470       -18.7070
  33   2.0000      -0.613000       -16.6806
  34   2.0000      -0.609449       -16.5840
  35   2.0000      -0.608084       -16.5468
  36   2.0000      -0.606465       -16.5028
  37   2.0000      -0.592050       -16.1105
  38   2.0000      -0.587520       -15.9872
  39   2.0000      -0.583163       -15.8687
  40   2.0000      -0.581748       -15.8302
  41   2.0000      -0.581398       -15.8206
  42   2.0000      -0.581169       -15.8144
  43   2.0000      -0.580655       -15.8004
  44   2.0000      -0.579664       -15.7735
  45   2.0000      -0.578375       -15.7384
  46   2.0000      -0.500891       -13.6299
  47   2.0000      -0.476469       -12.9654
  48   2.0000      -0.473005       -12.8711
  49   2.0000      -0.452072       -12.3015
  50   2.0000      -0.450635       -12.2624
  51   2.0000      -0.448917       -12.2157
  52   2.0000      -0.447723       -12.1832
  53   2.0000      -0.446718       -12.1558
  54   2.0000      -0.431602       -11.7445
  55   2.0000      -0.430390       -11.7115
  56   2.0000      -0.428593       -11.6626
  57   2.0000      -0.427588       -11.6353
  58   2.0000      -0.424473       -11.5505
  59   2.0000      -0.382867       -10.4183
  60   2.0000      -0.376814       -10.2536
  61   2.0000      -0.291834        -7.9412
  62   2.0000      -0.280373        -7.6293
  63   2.0000      -0.276846        -7.5334
  64   2.0000      -0.262320        -7.1381
  65   2.0000      -0.231510        -6.2997
  66   0.0000      -0.026518        -0.7216
  67   0.0000       0.020869         0.5679
  68   0.0000       0.030868         0.8400
  69   0.0000       0.041168         1.1202
  70   0.0000       0.050317         1.3692

MULLIKEN ATOMIC CHARGES
-----------------------
   0 Lu:    0.658534
   1 C :   -0.302763
   2 C :   -0.266708
   3 C :   -0.302161
   4 C :   -0.281231
   5 C :   -0.275986
   6 H :    0.232688
   7 H :    0.236037
   8 H :    0.245142
   9 H :    0.246514
  10 H :    0.229863
  11 C :   -0.264683
  12 C :   -0.308381
  13 C :   -0.305521
  14 C :   -0.287289
  15 H :    0.233941
  16 C :   -0.249389
  17 H :    0.234642
  18 H :    0.227641
  19 H :    0.241302
  20 H :    0.254875
  21 C :   -0.921518
  22 H :    0.189241
  23 H :    0.192364
  24 H :    0.185121
  25 C :   -0.966922
  26 H :    0.281983
  27 H :    0.272423
  28 H :    0.283007
  29 H :    0.287231
Sum of atomic charges:   -0.0000000

LOEWDIN ATOMIC CHARGES
----------------------
   0 Lu:   -0.124022
   1 C :   -0.142177
   2 C :   -0.144085
   3 C :   -0.138157
   4 C :   -0.150314
   5 C :   -0.152512
   6 H :    0.150550
   7 H :    0.152527
   8 H :    0.160197
   9 H :    0.157644
  10 H :    0.152401
  11 C :   -0.149871
  12 C :   -0.153917
  13 C :   -0.150139
  14 C :   -0.132994
  15 H :    0.150120
  16 C :   -0.128793
  17 H :    0.152774
  18 H :    0.150946
  19 H :    0.156988
  20 H :    0.163233
  21 C :   -0.622472
  22 H :    0.112080
  23 H :    0.114855
  24 H :    0.112038
  25 C :   -0.457043
  26 H :    0.263186
  27 H :    0.178146
  28 H :    0.160689
  29 H :    0.158122

  Mayer bond orders larger than 0.100000
B(  0-Lu,  1-C ) :   0.2506 B(  0-Lu,  2-C ) :   0.2665 B(  0-Lu,  3-C ) :   0.2577
B(  0-Lu,  4-C ) :   0.2571 B(  0-Lu,  5-C ) :   0.2620 B(  0-Lu, 11-C ) :   0.2620
B(  0-Lu, 12-C ) :   0.2687 B(  0-Lu, 13-C ) :   0.2839 B(  0-Lu, 14-C ) :   0.2597
B(  0-Lu, 16-C ) :   0.2473 B(  0-Lu, 21-C ) :   0.6631 B(  0-Lu, 25-C ) :   0.3475
B(  0-Lu, 26-H ) :   0.2242 B(  1-C ,  2-C ) :   1.2904 B(  1-C ,  5-C ) :   1.2879
B(  1-C ,  8-H ) :   0.9175 B(  2-C ,  3-C ) :   1.2856 B(  2-C ,  9-H ) :   0.9104
B(  3-C ,  4-C ) :   1.2969 B(  3-C , 10-H ) :   0.9250 B(  4-C ,  5-C ) :   1.2817
B(  4-C ,  6-H ) :   0.9187 B(  5-C ,  7-H ) :   0.9122 B( 11-C , 12-C ) :   1.2667
B( 11-C , 14-C ) :   1.3109 B( 11-C , 15-H ) :   0.9154 B( 12-C , 16-C ) :   1.3000
B( 12-C , 17-H ) :   0.9147 B( 13-C , 14-C ) :   1.2729 B( 13-C , 16-C ) :   1.2852
B( 13-C , 19-H ) :   0.9169 B( 14-C , 18-H ) :   0.9265 B( 16-C , 20-H ) :   0.9089
B( 21-C , 22-H ) :   0.9233 B( 21-C , 23-H ) :   0.9204 B( 21-C , 24-H ) :   0.9291
B( 21-C , 26-H ) :   0.1238 B( 25-C , 26-H ) :   0.5722 B( 25-C , 27-H ) :   0.8512
B( 25-C , 28-H ) :   0.8921 B( 25-C , 29-H ) :   0.8826

Dispersion correction           -0.017369752
FINAL SINGLE POINT ENERGY     -1702.286850442772
Dispersion correction            ... done

DIPOLE MOMENT
-------------
                                X             Y             Z
Electronic contribution:     -8.75201       3.21372       1.10866
Nuclear contribution   :      9.01257      -2.13830      -1.76734
                        -----------------------------------------
Total Dipole Moment    :      0.26056       1.07542      -0.65869
                        -----------------------------------------
Magnitude (a.u.)       :      1.28774
Magnitude (Debye)      :      3.27319

Rotational constants in cm-1:     0.028086     0.019622     0.016781
Rotational constants in MHz :   841.989798   588.266185   503.067266

                             ****ORCA TERMINATED NORMALLY****
TOTAL RUN TIME: 0 days 0 hours 9 minutes 37 seconds 104 msec
