                         Program Version 5.0.3 -  RELEASE  -
|  1> ! EnGrad PBEh-3c
|  2> %output
|  3> xyzfile=True
|  4> end
|  5> %scf
|  6> maxiter 250
|  7> end
|  8> %output
|  9> Print[P_Hirshfeld] = 1
| 10> end
| 11> % maxcore
| 12> 4000
| 13> *xyz 0 1
| 14> Lu   0.00281737   0.04721991   0.00402256
| 15> C    0.40855104   0.88034647   2.49329742
| 16> C    1.40722564  -0.11570551   2.22750490
| 17> C    2.32166670   0.40778517   1.27450338
| 18> C    1.90258903   1.74014573   0.94571827
| 19> C    0.72990260   2.03364294   1.70396397
| 20> H    2.44921970   2.43706181   0.33548257
| 21> H    0.14543701   2.94373500   1.66636049
| 22> H   -0.36973646   0.81052235   3.21538666
| 23> H    1.46044743  -1.08280755   2.69858170
| 24> H    3.24906379  -0.05767623   0.98086642
| 25> C    0.98410602  -0.08739967  -2.51961551
| 26> C   -0.30660245  -0.68273406  -2.55552119
| 27> C    1.05293244  -1.99854410  -1.23582015
| 28> C    1.82386257  -0.90105214  -1.70157386
| 29> H    1.28692689   0.79127339  -3.06435310
| 30> C   -0.26795376  -1.86936111  -1.76594665
| 31> H   -1.17398441  -0.29638223  -3.07583882
| 32> H    2.89000612  -0.80766198  -1.60981145
| 33> H    1.42088934  -2.84036010  -0.66472255
| 34> H   -1.06895689  -2.55633749  -1.61211404
| 35> C   -2.36394317  -1.45922901   1.22323311
| 36> H   -2.24637990  -1.40325622   2.31871646
| 37> H   -2.05374497  -2.51060388   1.00843161
| 38> H   -3.45746681  -1.37175413   1.03208737
| 39> C   -1.96917572   1.58489163  -0.63423676
| 40> H   -1.87103652   0.40841445   0.01779210
| 41> H   -1.23954602   2.25294329  -1.10691303
| 42> H   -2.53063208   2.32137190  -0.04671944
| 43> H   -2.61211927   1.38563752  -1.49188938
| 44> *
| 45>
| 46>                          ****END OF INPUT****

CARTESIAN COORDINATES (ANGSTROEM)
---------------------------------
  Lu     0.002817    0.047220    0.004023
  C      0.408551    0.880346    2.493297
  C      1.407226   -0.115706    2.227505
  C      2.321667    0.407785    1.274503
  C      1.902589    1.740146    0.945718
  C      0.729903    2.033643    1.703964
  H      2.449220    2.437062    0.335483
  H      0.145437    2.943735    1.666360
  H     -0.369736    0.810522    3.215387
  H      1.460447   -1.082808    2.698582
  H      3.249064   -0.057676    0.980866
  C      0.984106   -0.087400   -2.519616
  C     -0.306602   -0.682734   -2.555521
  C      1.052932   -1.998544   -1.235820
  C      1.823863   -0.901052   -1.701574
  H      1.286927    0.791273   -3.064353
  C     -0.267954   -1.869361   -1.765947
  H     -1.173984   -0.296382   -3.075839
  H      2.890006   -0.807662   -1.609811
  H      1.420889   -2.840360   -0.664723
  H     -1.068957   -2.556337   -1.612114
  C     -2.363943   -1.459229    1.223233
  H     -2.246380   -1.403256    2.318716
  H     -2.053745   -2.510604    1.008432
  H     -3.457467   -1.371754    1.032087
  C     -1.969176    1.584892   -0.634237
  H     -1.871037    0.408414    0.017792
  H     -1.239546    2.252943   -1.106913
  H     -2.530632    2.321372   -0.046719
  H     -2.612119    1.385638   -1.491889

 Total Charge           Charge          ....    0
 Multiplicity           Mult            ....    1
 Number of Electrons    NEL             ....  132
 Basis Dimension        Dim             ....  295

ORBITAL ENERGIES
----------------

  NO   OCC          E(Eh)            E(eV)
   0   2.0000     -19.271357      -524.4003
   1   2.0000     -12.642811      -344.0284
   2   2.0000     -12.641757      -343.9997
   3   2.0000     -12.641695      -343.9980
   4   2.0000     -10.465950      -284.7930
   5   2.0000     -10.454207      -284.4734
   6   2.0000     -10.452697      -284.4323
   7   2.0000     -10.452360      -284.4232
   8   2.0000     -10.452173      -284.4181
   9   2.0000     -10.451459      -284.3987
  10   2.0000     -10.451223      -284.3922
  11   2.0000     -10.449185      -284.3368
  12   2.0000     -10.448081      -284.3067
  13   2.0000     -10.447648      -284.2949
  14   2.0000     -10.446296      -284.2582
  15   2.0000     -10.385917      -282.6152
  16   2.0000      -5.912204      -160.8793
  17   2.0000      -5.912069      -160.8756
  18   2.0000      -5.911988      -160.8734
  19   2.0000      -5.911374      -160.8567
  20   2.0000      -5.911364      -160.8564
  21   2.0000      -2.454158       -66.7810
  22   2.0000      -1.291595       -35.1461
  23   2.0000      -1.287830       -35.0436
  24   2.0000      -1.283122       -34.9155
  25   2.0000      -0.970564       -26.4104
  26   2.0000      -0.962907       -26.2020
  27   2.0000      -0.805471       -21.9180
  28   2.0000      -0.792784       -21.5728
  29   2.0000      -0.791345       -21.5336
  30   2.0000      -0.789860       -21.4932
  31   2.0000      -0.787096       -21.4180
  32   2.0000      -0.688370       -18.7315
  33   2.0000      -0.615751       -16.7554
  34   2.0000      -0.613883       -16.7046
  35   2.0000      -0.612003       -16.6535
  36   2.0000      -0.610328       -16.6079
  37   2.0000      -0.594965       -16.1898
  38   2.0000      -0.590601       -16.0711
  39   2.0000      -0.579949       -15.7812
  40   2.0000      -0.578588       -15.7442
  41   2.0000      -0.578373       -15.7383
  42   2.0000      -0.578047       -15.7294
  43   2.0000      -0.577688       -15.7197
  44   2.0000      -0.577223       -15.7070
  45   2.0000      -0.575960       -15.6727
  46   2.0000      -0.499803       -13.6003
  47   2.0000      -0.473570       -12.8865
  48   2.0000      -0.469690       -12.7809
  49   2.0000      -0.454456       -12.3664
  50   2.0000      -0.452963       -12.3257
  51   2.0000      -0.452032       -12.3004
  52   2.0000      -0.451391       -12.2830
  53   2.0000      -0.444625       -12.0989
  54   2.0000      -0.433202       -11.7880
  55   2.0000      -0.432791       -11.7768
  56   2.0000      -0.430826       -11.7234
  57   2.0000      -0.428811       -11.6685
  58   2.0000      -0.423679       -11.5289
  59   2.0000      -0.388531       -10.5725
  60   2.0000      -0.376246       -10.2382
  61   2.0000      -0.292216        -7.9516
  62   2.0000      -0.282592        -7.6897
  63   2.0000      -0.278634        -7.5820
  64   2.0000      -0.263506        -7.1704
  65   2.0000      -0.225520        -6.1367
  66   0.0000      -0.023483        -0.6390
  67   0.0000       0.018682         0.5084
  68   0.0000       0.033608         0.9145
  69   0.0000       0.046155         1.2559
  70   0.0000       0.053066         1.4440

MULLIKEN ATOMIC CHARGES
-----------------------
   0 Lu:    0.648236
   1 C :   -0.298082
   2 C :   -0.281859
   3 C :   -0.284578
   4 C :   -0.300305
   5 C :   -0.259760
   6 H :    0.233158
   7 H :    0.237073
   8 H :    0.247280
   9 H :    0.247809
  10 H :    0.232110
  11 C :   -0.280475
  12 C :   -0.280627
  13 C :   -0.306584
  14 C :   -0.280294
  15 H :    0.234594
  16 C :   -0.262214
  17 H :    0.235848
  18 H :    0.229417
  19 H :    0.242991
  20 H :    0.256082
  21 C :   -0.922538
  22 H :    0.191684
  23 H :    0.184497
  24 H :    0.191311
  25 C :   -1.006946
  26 H :    0.304967
  27 H :    0.272006
  28 H :    0.286464
  29 H :    0.288738
Sum of atomic charges:   -0.0000000

LOEWDIN ATOMIC CHARGES
----------------------
   0 Lu:   -0.137088
   1 C :   -0.139020
   2 C :   -0.143273
   3 C :   -0.133437
   4 C :   -0.151349
   5 C :   -0.143506
   6 H :    0.151719
   7 H :    0.151918
   8 H :    0.159818
   9 H :    0.157892
  10 H :    0.152611
  11 C :   -0.149485
  12 C :   -0.143373
  13 C :   -0.147587
  14 C :   -0.130738
  15 H :    0.150969
  16 C :   -0.130121
  17 H :    0.152679
  18 H :    0.151534
  19 H :    0.157337
  20 H :    0.162863
  21 C :   -0.632314
  22 H :    0.111557
  23 H :    0.112261
  24 H :    0.114326
  25 C :   -0.477546
  26 H :    0.271927
  27 H :    0.180941
  28 H :    0.160215
  29 H :    0.158269

  Mayer bond orders larger than 0.100000
B(  0-Lu,  1-C ) :   0.2544 B(  0-Lu,  2-C ) :   0.2749 B(  0-Lu,  3-C ) :   0.2633
B(  0-Lu,  4-C ) :   0.2665 B(  0-Lu,  5-C ) :   0.2544 B(  0-Lu, 11-C ) :   0.2665
B(  0-Lu, 12-C ) :   0.2601 B(  0-Lu, 13-C ) :   0.2919 B(  0-Lu, 14-C ) :   0.2680
B(  0-Lu, 16-C ) :   0.2557 B(  0-Lu, 21-C ) :   0.6247 B(  0-Lu, 25-C ) :   0.3707
B(  0-Lu, 26-H ) :   0.2206 B(  1-C ,  2-C ) :   1.2788 B(  1-C ,  5-C ) :   1.2940
B(  1-C ,  8-H ) :   0.9182 B(  2-C ,  3-C ) :   1.2907 B(  2-C ,  9-H ) :   0.9117
B(  3-C ,  4-C ) :   1.2833 B(  3-C , 10-H ) :   0.9245 B(  4-C ,  5-C ) :   1.2839
B(  4-C ,  6-H ) :   0.9228 B(  5-C ,  7-H ) :   0.9123 B( 11-C , 12-C ) :   1.2761
B( 11-C , 14-C ) :   1.2974 B( 11-C , 15-H ) :   0.9186 B( 12-C , 16-C ) :   1.3009
B( 12-C , 17-H ) :   0.9138 B( 13-C , 14-C ) :   1.2747 B( 13-C , 16-C ) :   1.2743
B( 13-C , 19-H ) :   0.9167 B( 14-C , 18-H ) :   0.9273 B( 16-C , 20-H ) :   0.9100
B( 21-C , 22-H ) :   0.9236 B( 21-C , 23-H ) :   0.9237 B( 21-C , 24-H ) :   0.9283
B( 21-C , 26-H ) :   0.1544 B( 25-C , 26-H ) :   0.5384 B( 25-C , 27-H ) :   0.8438
B( 25-C , 28-H ) :   0.8900 B( 25-C , 29-H ) :   0.8828

Dispersion correction           -0.017525756
FINAL SINGLE POINT ENERGY     -1702.292968071507
Dispersion correction            ... done

DIPOLE MOMENT
-------------
                                X             Y             Z
Electronic contribution:     -6.80551       3.92154       0.20156
Nuclear contribution   :      7.22382      -2.94225      -0.83046
                        -----------------------------------------
Total Dipole Moment    :      0.41830       0.97929      -0.62890
                        -----------------------------------------
Magnitude (a.u.)       :      1.23673
Magnitude (Debye)      :      3.14353

Rotational constants in cm-1:     0.028355     0.019915     0.016816
Rotational constants in MHz :   850.072090   597.024260   504.130892

                             ****ORCA TERMINATED NORMALLY****
TOTAL RUN TIME: 0 days 0 hours 10 minutes 15 seconds 321 msec
