                         Program Version 5.0.3 -  RELEASE  -
|  1> ! EnGrad PBEh-3c
|  2> %output
|  3> xyzfile=True
|  4> end
|  5> %scf
|  6> maxiter 250
|  7> end
|  8> %output
|  9> Print[P_Hirshfeld] = 1
| 10> end
| 11> % maxcore
| 12> 4000
| 13> *xyz 0 1
| 14> Lu   0.10175062   0.06080313  -0.01988816
| 15> C    0.40713087   0.92769047   2.42965434
| 16> C    1.34593173  -0.09026209   2.18880609
| 17> C    2.30057424   0.41569579   1.27264347
| 18> C    1.90648506   1.72784632   0.91308000
| 19> C    0.74847903   2.04990973   1.66350788
| 20> H    2.53590371   2.42226048   0.36392042
| 21> H    0.21646311   2.99124320   1.62037452
| 22> H   -0.41581554   0.87821229   3.14849397
| 23> H    1.39360568  -1.04569425   2.68700494
| 24> H    3.20426385  -0.08403619   1.00016373
| 25> C    1.01087281  -0.06427106  -2.50958487
| 26> C   -0.27722962  -0.65068362  -2.57637460
| 27> C    1.02169822  -1.95860220  -1.22765065
| 28> C    1.81932587  -0.88888672  -1.69921714
| 29> H    1.37207470   0.75985487  -3.11553361
| 30> C   -0.26596271  -1.79660295  -1.77192234
| 31> H   -1.11997118  -0.23658519  -3.11684642
| 32> H    2.88485621  -0.82633870  -1.59296993
| 33> H    1.37389624  -2.79875446  -0.65275332
| 34> H   -1.09572478  -2.49143870  -1.63174529
| 35> C   -2.42672695  -1.39067065   1.21891134
| 36> H   -2.21345258  -1.40158847   2.29004158
| 37> H   -2.00659921  -2.36677788   0.90380439
| 38> H   -3.54111556  -1.37616999   1.12658181
| 39> C   -1.95383921   1.43425897  -0.56040810
| 40> H   -1.96708967   0.29870781   0.04193324
| 41> H   -1.22752612   2.12445985  -1.04806785
| 42> H   -2.47730638   2.10983952   0.09788826
| 43> H   -2.64151157   1.27150159  -1.37583176
| 44> *
| 45>
| 46>                          ****END OF INPUT****

CARTESIAN COORDINATES (ANGSTROEM)
---------------------------------
  Lu     0.101751    0.060803   -0.019888
  C      0.407131    0.927690    2.429654
  C      1.345932   -0.090262    2.188806
  C      2.300574    0.415696    1.272643
  C      1.906485    1.727846    0.913080
  C      0.748479    2.049910    1.663508
  H      2.535904    2.422260    0.363920
  H      0.216463    2.991243    1.620375
  H     -0.415816    0.878212    3.148494
  H      1.393606   -1.045694    2.687005
  H      3.204264   -0.084036    1.000164
  C      1.010873   -0.064271   -2.509585
  C     -0.277230   -0.650684   -2.576375
  C      1.021698   -1.958602   -1.227651
  C      1.819326   -0.888887   -1.699217
  H      1.372075    0.759855   -3.115534
  C     -0.265963   -1.796603   -1.771922
  H     -1.119971   -0.236585   -3.116846
  H      2.884856   -0.826339   -1.592970
  H      1.373896   -2.798754   -0.652753
  H     -1.095725   -2.491439   -1.631745
  C     -2.426727   -1.390671    1.218911
  H     -2.213453   -1.401588    2.290042
  H     -2.006599   -2.366778    0.903804
  H     -3.541116   -1.376170    1.126582
  C     -1.953839    1.434259   -0.560408
  H     -1.967090    0.298708    0.041933
  H     -1.227526    2.124460   -1.048068
  H     -2.477306    2.109840    0.097888
  H     -2.641512    1.271502   -1.375832

 Total Charge           Charge          ....    0
 Multiplicity           Mult            ....    1
 Number of Electrons    NEL             ....  132
 Basis Dimension        Dim             ....  295

ORBITAL ENERGIES
----------------

  NO   OCC          E(Eh)            E(eV)
   0   2.0000     -19.266689      -524.2733
   1   2.0000     -12.638042      -343.8986
   2   2.0000     -12.637133      -343.8739
   3   2.0000     -12.637022      -343.8709
   4   2.0000     -10.453020      -284.4411
   5   2.0000     -10.452376      -284.4236
   6   2.0000     -10.452269      -284.4207
   7   2.0000     -10.451759      -284.4068
   8   2.0000     -10.451337      -284.3953
   9   2.0000     -10.451296      -284.3942
  10   2.0000     -10.449013      -284.3321
  11   2.0000     -10.447655      -284.2952
  12   2.0000     -10.447532      -284.2918
  13   2.0000     -10.446809      -284.2721
  14   2.0000     -10.442230      -284.1475
  15   2.0000     -10.375735      -282.3381
  16   2.0000      -5.907410      -160.7488
  17   2.0000      -5.907344      -160.7470
  18   2.0000      -5.907317      -160.7463
  19   2.0000      -5.906723      -160.7301
  20   2.0000      -5.906608      -160.7270
  21   2.0000      -2.449810       -66.6627
  22   2.0000      -1.287311       -35.0295
  23   2.0000      -1.285973       -34.9931
  24   2.0000      -1.280484       -34.8437
  25   2.0000      -0.985139       -26.8070
  26   2.0000      -0.976298       -26.5664
  27   2.0000      -0.799986       -21.7687
  28   2.0000      -0.798475       -21.7276
  29   2.0000      -0.796822       -21.6826
  30   2.0000      -0.796516       -21.6743
  31   2.0000      -0.795344       -21.6424
  32   2.0000      -0.683731       -18.6053
  33   2.0000      -0.620106       -16.8739
  34   2.0000      -0.616180       -16.7671
  35   2.0000      -0.614394       -16.7185
  36   2.0000      -0.613084       -16.6829
  37   2.0000      -0.600050       -16.3282
  38   2.0000      -0.595708       -16.2100
  39   2.0000      -0.574981       -15.6460
  40   2.0000      -0.574036       -15.6203
  41   2.0000      -0.573398       -15.6029
  42   2.0000      -0.573166       -15.5966
  43   2.0000      -0.573015       -15.5925
  44   2.0000      -0.572955       -15.5909
  45   2.0000      -0.571556       -15.5528
  46   2.0000      -0.494307       -13.4508
  47   2.0000      -0.476301       -12.9608
  48   2.0000      -0.465224       -12.6594
  49   2.0000      -0.458226       -12.4690
  50   2.0000      -0.456090       -12.4108
  51   2.0000      -0.455343       -12.3905
  52   2.0000      -0.455080       -12.3834
  53   2.0000      -0.440715       -11.9925
  54   2.0000      -0.437684       -11.9100
  55   2.0000      -0.437593       -11.9075
  56   2.0000      -0.432314       -11.7639
  57   2.0000      -0.432032       -11.7562
  58   2.0000      -0.430893       -11.7252
  59   2.0000      -0.388652       -10.5757
  60   2.0000      -0.369921       -10.0661
  61   2.0000      -0.296409        -8.0657
  62   2.0000      -0.290816        -7.9135
  63   2.0000      -0.284480        -7.7411
  64   2.0000      -0.273176        -7.4335
  65   2.0000      -0.211640        -5.7590
  66   0.0000      -0.023335        -0.6350
  67   0.0000       0.014628         0.3980
  68   0.0000       0.035732         0.9723
  69   0.0000       0.051377         1.3980
  70   0.0000       0.056280         1.5315

MULLIKEN ATOMIC CHARGES
-----------------------
   0 Lu:    0.660613
   1 C :   -0.267162
   2 C :   -0.318774
   3 C :   -0.254129
   4 C :   -0.333357
   5 C :   -0.236540
   6 H :    0.231487
   7 H :    0.239507
   8 H :    0.251216
   9 H :    0.251022
  10 H :    0.238109
  11 C :   -0.312877
  12 C :   -0.228889
  13 C :   -0.313120
  14 C :   -0.269009
  15 H :    0.233065
  16 C :   -0.274235
  17 H :    0.237951
  18 H :    0.234089
  19 H :    0.248024
  20 H :    0.256896
  21 C :   -0.950382
  22 H :    0.190167
  23 H :    0.179986
  24 H :    0.188401
  25 C :   -1.071765
  26 H :    0.342680
  27 H :    0.261310
  28 H :    0.294446
  29 H :    0.291269
Sum of atomic charges:    0.0000000

LOEWDIN ATOMIC CHARGES
----------------------
   0 Lu:   -0.136708
   1 C :   -0.124063
   2 C :   -0.146310
   3 C :   -0.125591
   4 C :   -0.148984
   5 C :   -0.134255
   6 H :    0.154667
   7 H :    0.153655
   8 H :    0.163390
   9 H :    0.161573
  10 H :    0.154069
  11 C :   -0.147578
  12 C :   -0.128472
  13 C :   -0.149002
  14 C :   -0.125423
  15 H :    0.153215
  16 C :   -0.125319
  17 H :    0.154094
  18 H :    0.153462
  19 H :    0.160478
  20 H :    0.165360
  21 C :   -0.678600
  22 H :    0.108527
  23 H :    0.108909
  24 H :    0.114726
  25 C :   -0.520725
  26 H :    0.284149
  27 H :    0.185254
  28 H :    0.158270
  29 H :    0.157232

  Mayer bond orders larger than 0.100000
B(  0-Lu,  1-C ) :   0.2467 B(  0-Lu,  2-C ) :   0.2972 B(  0-Lu,  3-C ) :   0.2806
B(  0-Lu,  4-C ) :   0.2874 B(  0-Lu,  5-C ) :   0.2467 B(  0-Lu, 11-C ) :   0.2774
B(  0-Lu, 12-C ) :   0.2474 B(  0-Lu, 13-C ) :   0.3119 B(  0-Lu, 14-C ) :   0.2859
B(  0-Lu, 16-C ) :   0.2570 B(  0-Lu, 21-C ) :   0.5530 B(  0-Lu, 25-C ) :   0.3839
B(  0-Lu, 26-H ) :   0.1829 B(  1-C ,  2-C ) :   1.2754 B(  1-C ,  5-C ) :   1.3135
B(  1-C ,  8-H ) :   0.9139 B(  2-C ,  3-C ) :   1.2734 B(  2-C ,  9-H ) :   0.9131
B(  3-C ,  4-C ) :   1.2789 B(  3-C , 10-H ) :   0.9204 B(  4-C ,  5-C ) :   1.2690
B(  4-C ,  6-H ) :   0.9282 B(  5-C ,  7-H ) :   0.9137 B( 11-C , 12-C ) :   1.2727
B( 11-C , 14-C ) :   1.2930 B( 11-C , 15-H ) :   0.9240 B( 12-C , 16-C ) :   1.3163
B( 12-C , 17-H ) :   0.9129 B( 13-C , 14-C ) :   1.2600 B( 13-C , 16-C ) :   1.2646
B( 13-C , 19-H ) :   0.9146 B( 14-C , 18-H ) :   0.9250 B( 16-C , 20-H ) :   0.9098
B( 21-C , 22-H ) :   0.9261 B( 21-C , 23-H ) :   0.9237 B( 21-C , 24-H ) :   0.9310
B( 21-C , 26-H ) :   0.1986 B( 25-C , 26-H ) :   0.5154 B( 25-C , 27-H ) :   0.8349
B( 25-C , 28-H ) :   0.8832 B( 25-C , 29-H ) :   0.8825

Dispersion correction           -0.017833171
FINAL SINGLE POINT ENERGY     -1702.306106367777
Dispersion correction            ... done

DIPOLE MOMENT
-------------
                                X             Y             Z
Electronic contribution:     -1.40626       4.24315      -0.83224
Nuclear contribution   :      2.20735      -3.38142       0.21909
                        -----------------------------------------
Total Dipole Moment    :      0.80110       0.86173      -0.61315
                        -----------------------------------------
Magnitude (a.u.)       :      1.32676
Magnitude (Debye)      :      3.37236

Rotational constants in cm-1:     0.029272     0.020601     0.017035
Rotational constants in MHz :   877.541843   617.616846   510.689762

                             ****ORCA TERMINATED NORMALLY****
TOTAL RUN TIME: 0 days 0 hours 10 minutes 15 seconds 732 msec
