                         Program Version 5.0.3 -  RELEASE  -
|  1> ! EnGrad PBEh-3c
|  2> %output
|  3> xyzfile=True
|  4> end
|  5> %scf
|  6> maxiter 250
|  7> end
|  8> %output
|  9> Print[P_Hirshfeld] = 1
| 10> end
| 11> % maxcore
| 12> 4000
| 13> *xyz 0 1
| 14> Lu   0.03360742   0.05144728  -0.00341894
| 15> C    0.40810905   0.89508089   2.47349040
| 16> C    1.38814973  -0.10778700   2.21546104
| 17> C    2.31510230   0.41024712   1.27392454
| 18> C    1.90380155   1.73631790   0.93556057
| 19> C    0.73568396   2.03870550   1.69137321
| 20> H    2.47619753   2.43245533   0.34433301
| 21> H    0.16754178   2.95852052   1.65204872
| 22> H   -0.38407721   0.83158884   3.19456829
| 23> H    1.43964492  -1.07125713   2.69497878
| 24> H    3.23512114  -0.06587999   0.98687214
| 25> C    0.99243639  -0.08020158  -2.51649377
| 26> C   -0.29746103  -0.67275931  -2.56201120
| 27> C    1.04321172  -1.98611336  -1.23327764
| 28> C    1.82245066  -0.89726602  -1.70084040
| 29> H    1.31342662   0.78149531  -3.08028152
| 30> C   -0.26733410  -1.84671729  -1.76780641
| 31> H   -1.15717439  -0.27777217  -3.08860122
| 32> H    2.88840336  -0.81347456  -1.60457003
| 33> H    1.40626413  -2.82741158  -0.66099748
| 34> H   -1.07728761  -2.53613966  -1.61822368
| 35> C   -2.38348276  -1.43789225   1.22188809
| 36> H   -2.23613225  -1.40273718   2.30979225
| 37> H   -2.03907225  -2.46584230   0.97586948
| 38> H   -3.48350001  -1.37312844   1.06149596
| 39> C   -1.96440269   1.53801168  -0.61125977
| 40> H   -1.90093022   0.37427151   0.02530531
| 41> H   -1.23580518   2.21295663  -1.08859921
| 42> H   -2.51403603   2.25553871  -0.00171458
| 43> H   -2.62126675   1.35011609  -1.45576988
| 44> *
| 45>
| 46>                          ****END OF INPUT****

CARTESIAN COORDINATES (ANGSTROEM)
---------------------------------
  Lu     0.033607    0.051447   -0.003419
  C      0.408109    0.895081    2.473490
  C      1.388150   -0.107787    2.215461
  C      2.315102    0.410247    1.273925
  C      1.903802    1.736318    0.935561
  C      0.735684    2.038705    1.691373
  H      2.476198    2.432455    0.344333
  H      0.167542    2.958521    1.652049
  H     -0.384077    0.831589    3.194568
  H      1.439645   -1.071257    2.694979
  H      3.235121   -0.065880    0.986872
  C      0.992436   -0.080202   -2.516494
  C     -0.297461   -0.672759   -2.562011
  C      1.043212   -1.986113   -1.233278
  C      1.822451   -0.897266   -1.700840
  H      1.313427    0.781495   -3.080282
  C     -0.267334   -1.846717   -1.767806
  H     -1.157174   -0.277772   -3.088601
  H      2.888403   -0.813475   -1.604570
  H      1.406264   -2.827412   -0.660997
  H     -1.077288   -2.536140   -1.618224
  C     -2.383483   -1.437892    1.221888
  H     -2.236132   -1.402737    2.309792
  H     -2.039072   -2.465842    0.975869
  H     -3.483500   -1.373128    1.061496
  C     -1.964403    1.538012   -0.611260
  H     -1.900930    0.374272    0.025305
  H     -1.235805    2.212957   -1.088599
  H     -2.514036    2.255539   -0.001715
  H     -2.621267    1.350116   -1.455770

 Total Charge           Charge          ....    0
 Multiplicity           Mult            ....    1
 Number of Electrons    NEL             ....  132
 Basis Dimension        Dim             ....  295

ORBITAL ENERGIES
----------------

  NO   OCC          E(Eh)            E(eV)
   0   2.0000     -19.269649      -524.3538
   1   2.0000     -12.641057      -343.9807
   2   2.0000     -12.640052      -343.9533
   3   2.0000     -12.640022      -343.9525
   4   2.0000     -10.458124      -284.5800
   5   2.0000     -10.453670      -284.4588
   6   2.0000     -10.452380      -284.4237
   7   2.0000     -10.452159      -284.4177
   8   2.0000     -10.451780      -284.4074
   9   2.0000     -10.451375      -284.3964
  10   2.0000     -10.451150      -284.3903
  11   2.0000     -10.448644      -284.3221
  12   2.0000     -10.447858      -284.3007
  13   2.0000     -10.447644      -284.2948
  14   2.0000     -10.446524      -284.2644
  15   2.0000     -10.382747      -282.5289
  16   2.0000      -5.910440      -160.8313
  17   2.0000      -5.910367      -160.8293
  18   2.0000      -5.910269      -160.8266
  19   2.0000      -5.909687      -160.8107
  20   2.0000      -5.909650      -160.8097
  21   2.0000      -2.452528       -66.7367
  22   2.0000      -1.289374       -35.0856
  23   2.0000      -1.287332       -35.0301
  24   2.0000      -1.282038       -34.8860
  25   2.0000      -0.974925       -26.5291
  26   2.0000      -0.967140       -26.3172
  27   2.0000      -0.802846       -21.8466
  28   2.0000      -0.794704       -21.6250
  29   2.0000      -0.793378       -21.5889
  30   2.0000      -0.791954       -21.5502
  31   2.0000      -0.789659       -21.4877
  32   2.0000      -0.687759       -18.7149
  33   2.0000      -0.617009       -16.7897
  34   2.0000      -0.614352       -16.7174
  35   2.0000      -0.612597       -16.6696
  36   2.0000      -0.611202       -16.6316
  37   2.0000      -0.596598       -16.2343
  38   2.0000      -0.592260       -16.1162
  39   2.0000      -0.578092       -15.7307
  40   2.0000      -0.576897       -15.6982
  41   2.0000      -0.576608       -15.6903
  42   2.0000      -0.576267       -15.6810
  43   2.0000      -0.576006       -15.6739
  44   2.0000      -0.575719       -15.6661
  45   2.0000      -0.574390       -15.6299
  46   2.0000      -0.497813       -13.5462
  47   2.0000      -0.473287       -12.8788
  48   2.0000      -0.468196       -12.7403
  49   2.0000      -0.455407       -12.3923
  50   2.0000      -0.453972       -12.3532
  51   2.0000      -0.452971       -12.3260
  52   2.0000      -0.452567       -12.3150
  53   2.0000      -0.443657       -12.0725
  54   2.0000      -0.434561       -11.8250
  55   2.0000      -0.433492       -11.7959
  56   2.0000      -0.431922       -11.7532
  57   2.0000      -0.431311       -11.7366
  58   2.0000      -0.426076       -11.5941
  59   2.0000      -0.389016       -10.5857
  60   2.0000      -0.375242       -10.2108
  61   2.0000      -0.293383        -7.9834
  62   2.0000      -0.284991        -7.7550
  63   2.0000      -0.280477        -7.6322
  64   2.0000      -0.266412        -7.2494
  65   2.0000      -0.221537        -6.0283
  66   0.0000      -0.022334        -0.6077
  67   0.0000       0.017679         0.4811
  68   0.0000       0.034596         0.9414
  69   0.0000       0.050094         1.3631
  70   0.0000       0.054302         1.4776

MULLIKEN ATOMIC CHARGES
-----------------------
   0 Lu:    0.649040
   1 C :   -0.288699
   2 C :   -0.293239
   3 C :   -0.274814
   4 C :   -0.310582
   5 C :   -0.252207
   6 H :    0.232649
   7 H :    0.237727
   8 H :    0.248499
   9 H :    0.248667
  10 H :    0.233879
  11 C :   -0.290607
  12 C :   -0.264330
  13 C :   -0.308807
  14 C :   -0.276385
  15 H :    0.234209
  16 C :   -0.265664
  17 H :    0.236340
  18 H :    0.230719
  19 H :    0.244408
  20 H :    0.256197
  21 C :   -0.930448
  22 H :    0.191662
  23 H :    0.183960
  24 H :    0.190765
  25 C :   -1.028413
  26 H :    0.318848
  27 H :    0.268519
  28 H :    0.288670
  29 H :    0.289437
Sum of atomic charges:   -0.0000000

LOEWDIN ATOMIC CHARGES
----------------------
   0 Lu:   -0.138581
   1 C :   -0.134401
   2 C :   -0.144285
   3 C :   -0.130964
   4 C :   -0.150529
   5 C :   -0.140565
   6 H :    0.152546
   7 H :    0.152399
   8 H :    0.160952
   9 H :    0.158945
  10 H :    0.153007
  11 C :   -0.148877
  12 C :   -0.138701
  13 C :   -0.148115
  14 C :   -0.128985
  15 H :    0.151598
  16 C :   -0.128637
  17 H :    0.153077
  18 H :    0.152075
  19 H :    0.158226
  20 H :    0.163634
  21 C :   -0.645053
  22 H :    0.110770
  23 H :    0.111379
  24 H :    0.114488
  25 C :   -0.491668
  26 H :    0.276800
  27 H :    0.182386
  28 H :    0.159309
  29 H :    0.157771

  Mayer bond orders larger than 0.100000
B(  0-Lu,  1-C ) :   0.2521 B(  0-Lu,  2-C ) :   0.2821 B(  0-Lu,  3-C ) :   0.2689
B(  0-Lu,  4-C ) :   0.2729 B(  0-Lu,  5-C ) :   0.2521 B(  0-Lu, 11-C ) :   0.2699
B(  0-Lu, 12-C ) :   0.2561 B(  0-Lu, 13-C ) :   0.2985 B(  0-Lu, 14-C ) :   0.2738
B(  0-Lu, 16-C ) :   0.2562 B(  0-Lu, 21-C ) :   0.6045 B(  0-Lu, 25-C ) :   0.3755
B(  0-Lu, 26-H ) :   0.2102 B(  1-C ,  2-C ) :   1.2780 B(  1-C ,  5-C ) :   1.3000
B(  1-C ,  8-H ) :   0.9168 B(  2-C ,  3-C ) :   1.2854 B(  2-C ,  9-H ) :   0.9122
B(  3-C ,  4-C ) :   1.2824 B(  3-C , 10-H ) :   0.9233 B(  4-C ,  5-C ) :   1.2795
B(  4-C ,  6-H ) :   0.9246 B(  5-C ,  7-H ) :   0.9129 B( 11-C , 12-C ) :   1.2756
B( 11-C , 14-C ) :   1.2962 B( 11-C , 15-H ) :   0.9203 B( 12-C , 16-C ) :   1.3059
B( 12-C , 17-H ) :   0.9136 B( 13-C , 14-C ) :   1.2700 B( 13-C , 16-C ) :   1.2711
B( 13-C , 19-H ) :   0.9162 B( 14-C , 18-H ) :   0.9267 B( 16-C , 20-H ) :   0.9101
B( 21-C , 22-H ) :   0.9244 B( 21-C , 23-H ) :   0.9238 B( 21-C , 24-H ) :   0.9293
B( 21-C , 26-H ) :   0.1678 B( 25-C , 26-H ) :   0.5297 B( 25-C , 27-H ) :   0.8420
B( 25-C , 28-H ) :   0.8880 B( 25-C , 29-H ) :   0.8828

Dispersion correction           -0.017621510
FINAL SINGLE POINT ENERGY     -1702.300974723164
Dispersion correction            ... done

DIPOLE MOMENT
-------------
                                X             Y             Z
Electronic contribution:     -5.13063       4.01461      -0.11429
Nuclear contribution   :      5.66259      -3.07893      -0.50382
                        -----------------------------------------
Total Dipole Moment    :      0.53197       0.93568      -0.61811
                        -----------------------------------------
Magnitude (a.u.)       :      1.24119
Magnitude (Debye)      :      3.15486

Rotational constants in cm-1:     0.028654     0.020126     0.016889
Rotational constants in MHz :   859.014011   603.356533   506.326818

                             ****ORCA TERMINATED NORMALLY****
TOTAL RUN TIME: 0 days 0 hours 10 minutes 9 seconds 589 msec
