                         Program Version 5.0.3 -  RELEASE  -
|  1> ! EnGrad PBEh-3c
|  2> %output
|  3> xyzfile=True
|  4> end
|  5> %scf
|  6> maxiter 250
|  7> end
|  8> %output
|  9> Print[P_Hirshfeld] = 1
| 10> end
| 11> % maxcore
| 12> 4000
| 13> *xyz 0 1
| 14> Lu   0.48896061   0.38770891  -0.26558033
| 15> C    0.47352925   1.01364379   2.50800988
| 16> C    1.36504914  -0.04162190   2.19555378
| 17> C    2.31922295   0.44180777   1.27602687
| 18> C    1.98481969   1.79310106   1.00708233
| 19> C    0.74647871   2.08250080   1.63267753
| 20> H    2.53711900   2.45944762   0.35824104
| 21> H    0.21714895   3.02502505   1.61462749
| 22> H   -0.31469274   0.98696465   3.25048347
| 23> H    1.36452559  -1.02021008   2.65949595
| 24> H    3.20195409  -0.07935402   0.93257088
| 25> C    1.04229262  -0.10225732  -2.60722968
| 26> C   -0.27292039  -0.62105231  -2.58604712
| 27> C    1.03404648  -1.94279336  -1.26655297
| 28> C    1.84775304  -0.89364498  -1.75304861
| 29> H    1.34886380   0.79012555  -3.13486579
| 30> C   -0.20312021  -1.87683178  -1.95274316
| 31> H   -1.11430293  -0.26720575  -3.16322569
| 32> H    2.90143426  -0.76105680  -1.55409793
| 33> H    1.35021736  -2.76307086  -0.63528515
| 34> H   -1.01676382  -2.58851487  -1.87943057
| 35> C   -2.70627833  -1.71093431   1.47356070
| 36> H   -2.46055906  -1.51877971   2.51921312
| 37> H   -2.80745728  -2.73585046   1.13105423
| 38> H   -3.32186768  -0.96670818   0.94138065
| 39> C   -1.94446735   1.73925332  -0.71240344
| 40> H   -1.44208172  -0.81558312   0.65075696
| 41> H   -1.45208704   2.52133707  -1.29842787
| 42> H   -2.54454633   2.25762148   0.03802725
| 43> H   -2.62228066   1.20693578  -1.37982359
| 44> *
| 45>
| 46>                          ****END OF INPUT****

CARTESIAN COORDINATES (ANGSTROEM)
---------------------------------
  Lu     0.488961    0.387709   -0.265580
  C      0.473529    1.013644    2.508010
  C      1.365049   -0.041622    2.195554
  C      2.319223    0.441808    1.276027
  C      1.984820    1.793101    1.007082
  C      0.746479    2.082501    1.632678
  H      2.537119    2.459448    0.358241
  H      0.217149    3.025025    1.614627
  H     -0.314693    0.986965    3.250483
  H      1.364526   -1.020210    2.659496
  H      3.201954   -0.079354    0.932571
  C      1.042293   -0.102257   -2.607230
  C     -0.272920   -0.621052   -2.586047
  C      1.034046   -1.942793   -1.266553
  C      1.847753   -0.893645   -1.753049
  H      1.348864    0.790126   -3.134866
  C     -0.203120   -1.876832   -1.952743
  H     -1.114303   -0.267206   -3.163226
  H      2.901434   -0.761057   -1.554098
  H      1.350217   -2.763071   -0.635285
  H     -1.016764   -2.588515   -1.879431
  C     -2.706278   -1.710934    1.473561
  H     -2.460559   -1.518780    2.519213
  H     -2.807457   -2.735850    1.131054
  H     -3.321868   -0.966708    0.941381
  C     -1.944467    1.739253   -0.712403
  H     -1.442082   -0.815583    0.650757
  H     -1.452087    2.521337   -1.298428
  H     -2.544546    2.257621    0.038027
  H     -2.622281    1.206936   -1.379824

 Total Charge           Charge          ....    0
 Multiplicity           Mult            ....    1
 Number of Electrons    NEL             ....  132
 Basis Dimension        Dim             ....  295

ORBITAL ENERGIES
----------------

  NO   OCC          E(Eh)            E(eV)
   0   2.0000     -19.253902      -523.9253
   1   2.0000     -12.626502      -343.5846
   2   2.0000     -12.623637      -343.5066
   3   2.0000     -12.623498      -343.5028
   4   2.0000     -10.487498      -285.3793
   5   2.0000     -10.452880      -284.4373
   6   2.0000     -10.451177      -284.3910
   7   2.0000     -10.450986      -284.3858
   8   2.0000     -10.448861      -284.3280
   9   2.0000     -10.448276      -284.3120
  10   2.0000     -10.447232      -284.2836
  11   2.0000     -10.446946      -284.2759
  12   2.0000     -10.446740      -284.2702
  13   2.0000     -10.446249      -284.2569
  14   2.0000     -10.443585      -284.1844
  15   2.0000     -10.361789      -281.9586
  16   2.0000      -5.895440      -160.4231
  17   2.0000      -5.894931      -160.4092
  18   2.0000      -5.894798      -160.4056
  19   2.0000      -5.892967      -160.3558
  20   2.0000      -5.892901      -160.3540
  21   2.0000      -2.437744       -66.3344
  22   2.0000      -1.279084       -34.8057
  23   2.0000      -1.275882       -34.7185
  24   2.0000      -1.265528       -34.4368
  25   2.0000      -0.982945       -26.7473
  26   2.0000      -0.971605       -26.4387
  27   2.0000      -0.797915       -21.7124
  28   2.0000      -0.795853       -21.6563
  29   2.0000      -0.795082       -21.6353
  30   2.0000      -0.793041       -21.5797
  31   2.0000      -0.768512       -20.9123
  32   2.0000      -0.681524       -18.5452
  33   2.0000      -0.619789       -16.8653
  34   2.0000      -0.615836       -16.7577
  35   2.0000      -0.613230       -16.6868
  36   2.0000      -0.611201       -16.6316
  37   2.0000      -0.599777       -16.3208
  38   2.0000      -0.593831       -16.1590
  39   2.0000      -0.563188       -15.3251
  40   2.0000      -0.562030       -15.2936
  41   2.0000      -0.561217       -15.2715
  42   2.0000      -0.560519       -15.2525
  43   2.0000      -0.560066       -15.2402
  44   2.0000      -0.557741       -15.1769
  45   2.0000      -0.557577       -15.1724
  46   2.0000      -0.489767       -13.3272
  47   2.0000      -0.481392       -13.0994
  48   2.0000      -0.466800       -12.7023
  49   2.0000      -0.459271       -12.4974
  50   2.0000      -0.455319       -12.3899
  51   2.0000      -0.453653       -12.3445
  52   2.0000      -0.451223       -12.2784
  53   2.0000      -0.437690       -11.9102
  54   2.0000      -0.436412       -11.8754
  55   2.0000      -0.434641       -11.8272
  56   2.0000      -0.430891       -11.7251
  57   2.0000      -0.428367       -11.6565
  58   2.0000      -0.382208       -10.4004
  59   2.0000      -0.378595       -10.3021
  60   2.0000      -0.342187        -9.3114
  61   2.0000      -0.289146        -7.8681
  62   2.0000      -0.285561        -7.7705
  63   2.0000      -0.281425        -7.6580
  64   2.0000      -0.271367        -7.3843
  65   2.0000      -0.209726        -5.7069
  66   0.0000      -0.051751        -1.4082
  67   0.0000      -0.014594        -0.3971
  68   0.0000       0.026999         0.7347
  69   0.0000       0.037638         1.0242
  70   0.0000       0.047959         1.3050

MULLIKEN ATOMIC CHARGES
-----------------------
   0 Lu:    0.757482
   1 C :   -0.146181
   2 C :   -0.306403
   3 C :   -0.363052
   4 C :   -0.274987
   5 C :   -0.353033
   6 H :    0.249333
   7 H :    0.246841
   8 H :    0.231413
   9 H :    0.236157
  10 H :    0.251818
  11 C :   -0.283411
  12 C :   -0.344485
  13 C :   -0.369007
  14 C :   -0.339403
  15 H :    0.249624
  16 C :   -0.110192
  17 H :    0.236440
  18 H :    0.251405
  19 H :    0.236449
  20 H :    0.229958
  21 C :   -0.730206
  22 H :    0.249121
  23 H :    0.241500
  24 H :    0.282661
  25 C :   -0.949565
  26 H :    0.064862
  27 H :    0.176936
  28 H :    0.190120
  29 H :    0.187806
Sum of atomic charges:    0.0000000

LOEWDIN ATOMIC CHARGES
----------------------
   0 Lu:   -0.092441
   1 C :   -0.099965
   2 C :   -0.138895
   3 C :   -0.152013
   4 C :   -0.152551
   5 C :   -0.128917
   6 H :    0.162950
   7 H :    0.162827
   8 H :    0.150647
   9 H :    0.153414
  10 H :    0.163531
  11 C :   -0.149762
  12 C :   -0.128043
  13 C :   -0.153454
  14 C :   -0.154936
  15 H :    0.161526
  16 C :   -0.098930
  17 H :    0.158270
  18 H :    0.163882
  19 H :    0.154133
  20 H :    0.147757
  21 C :   -0.403464
  22 H :    0.146573
  23 H :    0.143153
  24 H :    0.162537
  25 C :   -0.643101
  26 H :    0.126656
  27 H :    0.114008
  28 H :    0.112901
  29 H :    0.111707

  Mayer bond orders larger than 0.100000
B(  0-Lu,  1-C ) :   0.1820 B(  0-Lu,  2-C ) :   0.2402 B(  0-Lu,  3-C ) :   0.3292
B(  0-Lu,  4-C ) :   0.3254 B(  0-Lu,  5-C ) :   0.2440 B(  0-Lu, 11-C ) :   0.3101
B(  0-Lu, 12-C ) :   0.2133 B(  0-Lu, 13-C ) :   0.2604 B(  0-Lu, 14-C ) :   0.3380
B(  0-Lu, 16-C ) :   0.1738 B(  0-Lu, 21-C ) :   0.1360 B(  0-Lu, 25-C ) :   0.7481
B(  0-Lu, 26-H ) :   0.1826 B(  1-C ,  2-C ) :   1.3275 B(  1-C ,  5-C ) :   1.3292
B(  1-C ,  8-H ) :   0.9200 B(  2-C ,  3-C ) :   1.2705 B(  2-C ,  9-H ) :   0.9186
B(  3-C ,  4-C ) :   1.2244 B(  3-C , 10-H ) :   0.9080 B(  4-C ,  5-C ) :   1.2522
B(  4-C ,  6-H ) :   0.9020 B(  5-C ,  7-H ) :   0.9198 B( 11-C , 12-C ) :   1.2721
B( 11-C , 14-C ) :   1.2385 B( 11-C , 15-H ) :   0.9035 B( 12-C , 16-C ) :   1.3343
B( 12-C , 17-H ) :   0.9249 B( 13-C , 14-C ) :   1.2451 B( 13-C , 16-C ) :   1.3166
B( 13-C , 19-H ) :   0.9194 B( 14-C , 18-H ) :   0.9051 B( 16-C , 20-H ) :   0.9172
B( 21-C , 22-H ) :   0.9084 B( 21-C , 23-H ) :   0.9110 B( 21-C , 24-H ) :   0.8938
B( 21-C , 26-H ) :   0.7894 B( 25-C , 27-H ) :   0.9121 B( 25-C , 28-H ) :   0.9317
B( 25-C , 29-H ) :   0.9279

Dispersion correction           -0.017161457
FINAL SINGLE POINT ENERGY     -1702.227017464038
Dispersion correction            ... done

DIPOLE MOMENT
-------------
                                X             Y             Z
Electronic contribution:     17.50239      18.72961     -11.81339
Nuclear contribution   :    -16.98348     -19.41691      12.18642
                        -----------------------------------------
Total Dipole Moment    :      0.51892      -0.68730       0.37303
                        -----------------------------------------
Magnitude (a.u.)       :      0.93851
Magnitude (Debye)      :      2.38551

Rotational constants in cm-1:     0.025817     0.018775     0.015902
Rotational constants in MHz :   773.964102   562.864199   476.732726

                             ****ORCA TERMINATED NORMALLY****
TOTAL RUN TIME: 0 days 0 hours 9 minutes 23 seconds 463 msec
