                         Program Version 5.0.3 -  RELEASE  -
|  1> ! EnGrad PBEh-3c
|  2> %output
|  3> xyzfile=True
|  4> end
|  5> %scf
|  6> maxiter 250
|  7> end
|  8> %output
|  9> Print[P_Hirshfeld] = 1
| 10> end
| 11> % maxcore
| 12> 4000
| 13> *xyz 0 1
| 14> Lu   0.04018582   0.30238212  -0.14127306
| 15> C    0.41844887   0.90364522   2.43523493
| 16> C    1.37715996  -0.10523326   2.15579938
| 17> C    2.30406625   0.42209331   1.24136994
| 18> C    1.91413226   1.73915089   0.93502817
| 19> C    0.72540725   2.02945025   1.64765706
| 20> H    2.46052045   2.43075505   0.30746372
| 21> H    0.22511783   2.98710661   1.68760367
| 22> H   -0.37720400   0.82886281   3.15985445
| 23> H    1.44300240  -1.06731075   2.64082952
| 24> H    3.21988018  -0.06350189   0.92740535
| 25> C    0.99284625  -0.07366463  -2.51397757
| 26> C   -0.30407378  -0.63611307  -2.52449951
| 27> C    1.04582774  -1.94169135  -1.21241438
| 28> C    1.81772327  -0.87508906  -1.70460174
| 29> H    1.30600084   0.80444466  -3.06141424
| 30> C   -0.25277078  -1.82319996  -1.76461096
| 31> H   -1.13426278  -0.30275480  -3.12804152
| 32> H    2.88263838  -0.75204699  -1.55833593
| 33> H    1.42218196  -2.78557176  -0.65006874
| 34> H   -1.06445862  -2.51870684  -1.61425777
| 35> C   -2.52523236  -1.52710851   1.30905897
| 36> H   -2.25251430  -1.37279672   2.36976046
| 37> H   -2.13140552  -2.49520098   0.94114806
| 38> H   -3.66588518  -1.34953602   1.10127049
| 39> C   -1.77267994   1.77758304  -0.79730915
| 40> H   -2.00035097  -0.74549702   0.72468669
| 41> H   -1.26888705   2.58029402  -1.36480288
| 42> H   -2.38850319   2.32119976  -0.06365988
| 43> H   -2.48406961   1.35270705  -1.52167885
| 44> *
| 45>
| 46>                          ****END OF INPUT****

CARTESIAN COORDINATES (ANGSTROEM)
---------------------------------
  Lu     0.040186    0.302382   -0.141273
  C      0.418449    0.903645    2.435235
  C      1.377160   -0.105233    2.155799
  C      2.304066    0.422093    1.241370
  C      1.914132    1.739151    0.935028
  C      0.725407    2.029450    1.647657
  H      2.460520    2.430755    0.307464
  H      0.225118    2.987107    1.687604
  H     -0.377204    0.828863    3.159854
  H      1.443002   -1.067311    2.640830
  H      3.219880   -0.063502    0.927405
  C      0.992846   -0.073665   -2.513978
  C     -0.304074   -0.636113   -2.524500
  C      1.045828   -1.941691   -1.212414
  C      1.817723   -0.875089   -1.704602
  H      1.306001    0.804445   -3.061414
  C     -0.252771   -1.823200   -1.764611
  H     -1.134263   -0.302755   -3.128042
  H      2.882638   -0.752047   -1.558336
  H      1.422182   -2.785572   -0.650069
  H     -1.064459   -2.518707   -1.614258
  C     -2.525232   -1.527109    1.309059
  H     -2.252514   -1.372797    2.369760
  H     -2.131406   -2.495201    0.941148
  H     -3.665885   -1.349536    1.101270
  C     -1.772680    1.777583   -0.797309
  H     -2.000351   -0.745497    0.724687
  H     -1.268887    2.580294   -1.364803
  H     -2.388503    2.321200   -0.063660
  H     -2.484070    1.352707   -1.521679

 Total Charge           Charge          ....    0
 Multiplicity           Mult            ....    1
 Number of Electrons    NEL             ....  132
 Basis Dimension        Dim             ....  295

ORBITAL ENERGIES
----------------

  NO   OCC          E(Eh)            E(eV)
   0   2.0000     -19.256065      -523.9842
   1   2.0000     -12.628641      -343.6428
   2   2.0000     -12.626113      -343.5740
   3   2.0000     -12.625551      -343.5587
   4   2.0000     -10.462616      -284.7022
   5   2.0000     -10.446555      -284.2652
   6   2.0000     -10.446320      -284.2588
   7   2.0000     -10.446116      -284.2533
   8   2.0000     -10.445396      -284.2337
   9   2.0000     -10.444602      -284.2121
  10   2.0000     -10.443968      -284.1948
  11   2.0000     -10.443830      -284.1911
  12   2.0000     -10.442303      -284.1495
  13   2.0000     -10.442183      -284.1463
  14   2.0000     -10.440055      -284.0884
  15   2.0000     -10.362739      -281.9845
  16   2.0000      -5.897736      -160.4855
  17   2.0000      -5.897418      -160.4769
  18   2.0000      -5.896792      -160.4599
  19   2.0000      -5.895364      -160.4210
  20   2.0000      -5.895158      -160.4154
  21   2.0000      -2.439339       -66.3778
  22   2.0000      -1.277739       -34.7690
  23   2.0000      -1.275855       -34.7178
  24   2.0000      -1.264699       -34.4142
  25   2.0000      -0.977793       -26.6071
  26   2.0000      -0.970049       -26.3964
  27   2.0000      -0.796850       -21.6834
  28   2.0000      -0.793788       -21.6001
  29   2.0000      -0.790850       -21.5201
  30   2.0000      -0.790269       -21.5043
  31   2.0000      -0.789078       -21.4719
  32   2.0000      -0.695702       -18.9310
  33   2.0000      -0.612957       -16.6794
  34   2.0000      -0.611557       -16.6413
  35   2.0000      -0.609466       -16.5844
  36   2.0000      -0.606965       -16.5163
  37   2.0000      -0.595170       -16.1954
  38   2.0000      -0.590160       -16.0591
  39   2.0000      -0.565400       -15.3853
  40   2.0000      -0.564149       -15.3513
  41   2.0000      -0.563967       -15.3463
  42   2.0000      -0.562878       -15.3167
  43   2.0000      -0.562196       -15.2981
  44   2.0000      -0.560999       -15.2656
  45   2.0000      -0.559310       -15.2196
  46   2.0000      -0.476523       -12.9669
  47   2.0000      -0.473487       -12.8842
  48   2.0000      -0.467437       -12.7196
  49   2.0000      -0.457741       -12.4558
  50   2.0000      -0.452524       -12.3138
  51   2.0000      -0.449570       -12.2334
  52   2.0000      -0.448934       -12.2161
  53   2.0000      -0.448618       -12.2075
  54   2.0000      -0.432737       -11.7754
  55   2.0000      -0.431382       -11.7385
  56   2.0000      -0.429754       -11.6942
  57   2.0000      -0.429745       -11.6940
  58   2.0000      -0.427140       -11.6231
  59   2.0000      -0.387061       -10.5325
  60   2.0000      -0.385934       -10.5018
  61   2.0000      -0.292409        -7.9568
  62   2.0000      -0.281182        -7.6514
  63   2.0000      -0.278058        -7.5663
  64   2.0000      -0.262267        -7.1366
  65   2.0000      -0.254792        -6.9332
  66   0.0000      -0.019035        -0.5180
  67   0.0000       0.007914         0.2154
  68   0.0000       0.042478         1.1559
  69   0.0000       0.054964         1.4956
  70   0.0000       0.058117         1.5815

MULLIKEN ATOMIC CHARGES
-----------------------
   0 Lu:    0.828211
   1 C :   -0.261138
   2 C :   -0.300198
   3 C :   -0.264896
   4 C :   -0.291558
   5 C :   -0.307472
   6 H :    0.241657
   7 H :    0.244957
   8 H :    0.234054
   9 H :    0.231951
  10 H :    0.229476
  11 C :   -0.287059
  12 C :   -0.310817
  13 C :   -0.316466
  14 C :   -0.264717
  15 H :    0.243547
  16 C :   -0.237868
  17 H :    0.241346
  18 H :    0.231082
  19 H :    0.228766
  20 H :    0.231086
  21 C :   -0.876511
  22 H :    0.246199
  23 H :    0.241602
  24 H :    0.246345
  25 C :   -1.046223
  26 H :    0.214095
  27 H :    0.207565
  28 H :    0.213294
  29 H :    0.209691
Sum of atomic charges:   -0.0000000

LOEWDIN ATOMIC CHARGES
----------------------
   0 Lu:    0.011118
   1 C :   -0.142558
   2 C :   -0.153466
   3 C :   -0.129663
   4 C :   -0.147921
   5 C :   -0.138010
   6 H :    0.155931
   7 H :    0.161023
   8 H :    0.151720
   9 H :    0.150541
  10 H :    0.150962
  11 C :   -0.144810
  12 C :   -0.136963
  13 C :   -0.153351
  14 C :   -0.132521
  15 H :    0.156818
  16 C :   -0.141751
  17 H :    0.159714
  18 H :    0.150915
  19 H :    0.150769
  20 H :    0.149138
  21 C :   -0.463573
  22 H :    0.143948
  23 H :    0.142685
  24 H :    0.153949
  25 C :   -0.645592
  26 H :    0.147945
  27 H :    0.136926
  28 H :    0.128038
  29 H :    0.128038

  Mayer bond orders larger than 0.100000
B(  0-Lu,  1-C ) :   0.2566 B(  0-Lu,  2-C ) :   0.2557 B(  0-Lu,  3-C ) :   0.2409
B(  0-Lu,  4-C ) :   0.2852 B(  0-Lu,  5-C ) :   0.2500 B(  0-Lu, 11-C ) :   0.2852
B(  0-Lu, 12-C ) :   0.2459 B(  0-Lu, 13-C ) :   0.2571 B(  0-Lu, 14-C ) :   0.2526
B(  0-Lu, 16-C ) :   0.2551 B(  0-Lu, 25-C ) :   0.8301 B(  1-C ,  2-C ) :   1.2765
B(  1-C ,  5-C ) :   1.3076 B(  1-C ,  8-H ) :   0.9186 B(  2-C ,  3-C ) :   1.3126
B(  2-C ,  9-H ) :   0.9201 B(  3-C ,  4-C ) :   1.2919 B(  3-C , 10-H ) :   0.9229
B(  4-C ,  5-C ) :   1.2686 B(  4-C ,  6-H ) :   0.9150 B(  5-C ,  7-H ) :   0.9197
B( 11-C , 12-C ) :   1.2750 B( 11-C , 14-C ) :   1.2913 B( 11-C , 15-H ) :   0.9130
B( 12-C , 16-C ) :   1.3059 B( 12-C , 17-H ) :   0.9214 B( 13-C , 14-C ) :   1.3004
B( 13-C , 16-C ) :   1.2806 B( 13-C , 19-H ) :   0.9241 B( 14-C , 18-H ) :   0.9209
B( 16-C , 20-H ) :   0.9169 B( 21-C , 22-H ) :   0.9124 B( 21-C , 23-H ) :   0.9125
B( 21-C , 24-H ) :   0.9226 B( 21-C , 26-H ) :   0.8505 B( 25-C , 27-H ) :   0.8961
B( 25-C , 28-H ) :   0.9144 B( 25-C , 29-H ) :   0.9096

Dispersion correction           -0.017203132
FINAL SINGLE POINT ENERGY     -1702.375729044257
Dispersion correction            ... done

DIPOLE MOMENT
-------------
                                X             Y             Z
Electronic contribution:     -5.21896      14.35979      -5.47572
Nuclear contribution   :      5.35384     -15.11516       5.95747
                        -----------------------------------------
Total Dipole Moment    :      0.13488      -0.75537       0.48176
                        -----------------------------------------
Magnitude (a.u.)       :      0.90601
Magnitude (Debye)      :      2.30291

Rotational constants in cm-1:     0.027358     0.019804     0.017131
Rotational constants in MHz :   820.160109   593.712341   513.581524

                             ****ORCA TERMINATED NORMALLY****
TOTAL RUN TIME: 0 days 0 hours 10 minutes 16 seconds 784 msec
