                         Program Version 5.0.3 -  RELEASE  -
|  1> ! EnGrad PBEh-3c
|  2> %output
|  3> xyzfile=True
|  4> end
|  5> %scf
|  6> maxiter 250
|  7> end
|  8> %output
|  9> Print[P_Hirshfeld] = 1
| 10> end
| 11> % maxcore
| 12> 4000
| 13> *xyz 0 1
| 14> Lu   0.28618098   0.38184761  -0.24123314
| 15> C    0.45811054   0.97143898   2.46005840
| 16> C    1.36049935  -0.03948102   2.21541435
| 17> C    2.34758822   0.46285173   1.30371036
| 18> C    1.97890546   1.78903765   0.98059197
| 19> C    0.78889375   2.09298517   1.68323672
| 20> H    2.53032868   2.45997710   0.35145916
| 21> H    0.21831575   3.01475155   1.61763728
| 22> H   -0.31529971   0.96810488   3.23940968
| 23> H    1.37088708  -1.02377231   2.65390947
| 24> H    3.20437258  -0.07783911   0.93604552
| 25> C    1.04215789  -0.08262912  -2.58725092
| 26> C   -0.24966958  -0.66638553  -2.62964856
| 27> C    1.03627208  -1.97735053  -1.29796450
| 28> C    1.85937784  -0.90121337  -1.77706440
| 29> H    1.34529407   0.79525265  -3.12780749
| 30> C   -0.22048792  -1.83095425  -1.86513014
| 31> H   -1.11339340  -0.26783394  -3.15405190
| 32> H    2.90155165  -0.76307754  -1.55630119
| 33> H    1.35822117  -2.76328798  -0.63665663
| 34> H   -1.01687530  -2.58141159  -1.85011766
| 35> C   -2.56151417  -1.57390100   1.36097420
| 36> H   -2.45530235  -1.52430308   2.48999842
| 37> H   -2.74189655  -2.73171684   1.13053541
| 38> H   -3.34245444  -1.04684679   0.99326922
| 39> C   -1.87204160   1.72754987  -0.71984546
| 40> H   -1.62231075  -0.84953679   0.71442154
| 41> H   -1.43929573   2.53794673  -1.31385733
| 42> H   -2.53317717   2.27205735   0.02822061
| 43> H   -2.61177613   1.22691644  -1.40259460
| 44> *
| 45>
| 46>                          ****END OF INPUT****

CARTESIAN COORDINATES (ANGSTROEM)
---------------------------------
  Lu     0.286181    0.381848   -0.241233
  C      0.458111    0.971439    2.460058
  C      1.360499   -0.039481    2.215414
  C      2.347588    0.462852    1.303710
  C      1.978905    1.789038    0.980592
  C      0.788894    2.092985    1.683237
  H      2.530329    2.459977    0.351459
  H      0.218316    3.014752    1.617637
  H     -0.315300    0.968105    3.239410
  H      1.370887   -1.023772    2.653909
  H      3.204373   -0.077839    0.936046
  C      1.042158   -0.082629   -2.587251
  C     -0.249670   -0.666386   -2.629649
  C      1.036272   -1.977351   -1.297964
  C      1.859378   -0.901213   -1.777064
  H      1.345294    0.795253   -3.127807
  C     -0.220488   -1.830954   -1.865130
  H     -1.113393   -0.267834   -3.154052
  H      2.901552   -0.763078   -1.556301
  H      1.358221   -2.763288   -0.636657
  H     -1.016875   -2.581412   -1.850118
  C     -2.561514   -1.573901    1.360974
  H     -2.455302   -1.524303    2.489998
  H     -2.741897   -2.731717    1.130535
  H     -3.342454   -1.046847    0.993269
  C     -1.872042    1.727550   -0.719845
  H     -1.622311   -0.849537    0.714422
  H     -1.439296    2.537947   -1.313857
  H     -2.533177    2.272057    0.028221
  H     -2.611776    1.226916   -1.402595

 Total Charge           Charge          ....    0
 Multiplicity           Mult            ....    1
 Number of Electrons    NEL             ....  132
 Basis Dimension        Dim             ....  295

ORBITAL ENERGIES
----------------

  NO   OCC          E(Eh)            E(eV)
   0   2.0000     -19.264941      -524.2257
   1   2.0000     -12.637675      -343.8886
   2   2.0000     -12.634841      -343.8115
   3   2.0000     -12.634519      -343.8027
   4   2.0000     -10.471153      -284.9346
   5   2.0000     -10.449784      -284.3531
   6   2.0000     -10.449641      -284.3492
   7   2.0000     -10.447630      -284.2945
   8   2.0000     -10.447622      -284.2942
   9   2.0000     -10.446739      -284.2702
  10   2.0000     -10.446678      -284.2686
  11   2.0000     -10.446623      -284.2671
  12   2.0000     -10.446004      -284.2502
  13   2.0000     -10.444144      -284.1996
  14   2.0000     -10.443508      -284.1823
  15   2.0000     -10.370525      -282.1963
  16   2.0000      -5.906703      -160.7296
  17   2.0000      -5.906321      -160.7192
  18   2.0000      -5.905881      -160.7072
  19   2.0000      -5.904187      -160.6611
  20   2.0000      -5.904051      -160.6574
  21   2.0000      -2.448133       -66.6171
  22   2.0000      -1.286179       -34.9987
  23   2.0000      -1.284095       -34.9420
  24   2.0000      -1.272700       -34.6319
  25   2.0000      -0.982261       -26.7287
  26   2.0000      -0.974382       -26.5143
  27   2.0000      -0.799345       -21.7513
  28   2.0000      -0.798516       -21.7287
  29   2.0000      -0.791670       -21.5424
  30   2.0000      -0.789528       -21.4842
  31   2.0000      -0.776732       -21.1360
  32   2.0000      -0.686076       -18.6691
  33   2.0000      -0.620413       -16.8823
  34   2.0000      -0.616392       -16.7729
  35   2.0000      -0.609506       -16.5855
  36   2.0000      -0.608005       -16.5447
  37   2.0000      -0.598232       -16.2787
  38   2.0000      -0.593076       -16.1384
  39   2.0000      -0.574521       -15.6335
  40   2.0000      -0.573055       -15.5936
  41   2.0000      -0.572547       -15.5798
  42   2.0000      -0.571473       -15.5506
  43   2.0000      -0.571363       -15.5476
  44   2.0000      -0.569341       -15.4926
  45   2.0000      -0.568134       -15.4597
  46   2.0000      -0.485681       -13.2160
  47   2.0000      -0.468796       -12.7566
  48   2.0000      -0.458072       -12.4648
  49   2.0000      -0.456963       -12.4346
  50   2.0000      -0.450549       -12.2601
  51   2.0000      -0.448084       -12.1930
  52   2.0000      -0.444424       -12.0934
  53   2.0000      -0.439510       -11.9597
  54   2.0000      -0.437308       -11.8998
  55   2.0000      -0.436292       -11.8721
  56   2.0000      -0.428844       -11.6694
  57   2.0000      -0.424884       -11.5617
  58   2.0000      -0.417676       -11.3655
  59   2.0000      -0.384127       -10.4526
  60   2.0000      -0.371719       -10.1150
  61   2.0000      -0.291542        -7.9333
  62   2.0000      -0.284694        -7.7469
  63   2.0000      -0.282137        -7.6773
  64   2.0000      -0.268860        -7.3161
  65   2.0000      -0.242426        -6.5967
  66   0.0000      -0.034223        -0.9312
  67   0.0000      -0.002968        -0.0808
  68   0.0000       0.039087         1.0636
  69   0.0000       0.050422         1.3721
  70   0.0000       0.053761         1.4629

MULLIKEN ATOMIC CHARGES
-----------------------
   0 Lu:    0.807001
   1 C :   -0.253984
   2 C :   -0.285960
   3 C :   -0.289074
   4 C :   -0.349920
   5 C :   -0.263917
   6 H :    0.249904
   7 H :    0.255253
   8 H :    0.228583
   9 H :    0.236087
  10 H :    0.239470
  11 C :   -0.355190
  12 C :   -0.242348
  13 C :   -0.286738
  14 C :   -0.298413
  15 H :    0.251830
  16 C :   -0.258388
  17 H :    0.250162
  18 H :    0.241768
  19 H :    0.237732
  20 H :    0.228384
  21 C :   -0.799620
  22 H :    0.230588
  23 H :    0.211080
  24 H :    0.289991
  25 C :   -0.995296
  26 H :    0.140980
  27 H :    0.194979
  28 H :    0.193254
  29 H :    0.191801
Sum of atomic charges:    0.0000000

LOEWDIN ATOMIC CHARGES
----------------------
   0 Lu:    0.026040
   1 C :   -0.128121
   2 C :   -0.150011
   3 C :   -0.142224
   4 C :   -0.161007
   5 C :   -0.136209
   6 H :    0.159282
   7 H :    0.162517
   8 H :    0.152738
   9 H :    0.151858
  10 H :    0.154646
  11 C :   -0.160327
  12 C :   -0.129785
  13 C :   -0.149850
  14 C :   -0.144701
  15 H :    0.160527
  16 C :   -0.132417
  17 H :    0.160274
  18 H :    0.156033
  19 H :    0.152338
  20 H :    0.151877
  21 C :   -0.444147
  22 H :    0.140385
  23 H :    0.139398
  24 H :    0.142975
  25 C :   -0.649921
  26 H :    0.156798
  27 H :    0.124399
  28 H :    0.118887
  29 H :    0.117748

  Mayer bond orders larger than 0.100000
B(  0-Lu,  1-C ) :   0.2162 B(  0-Lu,  2-C ) :   0.2464 B(  0-Lu,  3-C ) :   0.2856
B(  0-Lu,  4-C ) :   0.3135 B(  0-Lu,  5-C ) :   0.2423 B(  0-Lu, 11-C ) :   0.3141
B(  0-Lu, 12-C ) :   0.2253 B(  0-Lu, 13-C ) :   0.2547 B(  0-Lu, 14-C ) :   0.2972
B(  0-Lu, 16-C ) :   0.2176 B(  0-Lu, 25-C ) :   0.8133 B(  1-C ,  2-C ) :   1.3151
B(  1-C ,  5-C ) :   1.3221 B(  1-C ,  8-H ) :   0.9262 B(  2-C ,  3-C ) :   1.2846
B(  2-C ,  9-H ) :   0.9169 B(  3-C ,  4-C ) :   1.2629 B(  3-C , 10-H ) :   0.9131
B(  4-C ,  5-C ) :   1.2672 B(  4-C ,  6-H ) :   0.9092 B(  5-C ,  7-H ) :   0.9063
B( 11-C , 12-C ) :   1.2765 B( 11-C , 14-C ) :   1.2564 B( 11-C , 15-H ) :   0.9080
B( 12-C , 16-C ) :   1.3304 B( 12-C , 17-H ) :   0.9090 B( 13-C , 14-C ) :   1.2777
B( 13-C , 16-C ) :   1.3089 B( 13-C , 19-H ) :   0.9149 B( 14-C , 18-H ) :   0.9123
B( 16-C , 20-H ) :   0.9260 B( 21-C , 22-H ) :   0.9190 B( 21-C , 23-H ) :   0.9305
B( 21-C , 24-H ) :   0.8833 B( 21-C , 26-H ) :   0.8745 B( 25-C , 27-H ) :   0.8985
B( 25-C , 28-H ) :   0.9266 B( 25-C , 29-H ) :   0.9193

Dispersion correction           -0.016749015
FINAL SINGLE POINT ENERGY     -1702.314133604107
Dispersion correction            ... done

DIPOLE MOMENT
-------------
                                X             Y             Z
Electronic contribution:      6.88478      18.33870     -10.53063
Nuclear contribution   :     -6.55550     -19.00990      10.86305
                        -----------------------------------------
Total Dipole Moment    :      0.32929      -0.67120       0.33242
                        -----------------------------------------
Magnitude (a.u.)       :      0.81820
Magnitude (Debye)      :      2.07970

Rotational constants in cm-1:     0.026755     0.018834     0.016239
Rotational constants in MHz :   802.098197   564.627252   486.837205

                             ****ORCA TERMINATED NORMALLY****
TOTAL RUN TIME: 0 days 0 hours 9 minutes 3 seconds 750 msec
