                         Program Version 5.0.3 -  RELEASE  -
|  1> ! EnGrad PBEh-3c
|  2> %output
|  3> xyzfile=True
|  4> end
|  5> %scf
|  6> maxiter 250
|  7> end
|  8> %output
|  9> Print[P_Hirshfeld] = 1
| 10> end
| 11> % maxcore
| 12> 4000
| 13> *xyz 0 1
| 14> Lu   0.11713811   0.37152662  -0.21256555
| 15> C    0.41838725   0.95501281   2.44269505
| 16> C    1.39025659  -0.05439816   2.20646235
| 17> C    2.35173791   0.47052868   1.32614594
| 18> C    1.96930889   1.77634248   0.96560733
| 19> C    0.81463794   2.10076019   1.71235982
| 20> H    2.52348120   2.46283446   0.33971057
| 21> H    0.22117546   2.99992384   1.62649967
| 22> H   -0.31068608   0.94389057   3.22062391
| 23> H    1.37783935  -1.03244480   2.65108599
| 24> H    3.20890607  -0.07643415   0.93857870
| 25> C    1.03590855  -0.07745998  -2.56870859
| 26> C   -0.23756702  -0.68157286  -2.65719867
| 27> C    1.06664104  -1.98275474  -1.31235032
| 28> C    1.85096381  -0.91788315  -1.78280726
| 29> H    1.34008550   0.80423067  -3.11964618
| 30> C   -0.25711025  -1.81378312  -1.80146362
| 31> H   -1.11016445  -0.27544987  -3.14315523
| 32> H    2.90439009  -0.76423067  -1.55747704
| 33> H    1.36730321  -2.76938903  -0.63651880
| 34> H   -1.01536461  -2.56680433  -1.81031907
| 35> C   -2.38134376  -1.52494252   1.28908585
| 36> H   -2.43676759  -1.51814683   2.43563436
| 37> H   -2.64124062  -2.67823081   1.12602308
| 38> H   -3.41728857  -1.09873774   1.02055747
| 39> C   -1.83395896   1.72218994  -0.72460699
| 40> H   -1.82449142  -0.87812240   0.78125745
| 41> H   -1.41595690   2.55821769  -1.33194782
| 42> H   -2.50613839   2.28357244  -0.00268050
| 43> H   -2.58607062   1.26228774  -1.42320390
| 44> *
| 45>
| 46>                          ****END OF INPUT****

CARTESIAN COORDINATES (ANGSTROEM)
---------------------------------
  Lu     0.117138    0.371527   -0.212566
  C      0.418387    0.955013    2.442695
  C      1.390257   -0.054398    2.206462
  C      2.351738    0.470529    1.326146
  C      1.969309    1.776342    0.965607
  C      0.814638    2.100760    1.712360
  H      2.523481    2.462834    0.339711
  H      0.221175    2.999924    1.626500
  H     -0.310686    0.943891    3.220624
  H      1.377839   -1.032445    2.651086
  H      3.208906   -0.076434    0.938579
  C      1.035909   -0.077460   -2.568709
  C     -0.237567   -0.681573   -2.657199
  C      1.066641   -1.982755   -1.312350
  C      1.850964   -0.917883   -1.782807
  H      1.340086    0.804231   -3.119646
  C     -0.257110   -1.813783   -1.801464
  H     -1.110164   -0.275450   -3.143155
  H      2.904390   -0.764231   -1.557477
  H      1.367303   -2.769389   -0.636519
  H     -1.015365   -2.566804   -1.810319
  C     -2.381344   -1.524943    1.289086
  H     -2.436768   -1.518147    2.435634
  H     -2.641241   -2.678231    1.126023
  H     -3.417289   -1.098738    1.020557
  C     -1.833959    1.722190   -0.724607
  H     -1.824491   -0.878122    0.781257
  H     -1.415957    2.558218   -1.331948
  H     -2.506138    2.283572   -0.002680
  H     -2.586071    1.262288   -1.423204

 Total Charge           Charge          ....    0
 Multiplicity           Mult            ....    1
 Number of Electrons    NEL             ....  132
 Basis Dimension        Dim             ....  295

ORBITAL ENERGIES
----------------

  NO   OCC          E(Eh)            E(eV)
   0   2.0000     -19.270772      -524.3844
   1   2.0000     -12.643320      -344.0422
   2   2.0000     -12.640837      -343.9747
   3   2.0000     -12.640466      -343.9646
   4   2.0000     -10.454220      -284.4738
   5   2.0000     -10.448613      -284.3212
   6   2.0000     -10.447642      -284.2948
   7   2.0000     -10.447498      -284.2909
   8   2.0000     -10.445581      -284.2387
   9   2.0000     -10.445344      -284.2323
  10   2.0000     -10.444748      -284.2160
  11   2.0000     -10.444354      -284.2053
  12   2.0000     -10.443872      -284.1922
  13   2.0000     -10.443760      -284.1892
  14   2.0000     -10.442323      -284.1501
  15   2.0000     -10.377330      -282.3815
  16   2.0000      -5.912472      -160.8866
  17   2.0000      -5.912165      -160.8782
  18   2.0000      -5.911705      -160.8657
  19   2.0000      -5.910266      -160.8265
  20   2.0000      -5.910056      -160.8208
  21   2.0000      -2.453740       -66.7697
  22   2.0000      -1.291085       -35.1322
  23   2.0000      -1.286855       -35.0171
  24   2.0000      -1.278189       -34.7813
  25   2.0000      -0.976691       -26.5771
  26   2.0000      -0.970579       -26.4108
  27   2.0000      -0.796531       -21.6747
  28   2.0000      -0.792305       -21.5597
  29   2.0000      -0.792170       -21.5561
  30   2.0000      -0.791116       -21.5274
  31   2.0000      -0.788936       -21.4680
  32   2.0000      -0.698556       -19.0087
  33   2.0000      -0.613840       -16.7034
  34   2.0000      -0.611655       -16.6440
  35   2.0000      -0.609869       -16.5954
  36   2.0000      -0.609375       -16.5819
  37   2.0000      -0.595074       -16.1928
  38   2.0000      -0.590221       -16.0607
  39   2.0000      -0.580193       -15.7878
  40   2.0000      -0.578816       -15.7504
  41   2.0000      -0.578171       -15.7328
  42   2.0000      -0.577624       -15.7179
  43   2.0000      -0.577103       -15.7038
  44   2.0000      -0.575631       -15.6637
  45   2.0000      -0.574031       -15.6202
  46   2.0000      -0.528910       -14.3924
  47   2.0000      -0.465143       -12.6572
  48   2.0000      -0.451694       -12.2912
  49   2.0000      -0.451208       -12.2780
  50   2.0000      -0.449261       -12.2250
  51   2.0000      -0.445886       -12.1332
  52   2.0000      -0.440995       -12.0001
  53   2.0000      -0.434872       -11.8335
  54   2.0000      -0.433085       -11.7848
  55   2.0000      -0.427219       -11.6252
  56   2.0000      -0.425857       -11.5882
  57   2.0000      -0.424206       -11.5432
  58   2.0000      -0.416525       -11.3342
  59   2.0000      -0.390134       -10.6161
  60   2.0000      -0.381441       -10.3795
  61   2.0000      -0.287089        -7.8121
  62   2.0000      -0.285635        -7.7725
  63   2.0000      -0.278658        -7.5827
  64   2.0000      -0.268530        -7.3071
  65   2.0000      -0.263052        -7.1580
  66   0.0000      -0.026619        -0.7243
  67   0.0000       0.004152         0.1130
  68   0.0000       0.042689         1.1616
  69   0.0000       0.053330         1.4512
  70   0.0000       0.054516         1.4835

MULLIKEN ATOMIC CHARGES
-----------------------
   0 Lu:    0.892020
   1 C :   -0.345584
   2 C :   -0.281145
   3 C :   -0.226591
   4 C :   -0.405465
   5 C :   -0.202591
   6 H :    0.244980
   7 H :    0.253776
   8 H :    0.229560
   9 H :    0.235545
  10 H :    0.231497
  11 C :   -0.398929
  12 C :   -0.181911
  13 C :   -0.235705
  14 C :   -0.263805
  15 H :    0.248759
  16 C :   -0.378107
  17 H :    0.251766
  18 H :    0.234670
  19 H :    0.236832
  20 H :    0.228547
  21 C :   -0.914010
  22 H :    0.238918
  23 H :    0.231640
  24 H :    0.246332
  25 C :   -1.052486
  26 H :    0.252364
  27 H :    0.207027
  28 H :    0.212708
  29 H :    0.209389
Sum of atomic charges:    0.0000000

LOEWDIN ATOMIC CHARGES
----------------------
   0 Lu:    0.107667
   1 C :   -0.156630
   2 C :   -0.153901
   3 C :   -0.134480
   4 C :   -0.173180
   5 C :   -0.131786
   6 H :    0.156993
   7 H :    0.159125
   8 H :    0.152136
   9 H :    0.149910
  10 H :    0.149939
  11 C :   -0.170342
  12 C :   -0.123396
  13 C :   -0.142598
  14 C :   -0.140192
  15 H :    0.159216
  16 C :   -0.164469
  17 H :    0.157956
  18 H :    0.152110
  19 H :    0.150193
  20 H :    0.152441
  21 C :   -0.494996
  22 H :    0.145122
  23 H :    0.150631
  24 H :    0.147204
  25 C :   -0.647756
  26 H :    0.147592
  27 H :    0.136775
  28 H :    0.129675
  29 H :    0.129037

  Mayer bond orders larger than 0.100000
B(  0-Lu,  1-C ) :   0.2500 B(  0-Lu,  2-C ) :   0.2392 B(  0-Lu,  3-C ) :   0.2342
B(  0-Lu,  4-C ) :   0.2993 B(  0-Lu,  5-C ) :   0.2292 B(  0-Lu, 11-C ) :   0.3062
B(  0-Lu, 12-C ) :   0.2216 B(  0-Lu, 13-C ) :   0.2294 B(  0-Lu, 14-C ) :   0.2480
B(  0-Lu, 16-C ) :   0.2618 B(  0-Lu, 25-C ) :   0.8292 B(  1-C ,  2-C ) :   1.2764
B(  1-C ,  5-C ) :   1.3180 B(  1-C ,  8-H ) :   0.9300 B(  2-C ,  3-C ) :   1.3325
B(  2-C ,  9-H ) :   0.9157 B(  3-C ,  4-C ) :   1.2703 B(  3-C , 10-H ) :   0.9148
B(  4-C ,  5-C ) :   1.2729 B(  4-C ,  6-H ) :   0.9144 B(  5-C ,  7-H ) :   0.9019
B( 11-C , 12-C ) :   1.2858 B( 11-C , 14-C ) :   1.2541 B( 11-C , 15-H ) :   0.9116
B( 12-C , 16-C ) :   1.3055 B( 12-C , 17-H ) :   0.9034 B( 13-C , 14-C ) :   1.3346
B( 13-C , 16-C ) :   1.2742 B( 13-C , 19-H ) :   0.9126 B( 14-C , 18-H ) :   0.9151
B( 16-C , 20-H ) :   0.9318 B( 21-C , 22-H ) :   0.9195 B( 21-C , 23-H ) :   0.9254
B( 21-C , 24-H ) :   0.9198 B( 21-C , 26-H ) :   0.8576 B( 25-C , 27-H ) :   0.8916
B( 25-C , 28-H ) :   0.9163 B( 25-C , 29-H ) :   0.9076

Dispersion correction           -0.016806120
FINAL SINGLE POINT ENERGY     -1702.330349633272
Dispersion correction            ... done

DIPOLE MOMENT
-------------
                                X             Y             Z
Electronic contribution:     -2.05749      17.90021      -9.10780
Nuclear contribution   :      2.11782     -18.49542       9.39575
                        -----------------------------------------
Total Dipole Moment    :      0.06033      -0.59521       0.28795
                        -----------------------------------------
Magnitude (a.u.)       :      0.66395
Magnitude (Debye)      :      1.68762

Rotational constants in cm-1:     0.027278     0.018884     0.016471
Rotational constants in MHz :   817.772030   566.118168   493.773172

                             ****ORCA TERMINATED NORMALLY****
TOTAL RUN TIME: 0 days 0 hours 9 minutes 16 seconds 496 msec
