                         Program Version 5.0.3 -  RELEASE  -
|  1> ! EnGrad PBEh-3c
|  2> %output
|  3> xyzfile=True
|  4> end
|  5> %scf
|  6> maxiter 250
|  7> end
|  8> %output
|  9> Print[P_Hirshfeld] = 1
| 10> end
| 11> % maxcore
| 12> 4000
| 13> *xyz 0 1
| 14> Lu   0.11255240   0.37029880  -0.20762853
| 15> C    0.41471722   0.96414284   2.44651662
| 16> C    1.40062100  -0.05802713   2.19405723
| 17> C    2.34489868   0.46113176   1.32234460
| 18> C    1.96646208   1.77466035   0.96854805
| 19> C    0.80568558   2.09752796   1.70521688
| 20> H    2.52315166   2.46347335   0.33689776
| 21> H    0.22373995   2.99847757   1.63034329
| 22> H   -0.31396255   0.93879741   3.21683792
| 23> H    1.37984127  -1.03634998   2.65244754
| 24> H    3.20855851  -0.07474396   0.93969095
| 25> C    1.03122579  -0.08152889  -2.57074549
| 26> C   -0.24292908  -0.67180964  -2.64693873
| 27> C    1.07443352  -1.97124013  -1.30496326
| 28> C    1.84716929  -0.92149054  -1.77310425
| 29> H    1.33996283   0.80574960  -3.11836646
| 30> C   -0.25886532  -1.81690080  -1.80990354
| 31> H   -1.10865448  -0.27814425  -3.14369920
| 32> H    2.90333596  -0.76419604  -1.55802335
| 33> H    1.37005908  -2.77212759  -0.63687309
| 34> H   -1.01855280  -2.56381012  -1.80007783
| 35> C   -2.41183637  -1.58450573   1.32685069
| 36> H   -2.42370952  -1.50776383   2.40855047
| 37> H   -2.60694507  -2.63692157   1.11877098
| 38> H   -3.43085815  -1.09764446   1.01899211
| 39> C   -1.84689145   1.72630566  -0.72492493
| 40> H   -1.82556819  -0.86764729   0.77408863
| 41> H   -1.41109332   2.55904364  -1.33372033
| 42> H   -2.49057449   2.27699227  -0.01447419
| 43> H   -2.57295645   1.27084552  -1.42042525
| 44> *
| 45>
| 46>                          ****END OF INPUT****

CARTESIAN COORDINATES (ANGSTROEM)
---------------------------------
  Lu     0.112552    0.370299   -0.207629
  C      0.414717    0.964143    2.446517
  C      1.400621   -0.058027    2.194057
  C      2.344899    0.461132    1.322345
  C      1.966462    1.774660    0.968548
  C      0.805686    2.097528    1.705217
  H      2.523152    2.463473    0.336898
  H      0.223740    2.998478    1.630343
  H     -0.313963    0.938797    3.216838
  H      1.379841   -1.036350    2.652448
  H      3.208559   -0.074744    0.939691
  C      1.031226   -0.081529   -2.570745
  C     -0.242929   -0.671810   -2.646939
  C      1.074434   -1.971240   -1.304963
  C      1.847169   -0.921491   -1.773104
  H      1.339963    0.805750   -3.118366
  C     -0.258865   -1.816901   -1.809904
  H     -1.108654   -0.278144   -3.143699
  H      2.903336   -0.764196   -1.558023
  H      1.370059   -2.772128   -0.636873
  H     -1.018553   -2.563810   -1.800078
  C     -2.411836   -1.584506    1.326851
  H     -2.423710   -1.507764    2.408550
  H     -2.606945   -2.636922    1.118771
  H     -3.430858   -1.097644    1.018992
  C     -1.846891    1.726306   -0.724925
  H     -1.825568   -0.867647    0.774089
  H     -1.411093    2.559044   -1.333720
  H     -2.490574    2.276992   -0.014474
  H     -2.572956    1.270846   -1.420425

 Total Charge           Charge          ....    0
 Multiplicity           Mult            ....    1
 Number of Electrons    NEL             ....  132
 Basis Dimension        Dim             ....  295

ORBITAL ENERGIES
----------------

  NO   OCC          E(Eh)            E(eV)
   0   2.0000     -19.269466      -524.3488
   1   2.0000     -12.641945      -344.0048
   2   2.0000     -12.639550      -343.9396
   3   2.0000     -12.639209      -343.9304
   4   2.0000     -10.448611      -284.3212
   5   2.0000     -10.447483      -284.2905
   6   2.0000     -10.446998      -284.2773
   7   2.0000     -10.446679      -284.2686
   8   2.0000     -10.445676      -284.2413
   9   2.0000     -10.444699      -284.2147
  10   2.0000     -10.444333      -284.2048
  11   2.0000     -10.444119      -284.1989
  12   2.0000     -10.443754      -284.1890
  13   2.0000     -10.443734      -284.1884
  14   2.0000     -10.442760      -284.1619
  15   2.0000     -10.372299      -282.2446
  16   2.0000      -5.911117      -160.8497
  17   2.0000      -5.910826      -160.8417
  18   2.0000      -5.910387      -160.8298
  19   2.0000      -5.909004      -160.7922
  20   2.0000      -5.908792      -160.7864
  21   2.0000      -2.452424       -66.7338
  22   2.0000      -1.289540       -35.0902
  23   2.0000      -1.285744       -34.9869
  24   2.0000      -1.276977       -34.7483
  25   2.0000      -0.976824       -26.5807
  26   2.0000      -0.970650       -26.4127
  27   2.0000      -0.797714       -21.7069
  28   2.0000      -0.795563       -21.6484
  29   2.0000      -0.792755       -21.5720
  30   2.0000      -0.788793       -21.4642
  31   2.0000      -0.787493       -21.4288
  32   2.0000      -0.701668       -19.0934
  33   2.0000      -0.613296       -16.6886
  34   2.0000      -0.612179       -16.6582
  35   2.0000      -0.610560       -16.6142
  36   2.0000      -0.608134       -16.5482
  37   2.0000      -0.595016       -16.1912
  38   2.0000      -0.590585       -16.0706
  39   2.0000      -0.578808       -15.7502
  40   2.0000      -0.577475       -15.7139
  41   2.0000      -0.576842       -15.6967
  42   2.0000      -0.576313       -15.6823
  43   2.0000      -0.575804       -15.6684
  44   2.0000      -0.574444       -15.6314
  45   2.0000      -0.572875       -15.5887
  46   2.0000      -0.516330       -14.0500
  47   2.0000      -0.465257       -12.6603
  48   2.0000      -0.460579       -12.5330
  49   2.0000      -0.453200       -12.3322
  50   2.0000      -0.450657       -12.2630
  51   2.0000      -0.448369       -12.2007
  52   2.0000      -0.447919       -12.1885
  53   2.0000      -0.440355       -11.9827
  54   2.0000      -0.435046       -11.8382
  55   2.0000      -0.426981       -11.6187
  56   2.0000      -0.424863       -11.5611
  57   2.0000      -0.422132       -11.4868
  58   2.0000      -0.418183       -11.3793
  59   2.0000      -0.390168       -10.6170
  60   2.0000      -0.387847       -10.5539
  61   2.0000      -0.289889        -7.8883
  62   2.0000      -0.282175        -7.6784
  63   2.0000      -0.275459        -7.4956
  64   2.0000      -0.266687        -7.2569
  65   2.0000      -0.264793        -7.2054
  66   0.0000      -0.025752        -0.7007
  67   0.0000       0.003855         0.1049
  68   0.0000       0.043057         1.1716
  69   0.0000       0.053978         1.4688
  70   0.0000       0.055930         1.5219

MULLIKEN ATOMIC CHARGES
-----------------------
   0 Lu:    0.882408
   1 C :   -0.339361
   2 C :   -0.285932
   3 C :   -0.225465
   4 C :   -0.398087
   5 C :   -0.208596
   6 H :    0.244049
   7 H :    0.254163
   8 H :    0.229447
   9 H :    0.234276
  10 H :    0.232159
  11 C :   -0.387766
  12 C :   -0.193633
  13 C :   -0.243974
  14 C :   -0.263567
  15 H :    0.247553
  16 C :   -0.364508
  17 H :    0.251420
  18 H :    0.234209
  19 H :    0.235377
  20 H :    0.227822
  21 C :   -0.899305
  22 H :    0.250478
  23 H :    0.250652
  24 H :    0.235963
  25 C :   -1.055515
  26 H :    0.219200
  27 H :    0.202572
  28 H :    0.219580
  29 H :    0.214379
Sum of atomic charges:   -0.0000000

LOEWDIN ATOMIC CHARGES
----------------------
   0 Lu:    0.097134
   1 C :   -0.156544
   2 C :   -0.153630
   3 C :   -0.133051
   4 C :   -0.173614
   5 C :   -0.129742
   6 H :    0.156988
   7 H :    0.159078
   8 H :    0.151441
   9 H :    0.149910
  10 H :    0.150546
  11 C :   -0.169859
  12 C :   -0.123779
  13 C :   -0.143466
  14 C :   -0.140299
  15 H :    0.158870
  16 C :   -0.163212
  17 H :    0.157783
  18 H :    0.152205
  19 H :    0.150201
  20 H :    0.151275
  21 C :   -0.488136
  22 H :    0.143271
  23 H :    0.148356
  24 H :    0.146243
  25 C :   -0.650737
  26 H :    0.156679
  27 H :    0.136179
  28 H :    0.130281
  29 H :    0.129631

  Mayer bond orders larger than 0.100000
B(  0-Lu,  1-C ) :   0.2532 B(  0-Lu,  2-C ) :   0.2405 B(  0-Lu,  3-C ) :   0.2315
B(  0-Lu,  4-C ) :   0.3033 B(  0-Lu,  5-C ) :   0.2277 B(  0-Lu, 11-C ) :   0.3067
B(  0-Lu, 12-C ) :   0.2213 B(  0-Lu, 13-C ) :   0.2302 B(  0-Lu, 14-C ) :   0.2465
B(  0-Lu, 16-C ) :   0.2631 B(  0-Lu, 25-C ) :   0.8322 B(  1-C ,  2-C ) :   1.2664
B(  1-C ,  5-C ) :   1.3254 B(  1-C ,  8-H ) :   0.9296 B(  2-C ,  3-C ) :   1.3433
B(  2-C ,  9-H ) :   0.9161 B(  3-C ,  4-C ) :   1.2647 B(  3-C , 10-H ) :   0.9156
B(  4-C ,  5-C ) :   1.2734 B(  4-C ,  6-H ) :   0.9140 B(  5-C ,  7-H ) :   0.9031
B( 11-C , 12-C ) :   1.2894 B( 11-C , 14-C ) :   1.2516 B( 11-C , 15-H ) :   0.9112
B( 12-C , 16-C ) :   1.3109 B( 12-C , 17-H ) :   0.9053 B( 13-C , 14-C ) :   1.3415
B( 13-C , 16-C ) :   1.2703 B( 13-C , 19-H ) :   0.9139 B( 14-C , 18-H ) :   0.9157
B( 16-C , 20-H ) :   0.9310 B( 21-C , 22-H ) :   0.9136 B( 21-C , 23-H ) :   0.9157
B( 21-C , 24-H ) :   0.9269 B( 21-C , 26-H ) :   0.8697 B( 25-C , 27-H ) :   0.8947
B( 25-C , 28-H ) :   0.9147 B( 25-C , 29-H ) :   0.9069

Dispersion correction           -0.016800834
FINAL SINGLE POINT ENERGY     -1702.351136577352
Dispersion correction            ... done

DIPOLE MOMENT
-------------
                                X             Y             Z
Electronic contribution:     -2.19318      17.89721      -8.88850
Nuclear contribution   :      2.26331     -18.50120       9.19737
                        -----------------------------------------
Total Dipole Moment    :      0.07013      -0.60399       0.30887
                        -----------------------------------------
Magnitude (a.u.)       :      0.68200
Magnitude (Debye)      :      1.73351

Rotational constants in cm-1:     0.027048     0.018877     0.016456
Rotational constants in MHz :   810.864525   565.914154   493.349006

                             ****ORCA TERMINATED NORMALLY****
TOTAL RUN TIME: 0 days 0 hours 8 minutes 7 seconds 970 msec
