                         Program Version 5.0.3 -  RELEASE  -
|  1> ! EnGrad PBEh-3c
|  2> %output
|  3> xyzfile=True
|  4> end
|  5> %scf
|  6> maxiter 250
|  7> end
|  8> %output
|  9> Print[P_Hirshfeld] = 1
| 10> end
| 11> % maxcore
| 12> 4000
| 13> *xyz 0 1
| 14> Lu   0.08055470   0.36727125  -0.20004994
| 15> C    0.42390266   0.95580229   2.43377832
| 16> C    1.39217141  -0.05680194   2.19767228
| 17> C    2.35076457   0.45887787   1.31801089
| 18> C    1.96384947   1.77530686   0.96380588
| 19> C    0.80428087   2.09318801   1.70904896
| 20> H    2.51955757   2.46135491   0.33553189
| 21> H    0.22453873   2.99783692   1.63360835
| 22> H   -0.32087439   0.93138981   3.21671151
| 23> H    1.38383871  -1.03937152   2.65134297
| 24> H    3.20813979  -0.07288090   0.94095654
| 25> C    1.02924389  -0.07824563  -2.56916552
| 26> C   -0.24462648  -0.67762005  -2.64109633
| 27> C    1.06649056  -1.97687270  -1.30233392
| 28> C    1.85329341  -0.91757277  -1.77195859
| 29> H    1.33819464   0.80530699  -3.11427714
| 30> C   -0.25074563  -1.80570021  -1.80173906
| 31> H   -1.10990850  -0.27902574  -3.14373146
| 32> H    2.90016311  -0.76474975  -1.55903799
| 33> H    1.37417474  -2.77277040  -0.63808550
| 34> H   -1.02429560  -2.56362255  -1.78685812
| 35> C   -2.43252951  -1.57248008   1.32151225
| 36> H   -2.41074986  -1.50136721   2.39586886
| 37> H   -2.57000110  -2.62371871   1.10930578
| 38> H   -3.42893686  -1.12360650   1.03282506
| 39> C   -1.83790181   1.73059691  -0.73059059
| 40> H   -1.85038716  -0.86358094   0.77653245
| 41> H   -1.40480754   2.55940885  -1.33523604
| 42> H   -2.48147381   2.27861353  -0.02150565
| 43> H   -2.56488984   1.27926587  -1.42583060
| 44> *
| 45>
| 46>                          ****END OF INPUT****

CARTESIAN COORDINATES (ANGSTROEM)
---------------------------------
  Lu     0.080555    0.367271   -0.200050
  C      0.423903    0.955802    2.433778
  C      1.392171   -0.056802    2.197672
  C      2.350765    0.458878    1.318011
  C      1.963849    1.775307    0.963806
  C      0.804281    2.093188    1.709049
  H      2.519558    2.461355    0.335532
  H      0.224539    2.997837    1.633608
  H     -0.320874    0.931390    3.216712
  H      1.383839   -1.039372    2.651343
  H      3.208140   -0.072881    0.940957
  C      1.029244   -0.078246   -2.569166
  C     -0.244626   -0.677620   -2.641096
  C      1.066491   -1.976873   -1.302334
  C      1.853293   -0.917573   -1.771959
  H      1.338195    0.805307   -3.114277
  C     -0.250746   -1.805700   -1.801739
  H     -1.109908   -0.279026   -3.143731
  H      2.900163   -0.764750   -1.559038
  H      1.374175   -2.772770   -0.638085
  H     -1.024296   -2.563623   -1.786858
  C     -2.432530   -1.572480    1.321512
  H     -2.410750   -1.501367    2.395869
  H     -2.570001   -2.623719    1.109306
  H     -3.428937   -1.123606    1.032825
  C     -1.837902    1.730597   -0.730591
  H     -1.850387   -0.863581    0.776532
  H     -1.404808    2.559409   -1.335236
  H     -2.481474    2.278614   -0.021506
  H     -2.564890    1.279266   -1.425831

 Total Charge           Charge          ....    0
 Multiplicity           Mult            ....    1
 Number of Electrons    NEL             ....  132
 Basis Dimension        Dim             ....  295

ORBITAL ENERGIES
----------------

  NO   OCC          E(Eh)            E(eV)
   0   2.0000     -19.269245      -524.3428
   1   2.0000     -12.641725      -343.9988
   2   2.0000     -12.639347      -343.9341
   3   2.0000     -12.638964      -343.9237
   4   2.0000     -10.446709      -284.2694
   5   2.0000     -10.446001      -284.2502
   6   2.0000     -10.445631      -284.2401
   7   2.0000     -10.444494      -284.2091
   8   2.0000     -10.443838      -284.1913
   9   2.0000     -10.443542      -284.1832
  10   2.0000     -10.443430      -284.1802
  11   2.0000     -10.443235      -284.1749
  12   2.0000     -10.442591      -284.1573
  13   2.0000     -10.442464      -284.1539
  14   2.0000     -10.441688      -284.1328
  15   2.0000     -10.371556      -282.2244
  16   2.0000      -5.910907      -160.8439
  17   2.0000      -5.910617      -160.8361
  18   2.0000      -5.910148      -160.8233
  19   2.0000      -5.908786      -160.7862
  20   2.0000      -5.908566      -160.7803
  21   2.0000      -2.452196       -66.7276
  22   2.0000      -1.289316       -35.0841
  23   2.0000      -1.285345       -34.9760
  24   2.0000      -1.276737       -34.7418
  25   2.0000      -0.976347       -26.5677
  26   2.0000      -0.970412       -26.4063
  27   2.0000      -0.804607       -21.8945
  28   2.0000      -0.793523       -21.5929
  29   2.0000      -0.790529       -21.5114
  30   2.0000      -0.788961       -21.4687
  31   2.0000      -0.787848       -21.4384
  32   2.0000      -0.704511       -19.1707
  33   2.0000      -0.613707       -16.6998
  34   2.0000      -0.609912       -16.5965
  35   2.0000      -0.608313       -16.5530
  36   2.0000      -0.607004       -16.5174
  37   2.0000      -0.594023       -16.1642
  38   2.0000      -0.589731       -16.0474
  39   2.0000      -0.578568       -15.7436
  40   2.0000      -0.577228       -15.7072
  41   2.0000      -0.576662       -15.6918
  42   2.0000      -0.576135       -15.6774
  43   2.0000      -0.575537       -15.6612
  44   2.0000      -0.574261       -15.6264
  45   2.0000      -0.572660       -15.5829
  46   2.0000      -0.517703       -14.0874
  47   2.0000      -0.464160       -12.6304
  48   2.0000      -0.464069       -12.6279
  49   2.0000      -0.451290       -12.2802
  50   2.0000      -0.448838       -12.2135
  51   2.0000      -0.447317       -12.1721
  52   2.0000      -0.446533       -12.1508
  53   2.0000      -0.437875       -11.9152
  54   2.0000      -0.431756       -11.7487
  55   2.0000      -0.429143       -11.6776
  56   2.0000      -0.428833       -11.6691
  57   2.0000      -0.426573       -11.6076
  58   2.0000      -0.423919       -11.5354
  59   2.0000      -0.392332       -10.6759
  60   2.0000      -0.389814       -10.6074
  61   2.0000      -0.288522        -7.8511
  62   2.0000      -0.282128        -7.6771
  63   2.0000      -0.276382        -7.5207
  64   2.0000      -0.268310        -7.3011
  65   2.0000      -0.262760        -7.1501
  66   0.0000      -0.024847        -0.6761
  67   0.0000       0.005962         0.1622
  68   0.0000       0.043688         1.1888
  69   0.0000       0.053195         1.4475
  70   0.0000       0.055026         1.4973

MULLIKEN ATOMIC CHARGES
-----------------------
   0 Lu:    0.894539
   1 C :   -0.347163
   2 C :   -0.280715
   3 C :   -0.226870
   4 C :   -0.398560
   5 C :   -0.205939
   6 H :    0.242383
   7 H :    0.253286
   8 H :    0.228981
   9 H :    0.233417
  10 H :    0.231079
  11 C :   -0.387129
  12 C :   -0.191731
  13 C :   -0.239428
  14 C :   -0.264236
  15 H :    0.246147
  16 C :   -0.372171
  17 H :    0.250590
  18 H :    0.233130
  19 H :    0.234602
  20 H :    0.227238
  21 C :   -0.901806
  22 H :    0.250429
  23 H :    0.249950
  24 H :    0.247189
  25 C :   -1.066762
  26 H :    0.212642
  27 H :    0.208044
  28 H :    0.222206
  29 H :    0.216659
Sum of atomic charges:   -0.0000000

LOEWDIN ATOMIC CHARGES
----------------------
   0 Lu:    0.104445
   1 C :   -0.159076
   2 C :   -0.154907
   3 C :   -0.133522
   4 C :   -0.171442
   5 C :   -0.133395
   6 H :    0.155668
   7 H :    0.159062
   8 H :    0.152081
   9 H :    0.149563
  10 H :    0.149224
  11 C :   -0.168199
  12 C :   -0.127757
  13 C :   -0.144986
  14 C :   -0.139567
  15 H :    0.157673
  16 C :   -0.164755
  17 H :    0.157986
  18 H :    0.150745
  19 H :    0.149666
  20 H :    0.151698
  21 C :   -0.483844
  22 H :    0.143548
  23 H :    0.147582
  24 H :    0.148123
  25 C :   -0.650971
  26 H :    0.153041
  27 H :    0.138900
  28 H :    0.131900
  29 H :    0.131516

  Mayer bond orders larger than 0.100000
B(  0-Lu,  1-C ) :   0.2540 B(  0-Lu,  2-C ) :   0.2384 B(  0-Lu,  3-C ) :   0.2272
B(  0-Lu,  4-C ) :   0.2975 B(  0-Lu,  5-C ) :   0.2284 B(  0-Lu, 11-C ) :   0.3030
B(  0-Lu, 12-C ) :   0.2225 B(  0-Lu, 13-C ) :   0.2276 B(  0-Lu, 14-C ) :   0.2419
B(  0-Lu, 16-C ) :   0.2637 B(  0-Lu, 25-C ) :   0.8334 B(  1-C ,  2-C ) :   1.2710
B(  1-C ,  5-C ) :   1.3192 B(  1-C ,  8-H ) :   0.9279 B(  2-C ,  3-C ) :   1.3392
B(  2-C ,  9-H ) :   0.9162 B(  3-C ,  4-C ) :   1.2750 B(  3-C , 10-H ) :   0.9164
B(  4-C ,  5-C ) :   1.2732 B(  4-C ,  6-H ) :   0.9154 B(  5-C ,  7-H ) :   0.9032
B( 11-C , 12-C ) :   1.2861 B( 11-C , 14-C ) :   1.2617 B( 11-C , 15-H ) :   0.9123
B( 12-C , 16-C ) :   1.3065 B( 12-C , 17-H ) :   0.9054 B( 13-C , 14-C ) :   1.3388
B( 13-C , 16-C ) :   1.2736 B( 13-C , 19-H ) :   0.9142 B( 14-C , 18-H ) :   0.9167
B( 16-C , 20-H ) :   0.9295 B( 21-C , 22-H ) :   0.9158 B( 21-C , 23-H ) :   0.9179
B( 21-C , 24-H ) :   0.9214 B( 21-C , 26-H ) :   0.8727 B( 25-C , 27-H ) :   0.8931
B( 25-C , 28-H ) :   0.9134 B( 25-C , 29-H ) :   0.9055

Dispersion correction           -0.016819766
FINAL SINGLE POINT ENERGY     -1702.359241245588
Dispersion correction            ... done

DIPOLE MOMENT
-------------
                                X             Y             Z
Electronic contribution:     -3.84860      17.72380      -8.48386
Nuclear contribution   :      3.84256     -18.33577       8.81163
                        -----------------------------------------
Total Dipole Moment    :     -0.00604      -0.61196       0.32778
                        -----------------------------------------
Magnitude (a.u.)       :      0.69424
Magnitude (Debye)      :      1.76462

Rotational constants in cm-1:     0.026988     0.018936     0.016463
Rotational constants in MHz :   809.074715   567.677551   493.550859

                             ****ORCA TERMINATED NORMALLY****
TOTAL RUN TIME: 0 days 0 hours 8 minutes 7 seconds 268 msec
