                         Program Version 5.0.3 -  RELEASE  -
|  1> ! EnGrad PBEh-3c
|  2> %output
|  3> xyzfile=True
|  4> end
|  5> %scf
|  6> maxiter 250
|  7> end
|  8> %output
|  9> Print[P_Hirshfeld] = 1
| 10> end
| 11> % maxcore
| 12> 4000
| 13> *xyz 0 1
| 14> Lu  -0.03475670   0.35317624  -0.16881754
| 15> C    0.42160163   0.92651614   2.42195996
| 16> C    1.38582399  -0.06537968   2.19159487
| 17> C    2.34544433   0.45684865   1.30479200
| 18> C    1.95246792   1.76561686   0.95151373
| 19> C    0.79948823   2.08341839   1.70259446
| 20> H    2.50557237   2.45532217   0.32669561
| 21> H    0.22909953   2.99418693   1.65092889
| 22> H   -0.33521943   0.89858868   3.19397504
| 23> H    1.40003865  -1.04883101   2.64733919
| 24> H    3.21572414  -0.07058628   0.94207833
| 25> C    1.02380665  -0.07673588  -2.55472670
| 26> C   -0.25430889  -0.67358068  -2.61975791
| 27> C    1.06102128  -1.97400574  -1.28796310
| 28> C    1.84585892  -0.90983859  -1.76311802
| 29> H    1.33136730   0.80711476  -3.09971766
| 30> C   -0.25027102  -1.79894502  -1.77065401
| 31> H   -1.11217447  -0.28669212  -3.14235501
| 32> H    2.89838061  -0.76460670  -1.56096519
| 33> H    1.39112758  -2.77885228  -0.64266952
| 34> H   -1.03420049  -2.54417489  -1.72735533
| 35> C   -2.53782774  -1.53379217   1.31068235
| 36> H   -2.35163229  -1.46667383   2.35389196
| 37> H   -2.40552131  -2.57281566   1.05824183
| 38> H   -3.43789964  -1.22531862   1.08731479
| 39> C   -1.80477549   1.74838687  -0.75517965
| 40> H   -1.93330448  -0.84214477   0.77704464
| 41> H   -1.37490150   2.56185094  -1.34306158
| 42> H   -2.43905681   2.28274874  -0.04808189
| 43> H   -2.52809129   1.31252745  -1.44833851
| 44> *
| 45>
| 46>                          ****END OF INPUT****

CARTESIAN COORDINATES (ANGSTROEM)
---------------------------------
  Lu    -0.034757    0.353176   -0.168818
  C      0.421602    0.926516    2.421960
  C      1.385824   -0.065380    2.191595
  C      2.345444    0.456849    1.304792
  C      1.952468    1.765617    0.951514
  C      0.799488    2.083418    1.702594
  H      2.505572    2.455322    0.326696
  H      0.229100    2.994187    1.650929
  H     -0.335219    0.898589    3.193975
  H      1.400039   -1.048831    2.647339
  H      3.215724   -0.070586    0.942078
  C      1.023807   -0.076736   -2.554727
  C     -0.254309   -0.673581   -2.619758
  C      1.061021   -1.974006   -1.287963
  C      1.845859   -0.909839   -1.763118
  H      1.331367    0.807115   -3.099718
  C     -0.250271   -1.798945   -1.770654
  H     -1.112174   -0.286692   -3.142355
  H      2.898381   -0.764607   -1.560965
  H      1.391128   -2.778852   -0.642670
  H     -1.034200   -2.544175   -1.727355
  C     -2.537828   -1.533792    1.310682
  H     -2.351632   -1.466674    2.353892
  H     -2.405521   -2.572816    1.058242
  H     -3.437900   -1.225319    1.087315
  C     -1.804775    1.748387   -0.755180
  H     -1.933304   -0.842145    0.777045
  H     -1.374901    2.561851   -1.343062
  H     -2.439057    2.282749   -0.048082
  H     -2.528091    1.312527   -1.448339

 Total Charge           Charge          ....    0
 Multiplicity           Mult            ....    1
 Number of Electrons    NEL             ....  132
 Basis Dimension        Dim             ....  295

ORBITAL ENERGIES
----------------

  NO   OCC          E(Eh)            E(eV)
   0   2.0000     -19.267577      -524.2974
   1   2.0000     -12.640026      -343.9526
   2   2.0000     -12.637707      -343.8895
   3   2.0000     -12.637258      -343.8773
   4   2.0000     -10.442672      -284.1595
   5   2.0000     -10.442171      -284.1459
   6   2.0000     -10.441843      -284.1370
   7   2.0000     -10.441317      -284.1227
   8   2.0000     -10.440964      -284.1131
   9   2.0000     -10.440955      -284.1128
  10   2.0000     -10.439833      -284.0823
  11   2.0000     -10.439618      -284.0764
  12   2.0000     -10.439122      -284.0629
  13   2.0000     -10.438525      -284.0467
  14   2.0000     -10.432422      -283.8806
  15   2.0000     -10.367021      -282.1010
  16   2.0000      -5.909244      -160.7987
  17   2.0000      -5.908934      -160.7903
  18   2.0000      -5.908418      -160.7762
  19   2.0000      -5.907144      -160.7416
  20   2.0000      -5.906878      -160.7343
  21   2.0000      -2.450579       -66.6837
  22   2.0000      -1.287796       -35.0427
  23   2.0000      -1.283115       -34.9153
  24   2.0000      -1.275714       -34.7139
  25   2.0000      -0.973350       -26.4862
  26   2.0000      -0.968040       -26.3417
  27   2.0000      -0.826278       -22.4842
  28   2.0000      -0.788414       -21.4538
  29   2.0000      -0.788065       -21.4443
  30   2.0000      -0.787482       -21.4285
  31   2.0000      -0.783967       -21.3328
  32   2.0000      -0.714477       -19.4419
  33   2.0000      -0.609677       -16.5902
  34   2.0000      -0.607031       -16.5182
  35   2.0000      -0.605683       -16.4815
  36   2.0000      -0.603929       -16.4337
  37   2.0000      -0.591215       -16.0878
  38   2.0000      -0.586926       -15.9711
  39   2.0000      -0.576779       -15.6950
  40   2.0000      -0.575544       -15.6613
  41   2.0000      -0.575343       -15.6559
  42   2.0000      -0.574481       -15.6324
  43   2.0000      -0.573806       -15.6140
  44   2.0000      -0.572636       -15.5822
  45   2.0000      -0.571074       -15.5397
  46   2.0000      -0.509153       -13.8548
  47   2.0000      -0.489647       -13.3240
  48   2.0000      -0.470623       -12.8063
  49   2.0000      -0.459214       -12.4958
  50   2.0000      -0.447033       -12.1644
  51   2.0000      -0.446610       -12.1529
  52   2.0000      -0.444749       -12.1022
  53   2.0000      -0.441910       -12.0250
  54   2.0000      -0.433596       -11.7987
  55   2.0000      -0.427733       -11.6392
  56   2.0000      -0.426489       -11.6053
  57   2.0000      -0.424550       -11.5526
  58   2.0000      -0.422754       -11.5037
  59   2.0000      -0.400256       -10.8915
  60   2.0000      -0.397444       -10.8150
  61   2.0000      -0.286437        -7.7943
  62   2.0000      -0.278720        -7.5844
  63   2.0000      -0.277962        -7.5637
  64   2.0000      -0.273762        -7.4494
  65   2.0000      -0.253994        -6.9115
  66   0.0000      -0.021700        -0.5905
  67   0.0000       0.010930         0.2974
  68   0.0000       0.044370         1.2074
  69   0.0000       0.048866         1.3297
  70   0.0000       0.051304         1.3961

MULLIKEN ATOMIC CHARGES
-----------------------
   0 Lu:    0.930972
   1 C :   -0.369201
   2 C :   -0.271670
   3 C :   -0.224106
   4 C :   -0.382151
   5 C :   -0.217337
   6 H :    0.237350
   7 H :    0.249766
   8 H :    0.229510
   9 H :    0.229816
  10 H :    0.225708
  11 C :   -0.369296
  12 C :   -0.209740
  13 C :   -0.234300
  14 C :   -0.255955
  15 H :    0.241332
  16 C :   -0.387507
  17 H :    0.247181
  18 H :    0.227489
  19 H :    0.229953
  20 H :    0.227853
  21 C :   -0.890024
  22 H :    0.249107
  23 H :    0.243448
  24 H :    0.284393
  25 C :   -1.103910
  26 H :    0.177885
  27 H :    0.226096
  28 H :    0.231670
  29 H :    0.225669
Sum of atomic charges:    0.0000000

LOEWDIN ATOMIC CHARGES
----------------------
   0 Lu:    0.122055
   1 C :   -0.170084
   2 C :   -0.156401
   3 C :   -0.136417
   4 C :   -0.165716
   5 C :   -0.140832
   6 H :    0.153281
   7 H :    0.157483
   8 H :    0.151099
   9 H :    0.147865
  10 H :    0.146552
  11 C :   -0.163727
  12 C :   -0.137107
  13 C :   -0.147744
  14 C :   -0.139745
  15 H :    0.155131
  16 C :   -0.172585
  17 H :    0.156856
  18 H :    0.147784
  19 H :    0.147807
  20 H :    0.150245
  21 C :   -0.459369
  22 H :    0.145198
  23 H :    0.146194
  24 H :    0.145157
  25 C :   -0.650160
  26 H :    0.143366
  27 H :    0.147586
  28 H :    0.137723
  29 H :    0.138507

  Mayer bond orders larger than 0.100000
B(  0-Lu,  1-C ) :   0.2668 B(  0-Lu,  2-C ) :   0.2303 B(  0-Lu,  3-C ) :   0.2060
B(  0-Lu,  4-C ) :   0.2748 B(  0-Lu,  5-C ) :   0.2318 B(  0-Lu, 11-C ) :   0.2861
B(  0-Lu, 12-C ) :   0.2289 B(  0-Lu, 13-C ) :   0.2169 B(  0-Lu, 14-C ) :   0.2189
B(  0-Lu, 16-C ) :   0.2758 B(  0-Lu, 25-C ) :   0.8393 B(  1-C ,  2-C ) :   1.2739
B(  1-C ,  5-C ) :   1.3015 B(  1-C ,  8-H ) :   0.9255 B(  2-C ,  3-C ) :   1.3432
B(  2-C ,  9-H ) :   0.9173 B(  3-C ,  4-C ) :   1.2964 B(  3-C , 10-H ) :   0.9190
B(  4-C ,  5-C ) :   1.2842 B(  4-C ,  6-H ) :   0.9185 B(  5-C ,  7-H ) :   0.9051
B( 11-C , 12-C ) :   1.2895 B( 11-C , 14-C ) :   1.2838 B( 11-C , 15-H ) :   0.9147
B( 12-C , 16-C ) :   1.2941 B( 12-C , 17-H ) :   0.9076 B( 13-C , 14-C ) :   1.3469
B( 13-C , 16-C ) :   1.2751 B( 13-C , 19-H ) :   0.9166 B( 14-C , 18-H ) :   0.9192
B( 16-C , 20-H ) :   0.9266 B( 21-C , 22-H ) :   0.9218 B( 21-C , 23-H ) :   0.9258
B( 21-C , 24-H ) :   0.9012 B( 21-C , 26-H ) :   0.8835 B( 25-C , 27-H ) :   0.8886
B( 25-C , 28-H ) :   0.9078 B( 25-C , 29-H ) :   0.9003

Dispersion correction           -0.016915304
FINAL SINGLE POINT ENERGY     -1702.360216401125
Dispersion correction            ... done

DIPOLE MOMENT
-------------
                                X             Y             Z
Electronic contribution:     -9.63320      16.96946      -6.85900
Nuclear contribution   :      9.39576     -17.59928       7.25781
                        -----------------------------------------
Total Dipole Moment    :     -0.23743      -0.62982       0.39881
                        -----------------------------------------
Magnitude (a.u.)       :      0.78237
Magnitude (Debye)      :      1.98861

Rotational constants in cm-1:     0.026655     0.019169     0.016461
Rotational constants in MHz :   799.106782   574.668816   493.490228

                             ****ORCA TERMINATED NORMALLY****
TOTAL RUN TIME: 0 days 0 hours 8 minutes 9 seconds 426 msec
