                         Program Version 5.0.3 -  RELEASE  -
|  1> ! EnGrad PBEh-3c
|  2> %output
|  3> xyzfile=True
|  4> end
|  5> %scf
|  6> maxiter 250
|  7> end
|  8> %output
|  9> Print[P_Hirshfeld] = 1
| 10> end
| 11> % maxcore
| 12> 4000
| 13> *xyz 0 1
| 14> Lu  -0.02108971   0.34421247  -0.16312877
| 15> C    0.43280503   0.92782122   2.41743156
| 16> C    1.37892666  -0.07088775   2.19119015
| 17> C    2.34521307   0.44735065   1.29122058
| 18> C    1.94843373   1.76713613   0.94971525
| 19> C    0.78446472   2.06800895   1.69559992
| 20> H    2.49865094   2.45026127   0.32555610
| 21> H    0.22789183   2.99575252   1.65619428
| 22> H   -0.34476893   0.88884272   3.19476139
| 23> H    1.40670972  -1.05114606   2.64614316
| 24> H    3.21470195  -0.06810052   0.94166039
| 25> C    1.01809477  -0.07473347  -2.55407025
| 26> C   -0.26226559  -0.67126901  -2.59747573
| 27> C    1.05179486  -1.97458623  -1.27334226
| 28> C    1.85110097  -0.90191605  -1.75369289
| 29> H    1.32749949   0.80461572  -3.09299024
| 30> C   -0.24074497  -1.79658283  -1.77799272
| 31> H   -1.11697452  -0.28829602  -3.14271146
| 32> H    2.89274965  -0.76404268  -1.56166224
| 33> H    1.39588158  -2.77900321  -0.64491604
| 34> H   -1.04187695  -2.54457606  -1.71157813
| 35> C   -2.52133958  -1.55004560   1.32508341
| 36> H   -2.33550338  -1.45280877   2.35956063
| 37> H   -2.36592975  -2.56535751   1.04021517
| 38> H   -3.49890228  -1.23161632   1.08050319
| 39> C   -1.80478888   1.75614721  -0.76316513
| 40> H   -1.93050435  -0.81976185   0.76177667
| 41> H   -1.36063193   2.56280497  -1.34464144
| 42> H   -2.43385142   2.28987101  -0.05104229
| 43> H   -2.52271294   1.31892695  -1.45893937
| 44> *
| 45>
| 46>                          ****END OF INPUT****

CARTESIAN COORDINATES (ANGSTROEM)
---------------------------------
  Lu    -0.021090    0.344212   -0.163129
  C      0.432805    0.927821    2.417432
  C      1.378927   -0.070888    2.191190
  C      2.345213    0.447351    1.291221
  C      1.948434    1.767136    0.949715
  C      0.784465    2.068009    1.695600
  H      2.498651    2.450261    0.325556
  H      0.227892    2.995753    1.656194
  H     -0.344769    0.888843    3.194761
  H      1.406710   -1.051146    2.646143
  H      3.214702   -0.068101    0.941660
  C      1.018095   -0.074733   -2.554070
  C     -0.262266   -0.671269   -2.597476
  C      1.051795   -1.974586   -1.273342
  C      1.851101   -0.901916   -1.753693
  H      1.327499    0.804616   -3.092990
  C     -0.240745   -1.796583   -1.777993
  H     -1.116975   -0.288296   -3.142711
  H      2.892750   -0.764043   -1.561662
  H      1.395882   -2.779003   -0.644916
  H     -1.041877   -2.544576   -1.711578
  C     -2.521340   -1.550046    1.325083
  H     -2.335503   -1.452809    2.359561
  H     -2.365930   -2.565358    1.040215
  H     -3.498902   -1.231616    1.080503
  C     -1.804789    1.756147   -0.763165
  H     -1.930504   -0.819762    0.761777
  H     -1.360632    2.562805   -1.344641
  H     -2.433851    2.289871   -0.051042
  H     -2.522713    1.318927   -1.458939

 Total Charge           Charge          ....    0
 Multiplicity           Mult            ....    1
 Number of Electrons    NEL             ....  132
 Basis Dimension        Dim             ....  295

ORBITAL ENERGIES
----------------

  NO   OCC          E(Eh)            E(eV)
   0   2.0000     -19.265867      -524.2509
   1   2.0000     -12.638352      -343.9070
   2   2.0000     -12.635990      -343.8428
   3   2.0000     -12.635510      -343.8297
   4   2.0000     -10.443307      -284.1768
   5   2.0000     -10.443104      -284.1713
   6   2.0000     -10.442919      -284.1663
   7   2.0000     -10.441771      -284.1350
   8   2.0000     -10.441605      -284.1305
   9   2.0000     -10.441353      -284.1237
  10   2.0000     -10.441002      -284.1141
  11   2.0000     -10.440658      -284.1048
  12   2.0000     -10.439922      -284.0847
  13   2.0000     -10.438880      -284.0564
  14   2.0000     -10.438172      -284.0371
  15   2.0000     -10.365142      -282.0499
  16   2.0000      -5.907552      -160.7527
  17   2.0000      -5.907241      -160.7442
  18   2.0000      -5.906695      -160.7293
  19   2.0000      -5.905389      -160.6938
  20   2.0000      -5.905139      -160.6870
  21   2.0000      -2.448875       -66.6373
  22   2.0000      -1.286219       -34.9998
  23   2.0000      -1.282064       -34.8867
  24   2.0000      -1.273753       -34.6606
  25   2.0000      -0.974429       -26.5156
  26   2.0000      -0.968740       -26.3608
  27   2.0000      -0.817236       -22.2381
  28   2.0000      -0.789198       -21.4752
  29   2.0000      -0.788352       -21.4521
  30   2.0000      -0.788012       -21.4429
  31   2.0000      -0.784762       -21.3545
  32   2.0000      -0.711462       -19.3599
  33   2.0000      -0.612839       -16.6762
  34   2.0000      -0.608752       -16.5650
  35   2.0000      -0.604126       -16.4391
  36   2.0000      -0.602524       -16.3955
  37   2.0000      -0.591746       -16.1022
  38   2.0000      -0.587503       -15.9868
  39   2.0000      -0.575076       -15.6486
  40   2.0000      -0.573836       -15.6149
  41   2.0000      -0.573720       -15.6117
  42   2.0000      -0.572778       -15.5861
  43   2.0000      -0.572064       -15.5667
  44   2.0000      -0.570904       -15.5351
  45   2.0000      -0.569337       -15.4924
  46   2.0000      -0.502680       -13.6786
  47   2.0000      -0.482218       -13.1218
  48   2.0000      -0.473600       -12.8873
  49   2.0000      -0.458109       -12.4658
  50   2.0000      -0.447610       -12.1801
  51   2.0000      -0.447032       -12.1644
  52   2.0000      -0.445734       -12.1290
  53   2.0000      -0.443370       -12.0647
  54   2.0000      -0.433459       -11.7950
  55   2.0000      -0.431241       -11.7347
  56   2.0000      -0.430116       -11.7040
  57   2.0000      -0.422518       -11.4973
  58   2.0000      -0.420353       -11.4384
  59   2.0000      -0.398440       -10.8421
  60   2.0000      -0.395743       -10.7687
  61   2.0000      -0.287110        -7.8126
  62   2.0000      -0.278866        -7.5883
  63   2.0000      -0.276487        -7.5236
  64   2.0000      -0.270783        -7.3684
  65   2.0000      -0.254780        -6.9329
  66   0.0000      -0.020866        -0.5678
  67   0.0000       0.010520         0.2863
  68   0.0000       0.044213         1.2031
  69   0.0000       0.050966         1.3869
  70   0.0000       0.051949         1.4136

MULLIKEN ATOMIC CHARGES
-----------------------
   0 Lu:    0.905865
   1 C :   -0.346267
   2 C :   -0.275208
   3 C :   -0.237771
   4 C :   -0.364487
   5 C :   -0.232290
   6 H :    0.237902
   7 H :    0.249671
   8 H :    0.228802
   9 H :    0.230350
  10 H :    0.226620
  11 C :   -0.352318
  12 C :   -0.228662
  13 C :   -0.250517
  14 C :   -0.262567
  15 H :    0.241490
  16 C :   -0.354247
  17 H :    0.246546
  18 H :    0.228335
  19 H :    0.230083
  20 H :    0.227299
  21 C :   -0.880852
  22 H :    0.254742
  23 H :    0.249754
  24 H :    0.267904
  25 C :   -1.091738
  26 H :    0.177514
  27 H :    0.223511
  28 H :    0.227878
  29 H :    0.222657
Sum of atomic charges:    0.0000000

LOEWDIN ATOMIC CHARGES
----------------------
   0 Lu:    0.101959
   1 C :   -0.163316
   2 C :   -0.157463
   3 C :   -0.134732
   4 C :   -0.161905
   5 C :   -0.142735
   6 H :    0.153167
   7 H :    0.158868
   8 H :    0.151419
   9 H :    0.148510
  10 H :    0.146601
  11 C :   -0.159540
  12 C :   -0.140706
  13 C :   -0.150957
  14 C :   -0.137910
  15 H :    0.154786
  16 C :   -0.164375
  17 H :    0.158194
  18 H :    0.147458
  19 H :    0.148328
  20 H :    0.150068
  21 C :   -0.456778
  22 H :    0.144601
  23 H :    0.145120
  24 H :    0.149820
  25 C :   -0.650970
  26 H :    0.145231
  27 H :    0.145408
  28 H :    0.135598
  29 H :    0.136250

  Mayer bond orders larger than 0.100000
B(  0-Lu,  1-C ) :   0.2616 B(  0-Lu,  2-C ) :   0.2364 B(  0-Lu,  3-C ) :   0.2142
B(  0-Lu,  4-C ) :   0.2781 B(  0-Lu,  5-C ) :   0.2347 B(  0-Lu, 11-C ) :   0.2867
B(  0-Lu, 12-C ) :   0.2321 B(  0-Lu, 13-C ) :   0.2260 B(  0-Lu, 14-C ) :   0.2279
B(  0-Lu, 16-C ) :   0.2674 B(  0-Lu, 25-C ) :   0.8399 B(  1-C ,  2-C ) :   1.2772
B(  1-C ,  5-C ) :   1.3068 B(  1-C ,  8-H ) :   0.9234 B(  2-C ,  3-C ) :   1.3331
B(  2-C ,  9-H ) :   0.9177 B(  3-C ,  4-C ) :   1.3018 B(  3-C , 10-H ) :   0.9201
B(  4-C ,  5-C ) :   1.2781 B(  4-C ,  6-H ) :   0.9182 B(  5-C ,  7-H ) :   0.9072
B( 11-C , 12-C ) :   1.2833 B( 11-C , 14-C ) :   1.2918 B( 11-C , 15-H ) :   0.9145
B( 12-C , 16-C ) :   1.3006 B( 12-C , 17-H ) :   0.9100 B( 13-C , 14-C ) :   1.3319
B( 13-C , 16-C ) :   1.2826 B( 13-C , 19-H ) :   0.9180 B( 14-C , 18-H ) :   0.9199
B( 16-C , 20-H ) :   0.9240 B( 21-C , 22-H ) :   0.9151 B( 21-C , 23-H ) :   0.9183
B( 21-C , 24-H ) :   0.9113 B( 21-C , 26-H ) :   0.8761 B( 25-C , 27-H ) :   0.8901
B( 25-C , 28-H ) :   0.9096 B( 25-C , 29-H ) :   0.9025

Dispersion correction           -0.016946968
FINAL SINGLE POINT ENERGY     -1702.371011731139
Dispersion correction            ... done

DIPOLE MOMENT
-------------
                                X             Y             Z
Electronic contribution:     -8.90161      16.50638      -6.56601
Nuclear contribution   :      8.70833     -17.17805       6.99628
                        -----------------------------------------
Total Dipole Moment    :     -0.19328      -0.67167       0.43027
                        -----------------------------------------
Magnitude (a.u.)       :      0.82075
Magnitude (Debye)      :      2.08618

Rotational constants in cm-1:     0.026732     0.019244     0.016567
Rotational constants in MHz :   801.413295   576.927580   496.652341

                             ****ORCA TERMINATED NORMALLY****
TOTAL RUN TIME: 0 days 0 hours 8 minutes 13 seconds 707 msec
