                         Program Version 5.0.3 -  RELEASE  -
|  1> ! EnGrad PBEh-3c
|  2> %output
|  3> xyzfile=True
|  4> end
|  5> %scf
|  6> maxiter 250
|  7> end
|  8> %output
|  9> Print[P_Hirshfeld] = 1
| 10> end
| 11> % maxcore
| 12> 4000
| 13> *xyz 0 1
| 14> Lu  -0.00906405   0.33464102  -0.15674394
| 15> C    0.42975064   0.92483738   2.42444220
| 16> C    1.38010443  -0.07914864   2.18262751
| 17> C    2.33449693   0.44221513   1.27958911
| 18> C    1.94314211   1.76139829   0.94872788
| 19> C    0.77049511   2.05981706   1.68148322
| 20> H    2.49162004   2.44643504   0.32231867
| 21> H    0.22818815   2.99542725   1.66351679
| 22> H   -0.35127668   0.87685787   3.18705785
| 23> H    1.41390839  -1.05420282   2.64520181
| 24> H    3.21759234  -0.06768803   0.93939545
| 25> C    1.01447067  -0.07650586  -2.54739848
| 26> C   -0.27219675  -0.65942756  -2.57947173
| 27> C    1.05120747  -1.96576004  -1.25875571
| 28> C    1.84252870  -0.89603306  -1.74376586
| 29> H    1.32365313   0.80411875  -3.08680521
| 30> C   -0.24260266  -1.80596423  -1.77925047
| 31> H   -1.12009155  -0.29168183  -3.14170901
| 32> H    2.89217326  -0.76220739  -1.56129543
| 33> H    1.40165255  -2.78108452  -0.64643012
| 34> H   -1.04624016  -2.53802002  -1.69099676
| 35> C   -2.52797946  -1.54516806   1.32454404
| 36> H   -2.31380489  -1.43511505   2.36989767
| 37> H   -2.31254167  -2.55937351   1.01543980
| 38> H   -3.54676163  -1.25284390   1.08348240
| 39> C   -1.80037133   1.76245022  -0.77161454
| 40> H   -1.93719872  -0.80374654   0.75124924
| 41> H   -1.34270990   2.56620677  -1.34876283
| 42> H   -2.42461637   2.29621449  -0.05311024
| 43> H   -2.51482272   1.32570562  -1.47171540
| 44> *
| 45>
| 46>                          ****END OF INPUT****

CARTESIAN COORDINATES (ANGSTROEM)
---------------------------------
  Lu    -0.009064    0.334641   -0.156744
  C      0.429751    0.924837    2.424442
  C      1.380104   -0.079149    2.182628
  C      2.334497    0.442215    1.279589
  C      1.943142    1.761398    0.948728
  C      0.770495    2.059817    1.681483
  H      2.491620    2.446435    0.322319
  H      0.228188    2.995427    1.663517
  H     -0.351277    0.876858    3.187058
  H      1.413908   -1.054203    2.645202
  H      3.217592   -0.067688    0.939395
  C      1.014471   -0.076506   -2.547398
  C     -0.272197   -0.659428   -2.579472
  C      1.051207   -1.965760   -1.258756
  C      1.842529   -0.896033   -1.743766
  H      1.323653    0.804119   -3.086805
  C     -0.242603   -1.805964   -1.779250
  H     -1.120092   -0.291682   -3.141709
  H      2.892173   -0.762207   -1.561295
  H      1.401653   -2.781085   -0.646430
  H     -1.046240   -2.538020   -1.690997
  C     -2.527979   -1.545168    1.324544
  H     -2.313805   -1.435115    2.369898
  H     -2.312542   -2.559374    1.015440
  H     -3.546762   -1.252844    1.083482
  C     -1.800371    1.762450   -0.771615
  H     -1.937199   -0.803747    0.751249
  H     -1.342710    2.566207   -1.348763
  H     -2.424616    2.296214   -0.053110
  H     -2.514823    1.325706   -1.471715

 Total Charge           Charge          ....    0
 Multiplicity           Mult            ....    1
 Number of Electrons    NEL             ....  132
 Basis Dimension        Dim             ....  295

ORBITAL ENERGIES
----------------

  NO   OCC          E(Eh)            E(eV)
   0   2.0000     -19.263775      -524.1940
   1   2.0000     -12.636295      -343.8511
   2   2.0000     -12.633880      -343.7854
   3   2.0000     -12.633380      -343.7717
   4   2.0000     -10.451169      -284.3908
   5   2.0000     -10.443648      -284.1861
   6   2.0000     -10.443222      -284.1745
   7   2.0000     -10.442522      -284.1555
   8   2.0000     -10.442212      -284.1470
   9   2.0000     -10.441937      -284.1396
  10   2.0000     -10.441616      -284.1308
  11   2.0000     -10.441408      -284.1252
  12   2.0000     -10.441043      -284.1152
  13   2.0000     -10.439600      -284.0760
  14   2.0000     -10.438187      -284.0375
  15   2.0000     -10.363799      -282.0133
  16   2.0000      -5.905472      -160.6961
  17   2.0000      -5.905154      -160.6874
  18   2.0000      -5.904590      -160.6721
  19   2.0000      -5.903247      -160.6355
  20   2.0000      -5.903007      -160.6290
  21   2.0000      -2.446819       -66.5813
  22   2.0000      -1.284387       -34.9500
  23   2.0000      -1.280586       -34.8465
  24   2.0000      -1.271670       -34.6039
  25   2.0000      -0.974938       -26.5294
  26   2.0000      -0.968880       -26.3646
  27   2.0000      -0.810229       -22.0474
  28   2.0000      -0.790063       -21.4987
  29   2.0000      -0.788746       -21.4629
  30   2.0000      -0.788473       -21.4554
  31   2.0000      -0.785665       -21.3790
  32   2.0000      -0.707884       -19.2625
  33   2.0000      -0.612206       -16.6590
  34   2.0000      -0.608238       -16.5510
  35   2.0000      -0.605890       -16.4871
  36   2.0000      -0.604439       -16.4476
  37   2.0000      -0.592527       -16.1235
  38   2.0000      -0.588095       -16.0029
  39   2.0000      -0.573022       -15.5927
  40   2.0000      -0.571790       -15.5592
  41   2.0000      -0.571682       -15.5562
  42   2.0000      -0.570676       -15.5289
  43   2.0000      -0.569969       -15.5096
  44   2.0000      -0.568777       -15.4772
  45   2.0000      -0.567194       -15.4341
  46   2.0000      -0.493737       -13.4353
  47   2.0000      -0.479503       -13.0479
  48   2.0000      -0.473462       -12.8836
  49   2.0000      -0.458016       -12.4632
  50   2.0000      -0.448401       -12.2016
  51   2.0000      -0.447465       -12.1761
  52   2.0000      -0.446893       -12.1606
  53   2.0000      -0.444570       -12.0974
  54   2.0000      -0.432320       -11.7640
  55   2.0000      -0.430980       -11.7276
  56   2.0000      -0.428827       -11.6690
  57   2.0000      -0.425507       -11.5786
  58   2.0000      -0.423563       -11.5257
  59   2.0000      -0.395846       -10.7715
  60   2.0000      -0.393899       -10.7185
  61   2.0000      -0.288007        -7.8371
  62   2.0000      -0.278826        -7.5872
  63   2.0000      -0.276428        -7.5220
  64   2.0000      -0.266918        -7.2632
  65   2.0000      -0.256436        -6.9780
  66   0.0000      -0.020241        -0.5508
  67   0.0000       0.009998         0.2721
  68   0.0000       0.043775         1.1912
  69   0.0000       0.052657         1.4329
  70   0.0000       0.053360         1.4520

MULLIKEN ATOMIC CHARGES
-----------------------
   0 Lu:    0.883661
   1 C :   -0.324130
   2 C :   -0.281629
   3 C :   -0.245865
   4 C :   -0.341578
   5 C :   -0.255232
   6 H :    0.238712
   7 H :    0.249173
   8 H :    0.230287
   9 H :    0.230674
  10 H :    0.227030
  11 C :   -0.330511
  12 C :   -0.256828
  13 C :   -0.269395
  14 C :   -0.263363
  15 H :    0.241756
  16 C :   -0.320030
  17 H :    0.245410
  18 H :    0.228597
  19 H :    0.229456
  20 H :    0.228672
  21 C :   -0.873675
  22 H :    0.252304
  23 H :    0.247360
  24 H :    0.262957
  25 C :   -1.080036
  26 H :    0.182100
  27 H :    0.220115
  28 H :    0.224206
  29 H :    0.219800
Sum of atomic charges:    0.0000000

LOEWDIN ATOMIC CHARGES
----------------------
   0 Lu:    0.081818
   1 C :   -0.158223
   2 C :   -0.156977
   3 C :   -0.133698
   4 C :   -0.158199
   5 C :   -0.142514
   6 H :    0.153809
   7 H :    0.159397
   8 H :    0.151421
   9 H :    0.148882
  10 H :    0.147668
  11 C :   -0.155598
  12 C :   -0.141739
  13 C :   -0.152476
  14 C :   -0.137018
  15 H :    0.155138
  16 C :   -0.158131
  17 H :    0.158509
  18 H :    0.148244
  19 H :    0.148787
  20 H :    0.149637
  21 C :   -0.454968
  22 H :    0.144644
  23 H :    0.144427
  24 H :    0.150977
  25 C :   -0.650209
  26 H :    0.145098
  27 H :    0.143303
  28 H :    0.133707
  29 H :    0.134283

  Mayer bond orders larger than 0.100000
B(  0-Lu,  1-C ) :   0.2611 B(  0-Lu,  2-C ) :   0.2416 B(  0-Lu,  3-C ) :   0.2199
B(  0-Lu,  4-C ) :   0.2793 B(  0-Lu,  5-C ) :   0.2390 B(  0-Lu, 11-C ) :   0.2852
B(  0-Lu, 12-C ) :   0.2367 B(  0-Lu, 13-C ) :   0.2339 B(  0-Lu, 14-C ) :   0.2335
B(  0-Lu, 16-C ) :   0.2641 B(  0-Lu, 25-C ) :   0.8397 B(  1-C ,  2-C ) :   1.2767
B(  1-C ,  5-C ) :   1.3084 B(  1-C ,  8-H ) :   0.9226 B(  2-C ,  3-C ) :   1.3288
B(  2-C ,  9-H ) :   0.9182 B(  3-C ,  4-C ) :   1.3007 B(  3-C , 10-H ) :   0.9210
B(  4-C ,  5-C ) :   1.2773 B(  4-C ,  6-H ) :   0.9172 B(  5-C ,  7-H ) :   0.9101
B( 11-C , 12-C ) :   1.2827 B( 11-C , 14-C ) :   1.2934 B( 11-C , 15-H ) :   0.9139
B( 12-C , 16-C ) :   1.3037 B( 12-C , 17-H ) :   0.9130 B( 13-C , 14-C ) :   1.3241
B( 13-C , 16-C ) :   1.2843 B( 13-C , 19-H ) :   0.9197 B( 14-C , 18-H ) :   0.9202
B( 16-C , 20-H ) :   0.9224 B( 21-C , 22-H ) :   0.9141 B( 21-C , 23-H ) :   0.9165
B( 21-C , 24-H ) :   0.9137 B( 21-C , 26-H ) :   0.8690 B( 25-C , 27-H ) :   0.8917
B( 25-C , 28-H ) :   0.9110 B( 25-C , 29-H ) :   0.9043

Dispersion correction           -0.016991919
FINAL SINGLE POINT ENERGY     -1702.376955098105
Dispersion correction            ... done

DIPOLE MOMENT
-------------
                                X             Y             Z
Electronic contribution:     -8.15786      16.00134      -6.23510
Nuclear contribution   :      8.03503     -16.70119       6.68804
                        -----------------------------------------
Total Dipole Moment    :     -0.12283      -0.69985       0.45294
                        -----------------------------------------
Magnitude (a.u.)       :      0.84263
Magnitude (Debye)      :      2.14179

Rotational constants in cm-1:     0.026835     0.019357     0.016672
Rotational constants in MHz :   804.501650   580.309717   499.818350

                             ****ORCA TERMINATED NORMALLY****
TOTAL RUN TIME: 0 days 0 hours 8 minutes 16 seconds 651 msec
