                         Program Version 5.0.3 -  RELEASE  -
|  1> ! EnGrad PBEh-3c
|  2> %output
|  3> xyzfile=True
|  4> end
|  5> %scf
|  6> maxiter 250
|  7> end
|  8> %output
|  9> Print[P_Hirshfeld] = 1
| 10> end
| 11> % maxcore
| 12> 4000
| 13> *xyz 0 1
| 14> Lu   0.02865625   0.30654902  -0.14134037
| 15> C    0.42120368   0.90850560   2.43618287
| 16> C    1.37758233  -0.09767599   2.15786622
| 17> C    2.31005882   0.42159487   1.24642449
| 18> C    1.92028268   1.74528790   0.93827277
| 19> C    0.73167399   2.03167608   1.65001817
| 20> H    2.46679020   2.43325431   0.31082033
| 21> H    0.22634343   2.99153486   1.68458582
| 22> H   -0.37241492   0.83748303   3.16374963
| 23> H    1.43813119  -1.06649817   2.64249454
| 24> H    3.21996269  -0.06342411   0.93112846
| 25> C    0.99595279  -0.07409561  -2.52297729
| 26> C   -0.29787460  -0.63789640  -2.52838334
| 27> C    1.04694698  -1.94230545  -1.21930750
| 28> C    1.82487511  -0.87977805  -1.70902913
| 29> H    1.30993135   0.80345544  -3.06581159
| 30> C   -0.25087985  -1.82202517  -1.77198206
| 31> H   -1.13234125  -0.30079348  -3.13374691
| 32> H    2.88354496  -0.75489000  -1.55998895
| 33> H    1.41971422  -2.78644971  -0.64971440
| 34> H   -1.06142218  -2.52103402  -1.62635768
| 35> C   -2.52341582  -1.52784095   1.31259350
| 36> H   -2.25820998  -1.38229751   2.37510442
| 37> H   -2.15530884  -2.51161190   0.94978507
| 38> H   -3.66429796  -1.33138270   1.09786863
| 39> C   -1.77874096   1.77500655  -0.79298388
| 40> H   -1.98738473  -0.75969375   0.73044783
| 41> H   -1.28153603   2.58010517  -1.36382491
| 42> H   -2.39525828   2.31770086  -0.06081167
| 43> H   -2.49022237   1.34780155  -1.51432015
| 44> *
| 45>
| 46>                          ****END OF INPUT****

CARTESIAN COORDINATES (ANGSTROEM)
---------------------------------
  Lu     0.028656    0.306549   -0.141340
  C      0.421204    0.908506    2.436183
  C      1.377582   -0.097676    2.157866
  C      2.310059    0.421595    1.246424
  C      1.920283    1.745288    0.938273
  C      0.731674    2.031676    1.650018
  H      2.466790    2.433254    0.310820
  H      0.226343    2.991535    1.684586
  H     -0.372415    0.837483    3.163750
  H      1.438131   -1.066498    2.642495
  H      3.219963   -0.063424    0.931128
  C      0.995953   -0.074096   -2.522977
  C     -0.297875   -0.637896   -2.528383
  C      1.046947   -1.942305   -1.219307
  C      1.824875   -0.879778   -1.709029
  H      1.309931    0.803455   -3.065812
  C     -0.250880   -1.822025   -1.771982
  H     -1.132341   -0.300793   -3.133747
  H      2.883545   -0.754890   -1.559989
  H      1.419714   -2.786450   -0.649714
  H     -1.061422   -2.521034   -1.626358
  C     -2.523416   -1.527841    1.312593
  H     -2.258210   -1.382298    2.375104
  H     -2.155309   -2.511612    0.949785
  H     -3.664298   -1.331383    1.097869
  C     -1.778741    1.775007   -0.792984
  H     -1.987385   -0.759694    0.730448
  H     -1.281536    2.580105   -1.363825
  H     -2.395258    2.317701   -0.060812
  H     -2.490222    1.347802   -1.514320

 Total Charge           Charge          ....    0
 Multiplicity           Mult            ....    1
 Number of Electrons    NEL             ....  132
 Basis Dimension        Dim             ....  295

ORBITAL ENERGIES
----------------

  NO   OCC          E(Eh)            E(eV)
   0   2.0000     -19.257534      -524.0242
   1   2.0000     -12.630108      -343.6827
   2   2.0000     -12.627592      -343.6142
   3   2.0000     -12.627039      -343.5992
   4   2.0000     -10.463644      -284.7302
   5   2.0000     -10.445847      -284.2459
   6   2.0000     -10.445472      -284.2358
   7   2.0000     -10.445452      -284.2352
   8   2.0000     -10.445010      -284.2232
   9   2.0000     -10.444253      -284.2026
  10   2.0000     -10.443847      -284.1915
  11   2.0000     -10.443555      -284.1836
  12   2.0000     -10.442068      -284.1431
  13   2.0000     -10.441965      -284.1403
  14   2.0000     -10.439726      -284.0794
  15   2.0000     -10.363269      -281.9989
  16   2.0000      -5.899218      -160.5259
  17   2.0000      -5.898898      -160.5172
  18   2.0000      -5.898280      -160.5004
  19   2.0000      -5.896862      -160.4618
  20   2.0000      -5.896651      -160.4560
  21   2.0000      -2.440757       -66.4164
  22   2.0000      -1.278993       -34.8032
  23   2.0000      -1.276735       -34.7417
  24   2.0000      -1.265966       -34.4487
  25   2.0000      -0.977256       -26.5925
  26   2.0000      -0.969810       -26.3899
  27   2.0000      -0.797458       -21.6999
  28   2.0000      -0.793457       -21.5911
  29   2.0000      -0.790199       -21.5024
  30   2.0000      -0.789487       -21.4830
  31   2.0000      -0.788707       -21.4618
  32   2.0000      -0.697168       -18.9709
  33   2.0000      -0.612849       -16.6765
  34   2.0000      -0.610713       -16.6183
  35   2.0000      -0.608348       -16.5540
  36   2.0000      -0.607043       -16.5185
  37   2.0000      -0.594399       -16.1744
  38   2.0000      -0.589697       -16.0465
  39   2.0000      -0.566852       -15.4248
  40   2.0000      -0.565631       -15.3916
  41   2.0000      -0.565456       -15.3868
  42   2.0000      -0.564349       -15.3567
  43   2.0000      -0.563681       -15.3385
  44   2.0000      -0.562479       -15.3058
  45   2.0000      -0.560791       -15.2599
  46   2.0000      -0.478999       -13.0342
  47   2.0000      -0.473408       -12.8821
  48   2.0000      -0.466801       -12.7023
  49   2.0000      -0.457777       -12.4567
  50   2.0000      -0.452237       -12.3060
  51   2.0000      -0.448934       -12.2161
  52   2.0000      -0.448260       -12.1978
  53   2.0000      -0.447789       -12.1850
  54   2.0000      -0.432266       -11.7626
  55   2.0000      -0.430869       -11.7245
  56   2.0000      -0.429530       -11.6881
  57   2.0000      -0.428347       -11.6559
  58   2.0000      -0.427868       -11.6429
  59   2.0000      -0.388183       -10.5630
  60   2.0000      -0.386899       -10.5281
  61   2.0000      -0.292163        -7.9502
  62   2.0000      -0.280342        -7.6285
  63   2.0000      -0.277209        -7.5432
  64   2.0000      -0.261550        -7.1171
  65   2.0000      -0.256753        -6.9866
  66   0.0000      -0.019185        -0.5220
  67   0.0000       0.008306         0.2260
  68   0.0000       0.042335         1.1520
  69   0.0000       0.054565         1.4848
  70   0.0000       0.058452         1.5906

MULLIKEN ATOMIC CHARGES
-----------------------
   0 Lu:    0.836714
   1 C :   -0.264365
   2 C :   -0.299078
   3 C :   -0.264364
   4 C :   -0.292546
   5 C :   -0.307838
   6 H :    0.241092
   7 H :    0.245154
   8 H :    0.234025
   9 H :    0.231258
  10 H :    0.229155
  11 C :   -0.287455
  12 C :   -0.312774
  13 C :   -0.315565
  14 C :   -0.264393
  15 H :    0.243088
  16 C :   -0.239931
  17 H :    0.241265
  18 H :    0.230643
  19 H :    0.228249
  20 H :    0.231001
  21 C :   -0.873083
  22 H :    0.246877
  23 H :    0.241316
  24 H :    0.245418
  25 C :   -1.050391
  26 H :    0.211473
  27 H :    0.208905
  28 H :    0.214819
  29 H :    0.211329
Sum of atomic charges:    0.0000000

LOEWDIN ATOMIC CHARGES
----------------------
   0 Lu:    0.023126
   1 C :   -0.145550
   2 C :   -0.153424
   3 C :   -0.130993
   4 C :   -0.148569
   5 C :   -0.139234
   6 H :    0.155350
   7 H :    0.160841
   8 H :    0.151951
   9 H :    0.150140
  10 H :    0.150477
  11 C :   -0.146141
  12 C :   -0.138625
  13 C :   -0.153619
  14 C :   -0.133311
  15 H :    0.156252
  16 C :   -0.144260
  17 H :    0.159637
  18 H :    0.150275
  19 H :    0.150260
  20 H :    0.149300
  21 C :   -0.461676
  22 H :    0.144264
  23 H :    0.142996
  24 H :    0.153906
  25 C :   -0.645856
  26 H :    0.146615
  27 H :    0.137893
  28 H :    0.128911
  29 H :    0.129062

  Mayer bond orders larger than 0.100000
B(  0-Lu,  1-C ) :   0.2573 B(  0-Lu,  2-C ) :   0.2536 B(  0-Lu,  3-C ) :   0.2376
B(  0-Lu,  4-C ) :   0.2835 B(  0-Lu,  5-C ) :   0.2494 B(  0-Lu, 11-C ) :   0.2845
B(  0-Lu, 12-C ) :   0.2449 B(  0-Lu, 13-C ) :   0.2540 B(  0-Lu, 14-C ) :   0.2490
B(  0-Lu, 16-C ) :   0.2557 B(  0-Lu, 25-C ) :   0.8323 B(  1-C ,  2-C ) :   1.2760
B(  1-C ,  5-C ) :   1.3058 B(  1-C ,  8-H ) :   0.9189 B(  2-C ,  3-C ) :   1.3169
B(  2-C ,  9-H ) :   0.9196 B(  3-C ,  4-C ) :   1.2917 B(  3-C , 10-H ) :   0.9231
B(  4-C ,  5-C ) :   1.2721 B(  4-C ,  6-H ) :   0.9152 B(  5-C ,  7-H ) :   0.9187
B( 11-C , 12-C ) :   1.2774 B( 11-C , 14-C ) :   1.2904 B( 11-C , 15-H ) :   0.9130
B( 12-C , 16-C ) :   1.3051 B( 12-C , 17-H ) :   0.9207 B( 13-C , 14-C ) :   1.3066
B( 13-C , 16-C ) :   1.2794 B( 13-C , 19-H ) :   0.9237 B( 14-C , 18-H ) :   0.9212
B( 16-C , 20-H ) :   0.9172 B( 21-C , 22-H ) :   0.9123 B( 21-C , 23-H ) :   0.9133
B( 21-C , 24-H ) :   0.9231 B( 21-C , 26-H ) :   0.8504 B( 25-C , 27-H ) :   0.8957
B( 25-C , 28-H ) :   0.9137 B( 25-C , 29-H ) :   0.9086

Dispersion correction           -0.017163946
FINAL SINGLE POINT ENERGY     -1702.375008587416
Dispersion correction            ... done

DIPOLE MOMENT
-------------
                                X             Y             Z
Electronic contribution:     -5.88142      14.56392      -5.46728
Nuclear contribution   :      5.97347     -15.31355       5.95195
                        -----------------------------------------
Total Dipole Moment    :      0.09205      -0.74963       0.48467
                        -----------------------------------------
Magnitude (a.u.)       :      0.89740
Magnitude (Debye)      :      2.28101

Rotational constants in cm-1:     0.027264     0.019737     0.017049
Rotational constants in MHz :   817.355076   591.700372   511.127957

                             ****ORCA TERMINATED NORMALLY****
TOTAL RUN TIME: 0 days 0 hours 8 minutes 22 seconds 299 msec
