                         Program Version 5.0.3 -  RELEASE  -
|  1> ! EnGrad PBEh-3c
|  2> %output
|  3> xyzfile=True
|  4> end
|  5> %scf
|  6> maxiter 250
|  7> end
|  8> %output
|  9> Print[P_Hirshfeld] = 1
| 10> end
| 11> % maxcore
| 12> 4000
| 13> *xyz 0 1
| 14> Lu   0.06885961   0.29201911  -0.14110565
| 15> C    0.41159773   0.89155757   2.43287744
| 16> C    1.37610953  -0.12402803   2.15065920
| 17> C    2.28916285   0.42333291   1.22879939
| 18> C    1.89883630   1.72388829   0.92695892
| 19> C    0.70982198   2.02391466   1.64178504
| 20> H    2.44492770   2.42453944   0.29911590
| 21> H    0.22206980   2.97609366   1.69510901
| 22> H   -0.38911435   0.80742452   3.15016723
| 23> H    1.45511698  -1.06933161   2.63668864
| 24> H    3.21967497  -0.06369533   0.91814605
| 25> C    0.98512035  -0.07259281  -2.49159546
| 26> C   -0.31949101  -0.63167797  -2.51484053
| 27> C    1.04304420  -1.94016409  -1.19527132
| 28> C    1.79993678  -0.86342765  -1.69359092
| 29> H    1.29622574   0.80690484  -3.05047813
| 30> C   -0.25747349  -1.82612162  -1.74627919
| 31> H   -1.13904159  -0.30763255  -3.11385235
| 32> H    2.88038371  -0.74497648  -1.55422491
| 33> H    1.42831918  -2.78338830  -0.65094999
| 34> H   -1.07201018  -2.51291918  -1.58416555
| 35> C   -2.52975004  -1.52528694   1.30026866
| 36> H   -2.23834925  -1.34916847   2.35647017
| 37> H   -2.07195846  -2.45438738   0.91966799
| 38> H   -3.66983255  -1.39468295   1.10973083
| 39> C   -1.75760632   1.78399073  -0.80806599
| 40> H   -2.03259772  -0.71019007   0.71035884
| 41> H   -1.23742929   2.58076369  -1.36723509
| 42> H   -2.37170340   2.32990146  -0.07074334
| 43> H   -2.46876784   1.36490691  -1.53997977
| 44> *
| 45>
| 46>                          ****END OF INPUT****

CARTESIAN COORDINATES (ANGSTROEM)
---------------------------------
  Lu     0.068860    0.292019   -0.141106
  C      0.411598    0.891558    2.432877
  C      1.376110   -0.124028    2.150659
  C      2.289163    0.423333    1.228799
  C      1.898836    1.723888    0.926959
  C      0.709822    2.023915    1.641785
  H      2.444928    2.424539    0.299116
  H      0.222070    2.976094    1.695109
  H     -0.389114    0.807425    3.150167
  H      1.455117   -1.069332    2.636689
  H      3.219675   -0.063695    0.918146
  C      0.985120   -0.072593   -2.491595
  C     -0.319491   -0.631678   -2.514841
  C      1.043044   -1.940164   -1.195271
  C      1.799937   -0.863428   -1.693591
  H      1.296226    0.806905   -3.050478
  C     -0.257473   -1.826122   -1.746279
  H     -1.139042   -0.307633   -3.113852
  H      2.880384   -0.744976   -1.554225
  H      1.428319   -2.783388   -0.650950
  H     -1.072010   -2.512919   -1.584166
  C     -2.529750   -1.525287    1.300269
  H     -2.238349   -1.349168    2.356470
  H     -2.071958   -2.454387    0.919668
  H     -3.669833   -1.394683    1.109731
  C     -1.757606    1.783991   -0.808066
  H     -2.032598   -0.710190    0.710359
  H     -1.237429    2.580764   -1.367235
  H     -2.371703    2.329901   -0.070743
  H     -2.468768    1.364907   -1.539980

 Total Charge           Charge          ....    0
 Multiplicity           Mult            ....    1
 Number of Electrons    NEL             ....  132
 Basis Dimension        Dim             ....  295

ORBITAL ENERGIES
----------------

  NO   OCC          E(Eh)            E(eV)
   0   2.0000     -19.252475      -523.8865
   1   2.0000     -12.625055      -343.5452
   2   2.0000     -12.622499      -343.4756
   3   2.0000     -12.621916      -343.4598
   4   2.0000     -10.460706      -284.6503
   5   2.0000     -10.449069      -284.3336
   6   2.0000     -10.448464      -284.3172
   7   2.0000     -10.447353      -284.2869
   8   2.0000     -10.446099      -284.2528
   9   2.0000     -10.445429      -284.2346
  10   2.0000     -10.444474      -284.2086
  11   2.0000     -10.444265      -284.2029
  12   2.0000     -10.442955      -284.1672
  13   2.0000     -10.442723      -284.1609
  14   2.0000     -10.440946      -284.1126
  15   2.0000     -10.361590      -281.9532
  16   2.0000      -5.894110      -160.3869
  17   2.0000      -5.893800      -160.3785
  18   2.0000      -5.893151      -160.3608
  19   2.0000      -5.891704      -160.3214
  20   2.0000      -5.891508      -160.3161
  21   2.0000      -2.435893       -66.2840
  22   2.0000      -1.274746       -34.6876
  23   2.0000      -1.273860       -34.6635
  24   2.0000      -1.261687       -34.3323
  25   2.0000      -0.979218       -26.6459
  26   2.0000      -0.970639       -26.4124
  27   2.0000      -0.795945       -21.6588
  28   2.0000      -0.793992       -21.6056
  29   2.0000      -0.792852       -21.5746
  30   2.0000      -0.791651       -21.5419
  31   2.0000      -0.789875       -21.4936
  32   2.0000      -0.692199       -18.8357
  33   2.0000      -0.615525       -16.7493
  34   2.0000      -0.613874       -16.7044
  35   2.0000      -0.610724       -16.6187
  36   2.0000      -0.606467       -16.5028
  37   2.0000      -0.596825       -16.2404
  38   2.0000      -0.591020       -16.0825
  39   2.0000      -0.561862       -15.2891
  40   2.0000      -0.560524       -15.2526
  41   2.0000      -0.560318       -15.2470
  42   2.0000      -0.559275       -15.2186
  43   2.0000      -0.558561       -15.1992
  44   2.0000      -0.557376       -15.1670
  45   2.0000      -0.555686       -15.1210
  46   2.0000      -0.475344       -12.9348
  47   2.0000      -0.470273       -12.7968
  48   2.0000      -0.467844       -12.7307
  49   2.0000      -0.457089       -12.4380
  50   2.0000      -0.453388       -12.3373
  51   2.0000      -0.452230       -12.3058
  52   2.0000      -0.451543       -12.2871
  53   2.0000      -0.449927       -12.2431
  54   2.0000      -0.435795       -11.8586
  55   2.0000      -0.434503       -11.8234
  56   2.0000      -0.429599       -11.6900
  57   2.0000      -0.428565       -11.6618
  58   2.0000      -0.424337       -11.5468
  59   2.0000      -0.384410       -10.4603
  60   2.0000      -0.383648       -10.4396
  61   2.0000      -0.293021        -7.9735
  62   2.0000      -0.283718        -7.7204
  63   2.0000      -0.279794        -7.6136
  64   2.0000      -0.264009        -7.1841
  65   2.0000      -0.249930        -6.8010
  66   0.0000      -0.018851        -0.5130
  67   0.0000       0.006726         0.1830
  68   0.0000       0.042727         1.1627
  69   0.0000       0.055486         1.5099
  70   0.0000       0.056933         1.5492

MULLIKEN ATOMIC CHARGES
-----------------------
   0 Lu:    0.808308
   1 C :   -0.253264
   2 C :   -0.302873
   3 C :   -0.266229
   4 C :   -0.289231
   5 C :   -0.306346
   6 H :    0.243104
   7 H :    0.244197
   8 H :    0.234170
   9 H :    0.233333
  10 H :    0.230245
  11 C :   -0.286165
  12 C :   -0.305711
  13 C :   -0.318874
  14 C :   -0.265486
  15 H :    0.244717
  16 C :   -0.232894
  17 H :    0.241234
  18 H :    0.232123
  19 H :    0.229979
  20 H :    0.231410
  21 C :   -0.884214
  22 H :    0.244630
  23 H :    0.241643
  24 H :    0.248404
  25 C :   -1.036145
  26 H :    0.220241
  27 H :    0.204300
  28 H :    0.209664
  29 H :    0.205730
Sum of atomic charges:    0.0000000

LOEWDIN ATOMIC CHARGES
----------------------
   0 Lu:   -0.018925
   1 C :   -0.135137
   2 C :   -0.153454
   3 C :   -0.126437
   4 C :   -0.146247
   5 C :   -0.134860
   6 H :    0.157432
   7 H :    0.161364
   8 H :    0.151170
   9 H :    0.151371
  10 H :    0.152150
  11 C :   -0.141453
  12 C :   -0.132626
  13 C :   -0.152661
  14 C :   -0.130639
  15 H :    0.158276
  16 C :   -0.135550
  17 H :    0.159708
  18 H :    0.152469
  19 H :    0.152016
  20 H :    0.148790
  21 C :   -0.468534
  22 H :    0.143136
  23 H :    0.142028
  24 H :    0.154094
  25 C :   -0.644822
  26 H :    0.151202
  27 H :    0.134602
  28 H :    0.125950
  29 H :    0.125587

  Mayer bond orders larger than 0.100000
B(  0-Lu,  1-C ) :   0.2548 B(  0-Lu,  2-C ) :   0.2610 B(  0-Lu,  3-C ) :   0.2490
B(  0-Lu,  4-C ) :   0.2890 B(  0-Lu,  5-C ) :   0.2514 B(  0-Lu, 11-C ) :   0.2868
B(  0-Lu, 12-C ) :   0.2483 B(  0-Lu, 13-C ) :   0.2648 B(  0-Lu, 14-C ) :   0.2614
B(  0-Lu, 16-C ) :   0.2538 B(  0-Lu, 25-C ) :   0.8240 B(  1-C ,  2-C ) :   1.2775
B(  1-C ,  5-C ) :   1.3120 B(  1-C ,  8-H ) :   0.9177 B(  2-C ,  3-C ) :   1.3022
B(  2-C ,  9-H ) :   0.9213 B(  3-C ,  4-C ) :   1.2923 B(  3-C , 10-H ) :   0.9223
B(  4-C ,  5-C ) :   1.2603 B(  4-C ,  6-H ) :   0.9143 B(  5-C ,  7-H ) :   0.9222
B( 11-C , 12-C ) :   1.2692 B( 11-C , 14-C ) :   1.2933 B( 11-C , 15-H ) :   0.9128
B( 12-C , 16-C ) :   1.3078 B( 12-C , 17-H ) :   0.9230 B( 13-C , 14-C ) :   1.2854
B( 13-C , 16-C ) :   1.2833 B( 13-C , 19-H ) :   0.9252 B( 14-C , 18-H ) :   0.9201
B( 16-C , 20-H ) :   0.9160 B( 21-C , 22-H ) :   0.9123 B( 21-C , 23-H ) :   0.9106
B( 21-C , 24-H ) :   0.9213 B( 21-C , 26-H ) :   0.8507 B( 25-C , 27-H ) :   0.8969
B( 25-C , 28-H ) :   0.9161 B( 25-C , 29-H ) :   0.9121

Dispersion correction           -0.017302050
FINAL SINGLE POINT ENERGY     -1702.373976021313
Dispersion correction            ... done

DIPOLE MOMENT
-------------
                                X             Y             Z
Electronic contribution:     -3.57459      13.85551      -5.49745
Nuclear contribution   :      3.81283     -14.62178       5.97121
                        -----------------------------------------
Total Dipole Moment    :      0.23824      -0.76628       0.47376
                        -----------------------------------------
Magnitude (a.u.)       :      0.93187
Magnitude (Debye)      :      2.36863

Rotational constants in cm-1:     0.027584     0.019971     0.017334
Rotational constants in MHz :   826.945108   598.729788   519.672163

                             ****ORCA TERMINATED NORMALLY****
TOTAL RUN TIME: 0 days 0 hours 8 minutes 26 seconds 817 msec
