                         Program Version 5.0.3 -  RELEASE  -
|  1> ! EnGrad PBEh-3c
|  2> %output
|  3> xyzfile=True
|  4> end
|  5> %scf
|  6> maxiter 250
|  7> end
|  8> %output
|  9> Print[P_Hirshfeld] = 1
| 10> end
| 11> % maxcore
| 12> 4000
| 13> %pal nprocs 4
| 14> end
| 15> *xyz 1 1
| 16> Sc   0.31964000  -0.36645000  -2.08395000
| 17> C    0.11613000  -0.35340000   0.20096000
| 18> N   -0.46476000  -1.31364000   0.94353000
| 19> C   -0.46454000  -0.97586000   2.26709000
| 20> C    0.13186000   0.23532000   2.35675000
| 21> N    0.47508000   0.59590000   1.08434000
| 22> C    1.15514000   1.83815000   0.76221000
| 23> H    0.65842000   2.67072000   1.25438000
| 24> H    1.11969000   2.01675000  -0.30950000
| 25> H    2.19357000   1.80038000   1.08526000
| 26> C   -1.00751000  -2.56363000   0.43579000
| 27> H   -1.14437000  -2.50642000  -0.64250000
| 28> H   -1.97992000  -2.75074000   0.88449000
| 29> H   -0.34103000  -3.39101000   0.67115000
| 30> H   -0.88639000  -1.60447000   3.03283000
| 31> H    0.32606000   0.85626000   3.21477000
| 32> C    0.19416000   1.56325000  -2.95042000
| 33> H   -0.27161000   1.46880000  -3.94099000
| 34> H    1.14529000   2.08843000  -3.09899000
| 35> H   -0.45523000   2.23315000  -2.37277000
| 36> H   -0.81965000  -1.54149000  -2.79443000
| 37> *
| 38>
| 39>                          ****END OF INPUT****

CARTESIAN COORDINATES (ANGSTROEM)
---------------------------------
  Sc     0.319640   -0.366450   -2.083950
  C      0.116130   -0.353400    0.200960
  N     -0.464760   -1.313640    0.943530
  C     -0.464540   -0.975860    2.267090
  C      0.131860    0.235320    2.356750
  N      0.475080    0.595900    1.084340
  C      1.155140    1.838150    0.762210
  H      0.658420    2.670720    1.254380
  H      1.119690    2.016750   -0.309500
  H      2.193570    1.800380    1.085260
  C     -1.007510   -2.563630    0.435790
  H     -1.144370   -2.506420   -0.642500
  H     -1.979920   -2.750740    0.884490
  H     -0.341030   -3.391010    0.671150
  H     -0.886390   -1.604470    3.032830
  H      0.326060    0.856260    3.214770
  C      0.194160    1.563250   -2.950420
  H     -0.271610    1.468800   -3.940990
  H      1.145290    2.088430   -3.098990
  H     -0.455230    2.233150   -2.372770
  H     -0.819650   -1.541490   -2.794430

 Total Charge           Charge          ....    1
 Multiplicity           Mult            ....    1
 Number of Electrons    NEL             ....   82
 Basis Dimension        Dim             ....  175

ORBITAL ENERGIES
----------------

  NO   OCC          E(Eh)            E(eV)
   0   2.0000    -162.902205     -4432.7944
   1   2.0000     -18.217543      -495.7246
   2   2.0000     -15.054969      -409.6665
   3   2.0000     -15.052349      -409.5952
   4   2.0000     -15.051108      -409.5615
   5   2.0000     -14.876225      -404.8027
   6   2.0000     -14.875305      -404.7776
   7   2.0000     -10.655181      -289.9422
   8   2.0000     -10.638421      -289.4862
   9   2.0000     -10.637540      -289.4622
  10   2.0000     -10.630855      -289.2803
  11   2.0000     -10.625586      -289.1369
  12   2.0000     -10.527338      -286.4634
  13   2.0000      -2.423533       -65.9477
  14   2.0000      -1.573690       -42.8223
  15   2.0000      -1.563144       -42.5353
  16   2.0000      -1.559499       -42.4361
  17   2.0000      -1.324275       -36.0354
  18   2.0000      -1.200430       -32.6654
  19   2.0000      -1.035219       -28.1697
  20   2.0000      -0.992416       -27.0050
  21   2.0000      -0.936100       -25.4726
  22   2.0000      -0.870613       -23.6906
  23   2.0000      -0.854815       -23.2607
  24   2.0000      -0.814978       -22.1767
  25   2.0000      -0.761140       -20.7117
  26   2.0000      -0.714472       -19.4418
  27   2.0000      -0.685789       -18.6613
  28   2.0000      -0.668082       -18.1794
  29   2.0000      -0.665732       -18.1155
  30   2.0000      -0.658811       -17.9272
  31   2.0000      -0.613945       -16.7063
  32   2.0000      -0.606863       -16.5136
  33   2.0000      -0.600217       -16.3327
  34   2.0000      -0.567395       -15.4396
  35   2.0000      -0.562823       -15.3152
  36   2.0000      -0.534614       -14.5476
  37   2.0000      -0.497165       -13.5286
  38   2.0000      -0.457340       -12.4449
  39   2.0000      -0.447537       -12.1781
  40   2.0000      -0.440283       -11.9807
  41   0.0000      -0.194407        -5.2901
  42   0.0000      -0.188573        -5.1313
  43   0.0000      -0.171944        -4.6788
  44   0.0000      -0.161564        -4.3964
  45   0.0000      -0.141188        -3.8419

MULLIKEN ATOMIC CHARGES
-----------------------
   0 Sc:    0.869358
   1 C :    0.172467
   2 N :   -0.410596
   3 C :   -0.060489
   4 C :   -0.061003
   5 N :   -0.413135
   6 C :   -0.536478
   7 H :    0.284421
   8 H :    0.268530
   9 H :    0.278586
  10 C :   -0.538731
  11 H :    0.279912
  12 H :    0.284104
  13 H :    0.277327
  14 H :    0.308089
  15 H :    0.307512
  16 C :   -1.067239
  17 H :    0.283861
  18 H :    0.254917
  19 H :    0.258171
  20 H :   -0.039584
Sum of atomic charges:    1.0000000

LOEWDIN ATOMIC CHARGES
----------------------
   0 Sc:    0.537952
   1 C :   -0.046202
   2 N :    0.009579
   3 C :   -0.074242
   4 C :   -0.075742
   5 N :    0.007520
   6 C :   -0.236538
   7 H :    0.159529
   8 H :    0.153744
   9 H :    0.153631
  10 C :   -0.240083
  11 H :    0.161066
  12 H :    0.159337
  13 H :    0.153429
  14 H :    0.171400
  15 H :    0.171035
  16 C :   -0.600265
  17 H :    0.178062
  18 H :    0.160209
  19 H :    0.164869
  20 H :   -0.068290

  Mayer bond orders larger than 0.100000
B(  0-Sc,  1-C ) :   0.6465 B(  0-Sc, 16-C ) :   0.9898 B(  0-Sc, 20-H ) :   0.9782
B(  1-C ,  2-N ) :   1.2280 B(  1-C ,  5-N ) :   1.2287 B(  2-N ,  3-C ) :   1.1637
B(  2-N , 10-C ) :   0.9040 B(  3-C ,  4-C ) :   1.6212 B(  3-C , 14-H ) :   0.8763
B(  4-C ,  5-N ) :   1.1610 B(  4-C , 15-H ) :   0.8766 B(  5-N ,  6-C ) :   0.9092
B(  6-C ,  7-H ) :   0.8959 B(  6-C ,  8-H ) :   0.8971 B(  6-C ,  9-H ) :   0.8920
B( 10-C , 11-H ) :   0.8823 B( 10-C , 12-H ) :   0.8959 B( 10-C , 13-H ) :   0.8925
B( 16-C , 17-H ) :   0.8705 B( 16-C , 18-H ) :   0.8858 B( 16-C , 19-H ) :   0.8833

Dispersion correction           -0.011007384
FINAL SINGLE POINT ENERGY     -1104.490034502788
Dispersion correction            ... done

DIPOLE MOMENT
-------------
                                X             Y             Z
Electronic contribution:      3.20321      -4.10498      -3.88639
Nuclear contribution   :     -2.15136       3.79458       4.63095
                        -----------------------------------------
Total Dipole Moment    :      1.05184      -0.31039       0.74456
                        -----------------------------------------
Magnitude (a.u.)       :      1.32555
Magnitude (Debye)      :      3.36928

Rotational constants in cm-1:     0.059339     0.030032     0.020707
Rotational constants in MHz :  1778.952542   900.335331   620.774986

                             ****ORCA TERMINATED NORMALLY****
TOTAL RUN TIME: 0 days 0 hours 0 minutes 31 seconds 842 msec
