                         Program Version 5.0.3 -  RELEASE  -
|  1> ! EnGrad PBEh-3c
|  2> %output
|  3> xyzfile=True
|  4> end
|  5> %scf
|  6> maxiter 250
|  7> end
|  8> %output
|  9> Print[P_Hirshfeld] = 1
| 10> end
| 11> % maxcore
| 12> 4000
| 13> *xyz 1 1
| 14> Ir   0.50266512  -0.77689710   0.66426038
| 15> C   -0.00683579  -2.88093269   1.18279674
| 16> C    0.25428479  -2.16071289   2.40360084
| 17> C    2.14587843  -2.08419296   1.05354509
| 18> C    1.14717793  -2.82508960   0.35865631
| 19> C    1.59556788  -1.75061113   2.33549942
| 20> N   -1.06837421  -0.09574179  -0.47838320
| 21> C   -2.46303153  -0.08426886  -0.00067987
| 22> C   -2.84140609   1.18965580   0.74348485
| 23> H   -3.87003351   1.17487997   1.10541960
| 24> H   -2.75077461   2.03760697   0.06612678
| 25> H   -2.22693635   1.33341731   1.62587788
| 26> C   -3.54832820  -0.41917905  -1.02182610
| 27> H   -2.52712188  -0.87477400   0.74791615
| 28> H   -4.50941252  -0.57619089  -0.53380669
| 29> H   -3.68638427   0.38676896  -1.74302569
| 30> H   -3.31278957  -1.33764589  -1.55880382
| 31> C   -0.83331031   0.22592583  -1.69499109
| 32> C    0.45767083   0.21651348  -2.29765718
| 33> H   -1.64689780   0.52824909  -2.34645424
| 34> C    1.60856484  -0.11215823  -1.63621012
| 35> C    2.75083864  -0.17638804  -2.46162314
| 36> S    0.77341913   0.28083303  -3.97461044
| 37> C    2.43220055   0.03277248  -3.77478952
| 38> H    2.23646946   1.21511186  -0.85887513
| 39> H    3.78486300  -0.28570942  -2.16341226
| 40> H    3.10424300  -0.02706442  -4.61740404
| 41> H   -0.78751782  -3.61819183   1.06226848
| 42> H   -0.38813733  -2.11323863   3.26998568
| 43> H    2.15930175  -1.33360495   3.15658537
| 44> O    2.00528571   2.05618505   0.37150019
| 45> O    0.37873996   1.17410588   1.47555606
| 46> C    1.04036005   2.17486232   1.19183030
| 47> C    0.92506374   3.47523679   1.88533900
| 48> H    0.87724876   4.28416780   1.15730277
| 49> H    1.79240510   3.68040107   2.51420480
| 50> H    0.04091697   3.51129609   2.51389097
| 51> H    3.19327020  -2.01219713   0.80453287
| 52> H    1.26085190  -3.43317622  -0.52762400
| 53> *
| 54>
| 55>                          ****END OF INPUT****

CARTESIAN COORDINATES (ANGSTROEM)
---------------------------------
  Ir     0.502665   -0.776897    0.664260
  C     -0.006836   -2.880933    1.182797
  C      0.254285   -2.160713    2.403601
  C      2.145878   -2.084193    1.053545
  C      1.147178   -2.825090    0.358656
  C      1.595568   -1.750611    2.335499
  N     -1.068374   -0.095742   -0.478383
  C     -2.463032   -0.084269   -0.000680
  C     -2.841406    1.189656    0.743485
  H     -3.870034    1.174880    1.105420
  H     -2.750775    2.037607    0.066127
  H     -2.226936    1.333417    1.625878
  C     -3.548328   -0.419179   -1.021826
  H     -2.527122   -0.874774    0.747916
  H     -4.509413   -0.576191   -0.533807
  H     -3.686384    0.386769   -1.743026
  H     -3.312790   -1.337646   -1.558804
  C     -0.833310    0.225926   -1.694991
  C      0.457671    0.216513   -2.297657
  H     -1.646898    0.528249   -2.346454
  C      1.608565   -0.112158   -1.636210
  C      2.750839   -0.176388   -2.461623
  S      0.773419    0.280833   -3.974610
  C      2.432201    0.032772   -3.774790
  H      2.236469    1.215112   -0.858875
  H      3.784863   -0.285709   -2.163412
  H      3.104243   -0.027064   -4.617404
  H     -0.787518   -3.618192    1.062268
  H     -0.388137   -2.113239    3.269986
  H      2.159302   -1.333605    3.156585
  O      2.005286    2.056185    0.371500
  O      0.378740    1.174106    1.475556
  C      1.040360    2.174862    1.191830
  C      0.925064    3.475237    1.885339
  H      0.877249    4.284168    1.157303
  H      1.792405    3.680401    2.514205
  H      0.040917    3.511296    2.513891
  H      3.193270   -2.012197    0.804533
  H      1.260852   -3.433176   -0.527624

 Total Charge           Charge          ....    1
 Multiplicity           Mult            ....    1
 Number of Electrons    NEL             ....  164
 Basis Dimension        Dim             ....  358

ORBITAL ENERGIES
----------------

  NO   OCC          E(Eh)            E(eV)
   0   2.0000     -89.758438     -2442.4513
   1   2.0000     -19.623300      -533.9771
   2   2.0000     -19.595092      -533.2096
   3   2.0000     -14.830440      -403.5568
   4   2.0000     -10.687126      -290.8115
   5   2.0000     -10.650895      -289.8256
   6   2.0000     -10.628836      -289.2253
   7   2.0000     -10.620785      -289.0063
   8   2.0000     -10.620239      -288.9914
   9   2.0000     -10.619477      -288.9707
  10   2.0000     -10.615817      -288.8711
  11   2.0000     -10.614338      -288.8308
  12   2.0000     -10.608796      -288.6800
  13   2.0000     -10.606608      -288.6205
  14   2.0000     -10.593052      -288.2516
  15   2.0000     -10.588855      -288.1374
  16   2.0000     -10.546421      -286.9827
  17   2.0000     -10.541330      -286.8442
  18   2.0000     -10.536243      -286.7057
  19   2.0000      -8.398172      -228.5259
  20   2.0000      -6.287777      -171.0991
  21   2.0000      -6.284407      -171.0074
  22   2.0000      -6.283503      -170.9828
  23   2.0000      -4.017609      -109.3247
  24   2.0000      -2.335687       -63.5573
  25   2.0000      -2.302851       -62.6638
  26   2.0000      -2.298155       -62.5360
  27   2.0000      -1.315968       -35.8093
  28   2.0000      -1.200764       -32.6744
  29   2.0000      -1.196970       -32.5712
  30   2.0000      -1.159594       -31.5542
  31   2.0000      -1.129126       -30.7251
  32   2.0000      -1.015217       -27.6255
  33   2.0000      -0.970972       -26.4215
  34   2.0000      -0.967610       -26.3300
  35   2.0000      -0.964141       -26.2356
  36   2.0000      -0.951564       -25.8934
  37   2.0000      -0.938670       -25.5425
  38   2.0000      -0.890044       -24.2193
  39   2.0000      -0.866508       -23.5789
  40   2.0000      -0.794043       -21.6070
  41   2.0000      -0.775756       -21.1094
  42   2.0000      -0.774577       -21.0773
  43   2.0000      -0.774031       -21.0625
  44   2.0000      -0.763139       -20.7661
  45   2.0000      -0.749339       -20.3906
  46   2.0000      -0.730383       -19.8747
  47   2.0000      -0.701538       -19.0898
  48   2.0000      -0.684330       -18.6216
  49   2.0000      -0.673414       -18.3245
  50   2.0000      -0.659568       -17.9478
  51   2.0000      -0.650609       -17.7040
  52   2.0000      -0.644546       -17.5390
  53   2.0000      -0.634680       -17.2705
  54   2.0000      -0.633964       -17.2510
  55   2.0000      -0.628969       -17.1151
  56   2.0000      -0.618503       -16.8303
  57   2.0000      -0.606336       -16.4992
  58   2.0000      -0.597994       -16.2722
  59   2.0000      -0.594310       -16.1720
  60   2.0000      -0.592867       -16.1327
  61   2.0000      -0.584867       -15.9150
  62   2.0000      -0.570852       -15.5337
  63   2.0000      -0.562050       -15.2942
  64   2.0000      -0.557580       -15.1725
  65   2.0000      -0.551623       -15.0104
  66   2.0000      -0.540380       -14.7045
  67   2.0000      -0.538737       -14.6598
  68   2.0000      -0.534955       -14.5569
  69   2.0000      -0.519476       -14.1357
  70   2.0000      -0.504557       -13.7297
  71   2.0000      -0.502201       -13.6656
  72   2.0000      -0.501257       -13.6399
  73   2.0000      -0.489645       -13.3239
  74   2.0000      -0.471613       -12.8332
  75   2.0000      -0.461399       -12.5553
  76   2.0000      -0.453872       -12.3505
  77   2.0000      -0.442775       -12.0485
  78   2.0000      -0.430968       -11.7272
  79   2.0000      -0.421163       -11.4604
  80   2.0000      -0.407879       -11.0990
  81   2.0000      -0.388535       -10.5726
  82   0.0000      -0.207794        -5.6544
  83   0.0000      -0.171110        -4.6561
  84   0.0000      -0.151791        -4.1304
  85   0.0000      -0.091576        -2.4919
  86   0.0000      -0.079683        -2.1683

MULLIKEN ATOMIC CHARGES
-----------------------
   0 Ir:    0.613930
   1 C :   -0.254943
   2 C :   -0.250381
   3 C :   -0.248765
   4 C :   -0.229125
   5 C :   -0.165099
   6 N :   -0.479389
   7 C :   -0.119856
   8 C :   -0.633624
   9 H :    0.248462
  10 H :    0.221187
  11 H :    0.266835
  12 C :   -0.680569
  13 H :    0.253694
  14 H :    0.269746
  15 H :    0.225605
  16 H :    0.244463
  17 C :    0.100677
  18 C :   -0.138304
  19 H :    0.273597
  20 C :   -0.350705
  21 C :   -0.195872
  22 S :    0.337450
  23 C :   -0.409517
  24 H :    0.427468
  25 H :    0.272940
  26 H :    0.301949
  27 H :    0.282177
  28 H :    0.286052
  29 H :    0.285827
  30 O :   -0.543650
  31 O :   -0.482610
  32 C :    0.648811
  33 C :   -0.748844
  34 H :    0.272200
  35 H :    0.283608
  36 H :    0.255131
  37 H :    0.278689
  38 H :    0.280754
Sum of atomic charges:    1.0000000

LOEWDIN ATOMIC CHARGES
----------------------
   0 Ir:   -0.227785
   1 C :   -0.037120
   2 C :   -0.068660
   3 C :   -0.048471
   4 C :   -0.066642
   5 C :   -0.039747
   6 N :   -0.016369
   7 C :   -0.066097
   8 C :   -0.351371
   9 H :    0.146070
  10 H :    0.133825
  11 H :    0.149022
  12 C :   -0.362636
  13 H :    0.142899
  14 H :    0.156410
  15 H :    0.131890
  16 H :    0.138080
  17 C :    0.034907
  18 C :   -0.232700
  19 H :    0.154606
  20 C :   -0.198002
  21 C :   -0.170705
  22 S :    0.498757
  23 C :   -0.262483
  24 H :    0.403171
  25 H :    0.161667
  26 H :    0.171845
  27 H :    0.181749
  28 H :    0.183399
  29 H :    0.183056
  30 O :   -0.315922
  31 O :   -0.153069
  32 C :    0.155797
  33 C :   -0.370822
  34 H :    0.168188
  35 H :    0.175553
  36 H :    0.151857
  37 H :    0.184030
  38 H :    0.181822

  Mayer bond orders larger than 0.100000
B(  0-Ir,  1-C ) :   0.4138 B(  0-Ir,  2-C ) :   0.4611 B(  0-Ir,  3-C ) :   0.4763
B(  0-Ir,  4-C ) :   0.4789 B(  0-Ir,  5-C ) :   0.4071 B(  0-Ir,  6-N ) :   0.4839
B(  0-Ir, 20-C ) :   0.4285 B(  0-Ir, 31-O ) :   0.4949 B(  1-C ,  2-C ) :   1.1709
B(  1-C ,  4-C ) :   1.2180 B(  1-C , 27-H ) :   0.9202 B(  2-C ,  5-C ) :   1.1478
B(  2-C , 28-H ) :   0.9126 B(  3-C ,  4-C ) :   1.0938 B(  3-C ,  5-C ) :   1.2146
B(  3-C , 37-H ) :   0.9214 B(  4-C , 38-H ) :   0.9177 B(  5-C , 29-H ) :   0.9126
B(  6-N ,  7-C ) :   0.8998 B(  6-N , 17-C ) :   1.6215 B(  7-C ,  8-C ) :   0.9775
B(  7-C , 12-C ) :   0.9916 B(  7-C , 13-H ) :   0.8900 B(  8-C ,  9-H ) :   0.9066
B(  8-C , 10-H ) :   0.9194 B(  8-C , 11-H ) :   0.9020 B( 12-C , 14-H ) :   0.9044
B( 12-C , 15-H ) :   0.9131 B( 12-C , 16-H ) :   0.9155 B( 17-C , 18-C ) :   1.1136
B( 17-C , 19-H ) :   0.8791 B( 18-C , 20-C ) :   1.2620 B( 18-C , 22-S ) :   1.1903
B( 20-C , 21-C ) :   1.3258 B( 20-C , 24-H ) :   0.3259 B( 21-C , 23-C ) :   1.4604
B( 21-C , 25-H ) :   0.8977 B( 22-S , 23-C ) :   1.2877 B( 23-C , 26-H ) :   0.8862
B( 24-H , 30-O ) :   0.3305 B( 30-O , 32-C ) :   1.4686 B( 31-O , 32-C ) :   1.4586
B( 32-C , 33-C ) :   0.9518 B( 33-C , 34-H ) :   0.8981 B( 33-C , 35-H ) :   0.8921
B( 33-C , 36-H ) :   0.9063

Dispersion correction           -0.029947730
FINAL SINGLE POINT ENERGY     -1288.284462944085
Dispersion correction            ... done

DIPOLE MOMENT
-------------
                                X             Y             Z
Electronic contribution:     27.44738     -77.28891      93.58702
Nuclear contribution   :    -27.73330      76.53644     -93.92733
                        -----------------------------------------
Total Dipole Moment    :     -0.28592      -0.75247      -0.34030
                        -----------------------------------------
Magnitude (a.u.)       :      0.87394
Magnitude (Debye)      :      2.22138

Rotational constants in cm-1:     0.010428     0.007916     0.007471
Rotational constants in MHz :   312.616571   237.313625   223.970709

                             ****ORCA TERMINATED NORMALLY****
TOTAL RUN TIME: 0 days 0 hours 18 minutes 4 seconds 520 msec
