                         Program Version 5.0.3 -  RELEASE  -
|  1> ! EnGrad PBEh-3c
|  2> %output
|  3> xyzfile=True
|  4> end
|  5> %scf
|  6> maxiter 250
|  7> end
|  8> %output
|  9> Print[P_Hirshfeld] = 1
| 10> end
| 11> % maxcore
| 12> 4000
| 13> *xyz 1 1
| 14> Ir   0.60565275  -0.75336388   0.60457274
| 15> C   -0.00485337  -2.90737234   1.26684701
| 16> C    0.31288509  -2.13989236   2.40114126
| 17> C    2.15621607  -2.18869665   1.04407612
| 18> C    1.07371194  -2.85702111   0.36285056
| 19> C    1.69017488  -1.73375073   2.27883581
| 20> N   -1.07870528  -0.10637542  -0.51349203
| 21> C   -2.49020450  -0.08403640   0.03375586
| 22> C   -2.83524896   1.24461629   0.69615423
| 23> H   -3.87355209   1.19247691   1.02967706
| 24> H   -2.75459441   2.07830230  -0.00204856
| 25> H   -2.21314565   1.43730115   1.56369428
| 26> C   -3.51450653  -0.44615250  -1.03145737
| 27> H   -2.49490571  -0.86513196   0.79302997
| 28> H   -4.46925469  -0.58282561  -0.52608392
| 29> H   -3.67700453   0.33717794  -1.77408008
| 30> H   -3.27746782  -1.37987681  -1.53789126
| 31> C   -0.83763711   0.24744529  -1.72423721
| 32> C    0.50635245   0.18227162  -2.26063986
| 33> H   -1.66969819   0.54335027  -2.35345013
| 34> C    1.65672911   0.05215122  -1.45558245
| 35> C    2.74989503  -0.13653800  -2.43558811
| 36> S    0.73830278   0.26652253  -3.98095381
| 37> C    2.41450242  -0.00706789  -3.76723136
| 38> H    1.98898654   1.13483928  -0.57738745
| 39> H    3.79194402  -0.26338933  -2.16999771
| 40> H    3.07926803  -0.02646726  -4.63600039
| 41> H   -0.88937843  -3.50892757   1.12815040
| 42> H   -0.27841657  -2.07109151   3.30292775
| 43> H    2.27354679  -1.27900601   3.05836082
| 44> O    2.02157547   2.04175290   0.24067552
| 45> O    0.33264364   1.13283866   1.50836110
| 46> C    1.13372585   2.06729497   1.16511663
| 47> C    0.90617970   3.43126951   1.90357002
| 48> H    0.86728723   4.25415076   1.18206284
| 49> H    1.76573480   3.64462375   2.54413664
| 50> H    0.00726251   3.49580381   2.53812666
| 51> H    3.14646770  -2.04156597   0.66204024
| 52> H    1.13674620  -3.40725255  -0.55714261
| 53> *
| 54>
| 55>                          ****END OF INPUT****

CARTESIAN COORDINATES (ANGSTROEM)
---------------------------------
  Ir     0.605653   -0.753364    0.604573
  C     -0.004853   -2.907372    1.266847
  C      0.312885   -2.139892    2.401141
  C      2.156216   -2.188697    1.044076
  C      1.073712   -2.857021    0.362851
  C      1.690175   -1.733751    2.278836
  N     -1.078705   -0.106375   -0.513492
  C     -2.490204   -0.084036    0.033756
  C     -2.835249    1.244616    0.696154
  H     -3.873552    1.192477    1.029677
  H     -2.754594    2.078302   -0.002049
  H     -2.213146    1.437301    1.563694
  C     -3.514507   -0.446153   -1.031457
  H     -2.494906   -0.865132    0.793030
  H     -4.469255   -0.582826   -0.526084
  H     -3.677005    0.337178   -1.774080
  H     -3.277468   -1.379877   -1.537891
  C     -0.837637    0.247445   -1.724237
  C      0.506352    0.182272   -2.260640
  H     -1.669698    0.543350   -2.353450
  C      1.656729    0.052151   -1.455582
  C      2.749895   -0.136538   -2.435588
  S      0.738303    0.266523   -3.980954
  C      2.414502   -0.007068   -3.767231
  H      1.988987    1.134839   -0.577387
  H      3.791944   -0.263389   -2.169998
  H      3.079268   -0.026467   -4.636000
  H     -0.889378   -3.508928    1.128150
  H     -0.278417   -2.071092    3.302928
  H      2.273547   -1.279006    3.058361
  O      2.021575    2.041753    0.240676
  O      0.332644    1.132839    1.508361
  C      1.133726    2.067295    1.165117
  C      0.906180    3.431270    1.903570
  H      0.867287    4.254151    1.182063
  H      1.765735    3.644624    2.544137
  H      0.007263    3.495804    2.538127
  H      3.146468   -2.041566    0.662040
  H      1.136746   -3.407253   -0.557143

 Total Charge           Charge          ....    1
 Multiplicity           Mult            ....    1
 Number of Electrons    NEL             ....  164
 Basis Dimension        Dim             ....  358

ORBITAL ENERGIES
----------------

  NO   OCC          E(Eh)            E(eV)
   0   2.0000     -89.751583     -2442.2647
   1   2.0000     -19.650152      -534.7078
   2   2.0000     -19.640874      -534.4554
   3   2.0000     -14.826879      -403.4599
   4   2.0000     -10.719809      -291.7008
   5   2.0000     -10.647914      -289.7445
   6   2.0000     -10.633622      -289.3556
   7   2.0000     -10.622498      -289.0529
   8   2.0000     -10.620396      -288.9957
   9   2.0000     -10.619539      -288.9724
  10   2.0000     -10.619421      -288.9691
  11   2.0000     -10.613462      -288.8070
  12   2.0000     -10.610842      -288.7357
  13   2.0000     -10.603584      -288.5382
  14   2.0000     -10.592571      -288.2385
  15   2.0000     -10.585097      -288.0351
  16   2.0000     -10.555174      -287.2209
  17   2.0000     -10.548730      -287.0455
  18   2.0000     -10.541298      -286.8433
  19   2.0000      -8.390626      -228.3205
  20   2.0000      -6.280528      -170.9019
  21   2.0000      -6.277082      -170.8081
  22   2.0000      -6.275485      -170.7646
  23   2.0000      -4.016582      -109.2967
  24   2.0000      -2.332498       -63.4705
  25   2.0000      -2.301256       -62.6204
  26   2.0000      -2.299082       -62.5612
  27   2.0000      -1.324182       -36.0328
  28   2.0000      -1.238755       -33.7082
  29   2.0000      -1.188290       -32.3350
  30   2.0000      -1.162988       -31.6465
  31   2.0000      -1.103393       -30.0249
  32   2.0000      -1.011856       -27.5340
  33   2.0000      -0.976319       -26.5670
  34   2.0000      -0.963182       -26.2095
  35   2.0000      -0.949298       -25.8317
  36   2.0000      -0.946520       -25.7561
  37   2.0000      -0.929192       -25.2846
  38   2.0000      -0.892224       -24.2787
  39   2.0000      -0.855994       -23.2928
  40   2.0000      -0.790789       -21.5185
  41   2.0000      -0.779217       -21.2036
  42   2.0000      -0.777997       -21.1704
  43   2.0000      -0.777298       -21.1514
  44   2.0000      -0.764740       -20.8096
  45   2.0000      -0.760575       -20.6963
  46   2.0000      -0.735127       -20.0038
  47   2.0000      -0.715524       -19.4704
  48   2.0000      -0.683298       -18.5935
  49   2.0000      -0.674283       -18.3482
  50   2.0000      -0.662375       -18.0241
  51   2.0000      -0.647208       -17.6114
  52   2.0000      -0.646193       -17.5838
  53   2.0000      -0.636499       -17.3200
  54   2.0000      -0.629480       -17.1290
  55   2.0000      -0.624913       -17.0047
  56   2.0000      -0.613551       -16.6956
  57   2.0000      -0.600065       -16.3286
  58   2.0000      -0.598439       -16.2844
  59   2.0000      -0.593852       -16.1595
  60   2.0000      -0.586507       -15.9597
  61   2.0000      -0.580124       -15.7860
  62   2.0000      -0.567468       -15.4416
  63   2.0000      -0.563878       -15.3439
  64   2.0000      -0.555872       -15.1260
  65   2.0000      -0.553712       -15.0673
  66   2.0000      -0.551090       -14.9959
  67   2.0000      -0.536717       -14.6048
  68   2.0000      -0.534316       -14.5395
  69   2.0000      -0.525262       -14.2931
  70   2.0000      -0.522853       -14.2275
  71   2.0000      -0.516194       -14.0463
  72   2.0000      -0.511320       -13.9137
  73   2.0000      -0.498145       -13.5552
  74   2.0000      -0.490869       -13.3572
  75   2.0000      -0.473327       -12.8799
  76   2.0000      -0.467699       -12.7267
  77   2.0000      -0.448004       -12.1908
  78   2.0000      -0.439517       -11.9599
  79   2.0000      -0.419291       -11.4095
  80   2.0000      -0.409350       -11.1390
  81   2.0000      -0.393736       -10.7141
  82   0.0000      -0.203286        -5.5317
  83   0.0000      -0.167508        -4.5581
  84   0.0000      -0.151516        -4.1230
  85   0.0000      -0.087702        -2.3865
  86   0.0000      -0.079010        -2.1500

MULLIKEN ATOMIC CHARGES
-----------------------
   0 Ir:    0.607437
   1 C :   -0.142640
   2 C :   -0.273473
   3 C :   -0.198094
   4 C :   -0.328705
   5 C :   -0.211553
   6 N :   -0.453538
   7 C :   -0.108757
   8 C :   -0.633766
   9 H :    0.245607
  10 H :    0.226941
  11 H :    0.266057
  12 C :   -0.685232
  13 H :    0.250917
  14 H :    0.266454
  15 H :    0.231259
  16 H :    0.250100
  17 C :    0.086104
  18 C :   -0.158273
  19 H :    0.273187
  20 C :   -0.442951
  21 C :   -0.181977
  22 S :    0.314791
  23 C :   -0.389404
  24 H :    0.495259
  25 H :    0.256627
  26 H :    0.296666
  27 H :    0.284818
  28 H :    0.283209
  29 H :    0.287214
  30 O :   -0.530317
  31 O :   -0.480493
  32 C :    0.647215
  33 C :   -0.738231
  34 H :    0.272851
  35 H :    0.273983
  36 H :    0.265425
  37 H :    0.291656
  38 H :    0.283627
Sum of atomic charges:    1.0000000

LOEWDIN ATOMIC CHARGES
----------------------
   0 Ir:   -0.229254
   1 C :   -0.008940
   2 C :   -0.074810
   3 C :   -0.043332
   4 C :   -0.098978
   5 C :   -0.055194
   6 N :   -0.027522
   7 C :   -0.053412
   8 C :   -0.351250
   9 H :    0.146355
  10 H :    0.136925
  11 H :    0.149297
  12 C :   -0.364575
  13 H :    0.141264
  14 H :    0.154648
  15 H :    0.135074
  16 H :    0.141125
  17 C :    0.025641
  18 C :   -0.193811
  19 H :    0.153644
  20 C :   -0.224611
  21 C :   -0.142773
  22 S :    0.460122
  23 C :   -0.267070
  24 H :    0.366978
  25 H :    0.153686
  26 H :    0.170787
  27 H :    0.180700
  28 H :    0.181008
  29 H :    0.184400
  30 O :   -0.276078
  31 O :   -0.167265
  32 C :    0.219439
  33 C :   -0.375949
  34 H :    0.164395
  35 H :    0.166943
  36 H :    0.155945
  37 H :    0.184552
  38 H :    0.181893

  Mayer bond orders larger than 0.100000
B(  0-Ir,  1-C ) :   0.3199 B(  0-Ir,  2-C ) :   0.4147 B(  0-Ir,  3-C ) :   0.4358
B(  0-Ir,  4-C ) :   0.4777 B(  0-Ir,  5-C ) :   0.4229 B(  0-Ir,  6-N ) :   0.4927
B(  0-Ir, 20-C ) :   0.4152 B(  0-Ir, 31-O ) :   0.5030 B(  1-C ,  2-C ) :   1.2322
B(  1-C ,  4-C ) :   1.2090 B(  1-C , 27-H ) :   0.9120 B(  2-C ,  5-C ) :   1.1284
B(  2-C , 28-H ) :   0.9172 B(  3-C ,  4-C ) :   1.1201 B(  3-C ,  5-C ) :   1.2348
B(  3-C , 37-H ) :   0.9050 B(  4-C , 38-H ) :   0.9167 B(  5-C , 29-H ) :   0.9140
B(  6-N ,  7-C ) :   0.8747 B(  6-N , 17-C ) :   1.6433 B(  7-C ,  8-C ) :   0.9795
B(  7-C , 12-C ) :   0.9903 B(  7-C , 13-H ) :   0.8937 B(  8-C ,  9-H ) :   0.9061
B(  8-C , 10-H ) :   0.9178 B(  8-C , 11-H ) :   0.9034 B( 12-C , 14-H ) :   0.9039
B( 12-C , 15-H ) :   0.9110 B( 12-C , 16-H ) :   0.9140 B( 17-C , 18-C ) :   1.1018
B( 17-C , 19-H ) :   0.8781 B( 18-C , 20-C ) :   1.2829 B( 18-C , 22-S ) :   1.2055
B( 20-C , 21-C ) :   1.2696 B( 20-C , 24-H ) :   0.3060 B( 21-C , 23-C ) :   1.5604
B( 21-C , 25-H ) :   0.9055 B( 22-S , 23-C ) :   1.2051 B( 23-C , 26-H ) :   0.8876
B( 24-H , 30-O ) :   0.3655 B( 30-O , 32-C ) :   1.4548 B( 31-O , 32-C ) :   1.4370
B( 32-C , 33-C ) :   0.9356 B( 33-C , 34-H ) :   0.8970 B( 33-C , 35-H ) :   0.8940
B( 33-C , 36-H ) :   0.9062

Dispersion correction           -0.029379676
FINAL SINGLE POINT ENERGY     -1288.358248138474
Dispersion correction            ... done

DIPOLE MOMENT
-------------
                                X             Y             Z
Electronic contribution:     36.92060     -74.34726      88.25136
Nuclear contribution   :    -37.55246      73.72876     -88.16174
                        -----------------------------------------
Total Dipole Moment    :     -0.63186      -0.61850       0.08962
                        -----------------------------------------
Magnitude (a.u.)       :      0.88872
Magnitude (Debye)      :      2.25894

Rotational constants in cm-1:     0.010426     0.008065     0.007528
Rotational constants in MHz :   312.578177   241.780109   225.685726

                             ****ORCA TERMINATED NORMALLY****
TOTAL RUN TIME: 0 days 0 hours 17 minutes 36 seconds 580 msec
