                         Program Version 5.0.3 -  RELEASE  -
|  1> ! EnGrad PBEh-3c
|  2> %output
|  3> xyzfile=True
|  4> end
|  5> %scf
|  6> maxiter 250
|  7> end
|  8> %output
|  9> Print[P_Hirshfeld] = 1
| 10> end
| 11> % maxcore
| 12> 4000
| 13> *xyz 1 1
| 14> Ir   0.67084603  -0.76687962   0.55767516
| 15> C   -0.01397738  -2.91631885   1.33099737
| 16> C    0.38844195  -2.10894832   2.41933259
| 17> C    2.17489253  -2.28741062   0.99393324
| 18> C    1.03414963  -2.89582315   0.36080028
| 19> C    1.76289426  -1.71906609   2.22455150
| 20> N   -1.07289854  -0.11913461  -0.52743988
| 21> C   -2.45949224  -0.07977662   0.03133641
| 22> C   -2.82844380   1.28737236   0.64559315
| 23> H   -3.87388744   1.21743359   0.95674173
| 24> H   -2.75699434   2.11561012  -0.07269717
| 25> H   -2.19836553   1.54755344   1.50181452
| 26> C   -3.49082386  -0.47675893  -1.02913997
| 27> H   -2.46375784  -0.85026335   0.83688047
| 28> H   -4.43721913  -0.59414129  -0.52212432
| 29> H   -3.66206385   0.28505987  -1.80197070
| 30> H   -3.23923402  -1.42296315  -1.51816908
| 31> C   -0.83879447   0.25011952  -1.73850065
| 32> C    0.52007053   0.19983124  -2.19527074
| 33> H   -1.68247698   0.56258474  -2.37273129
| 34> C    1.65044301   0.14768468  -1.43084518
| 35> C    2.74538428  -0.07637455  -2.37160426
| 36> S    0.72495976   0.22711234  -3.91379303
| 37> C    2.39744829  -0.04242172  -3.71893234
| 38> H    1.72283149   1.09257133  -0.22008590
| 39> H    3.79388468  -0.23877601  -2.16861286
| 40> H    3.03707466  -0.03219493  -4.61983534
| 41> H   -1.01030547  -3.37751800   1.18994796
| 42> H   -0.17330350  -2.00953727   3.32796788
| 43> H    2.39401592  -1.20599512   2.95728632
| 44> O    1.96855063   1.98948173   0.16425056
| 45> O    0.40760226   1.10127565   1.46313542
| 46> C    1.15242612   2.05190638   1.14775289
| 47> C    0.91647715   3.35409932   1.90038064
| 48> H    0.86031316   4.20172586   1.20759750
| 49> H    1.73918134   3.60372054   2.57170645
| 50> H    0.00045128   3.44530416   2.53195798
| 51> H    3.11934351  -2.07794361   0.51019829
| 52> H    1.01427197  -3.38635168  -0.59981760
| 53> *
| 54>
| 55>                          ****END OF INPUT****

CARTESIAN COORDINATES (ANGSTROEM)
---------------------------------
  Ir     0.670846   -0.766880    0.557675
  C     -0.013977   -2.916319    1.330997
  C      0.388442   -2.108948    2.419333
  C      2.174893   -2.287411    0.993933
  C      1.034150   -2.895823    0.360800
  C      1.762894   -1.719066    2.224552
  N     -1.072899   -0.119135   -0.527440
  C     -2.459492   -0.079777    0.031336
  C     -2.828444    1.287372    0.645593
  H     -3.873887    1.217434    0.956742
  H     -2.756994    2.115610   -0.072697
  H     -2.198366    1.547553    1.501815
  C     -3.490824   -0.476759   -1.029140
  H     -2.463758   -0.850263    0.836880
  H     -4.437219   -0.594141   -0.522124
  H     -3.662064    0.285060   -1.801971
  H     -3.239234   -1.422963   -1.518169
  C     -0.838794    0.250120   -1.738501
  C      0.520071    0.199831   -2.195271
  H     -1.682477    0.562585   -2.372731
  C      1.650443    0.147685   -1.430845
  C      2.745384   -0.076375   -2.371604
  S      0.724960    0.227112   -3.913793
  C      2.397448   -0.042422   -3.718932
  H      1.722831    1.092571   -0.220086
  H      3.793885   -0.238776   -2.168613
  H      3.037075   -0.032195   -4.619835
  H     -1.010305   -3.377518    1.189948
  H     -0.173303   -2.009537    3.327968
  H      2.394016   -1.205995    2.957286
  O      1.968551    1.989482    0.164251
  O      0.407602    1.101276    1.463135
  C      1.152426    2.051906    1.147753
  C      0.916477    3.354099    1.900381
  H      0.860313    4.201726    1.207598
  H      1.739181    3.603721    2.571706
  H      0.000451    3.445304    2.531958
  H      3.119344   -2.077944    0.510198
  H      1.014272   -3.386352   -0.599818

 Total Charge           Charge          ....    1
 Multiplicity           Mult            ....    1
 Number of Electrons    NEL             ....  164
 Basis Dimension        Dim             ....  358

ORBITAL ENERGIES
----------------

  NO   OCC          E(Eh)            E(eV)
   0   2.0000     -89.733906     -2441.7837
   1   2.0000     -19.665955      -535.1378
   2   2.0000     -19.664913      -535.1095
   3   2.0000     -14.819421      -403.2570
   4   2.0000     -10.734157      -292.0913
   5   2.0000     -10.644452      -289.6503
   6   2.0000     -10.639388      -289.5125
   7   2.0000     -10.624722      -289.1134
   8   2.0000     -10.623505      -289.0803
   9   2.0000     -10.622878      -289.0632
  10   2.0000     -10.615332      -288.8579
  11   2.0000     -10.613084      -288.7967
  12   2.0000     -10.600007      -288.4409
  13   2.0000     -10.596407      -288.3429
  14   2.0000     -10.587259      -288.0940
  15   2.0000     -10.575304      -287.7686
  16   2.0000     -10.569349      -287.6066
  17   2.0000     -10.548682      -287.0442
  18   2.0000     -10.546470      -286.9840
  19   2.0000      -8.373866      -227.8645
  20   2.0000      -6.263797      -170.4466
  21   2.0000      -6.260360      -170.3530
  22   2.0000      -6.258603      -170.3052
  23   2.0000      -4.016653      -109.2987
  24   2.0000      -2.332104       -63.4598
  25   2.0000      -2.301731       -62.6333
  26   2.0000      -2.299199       -62.5644
  27   2.0000      -1.382546       -37.6210
  28   2.0000      -1.276701       -34.7408
  29   2.0000      -1.185670       -32.2637
  30   2.0000      -1.157609       -31.5002
  31   2.0000      -1.099725       -29.9250
  32   2.0000      -1.006686       -27.3933
  33   2.0000      -0.971093       -26.4248
  34   2.0000      -0.964635       -26.2490
  35   2.0000      -0.961528       -26.1645
  36   2.0000      -0.942509       -25.6470
  37   2.0000      -0.937849       -25.5202
  38   2.0000      -0.889151       -24.1950
  39   2.0000      -0.853395       -23.2221
  40   2.0000      -0.818262       -22.2660
  41   2.0000      -0.780717       -21.2444
  42   2.0000      -0.776216       -21.1219
  43   2.0000      -0.774781       -21.0829
  44   2.0000      -0.758980       -20.6529
  45   2.0000      -0.758742       -20.6464
  46   2.0000      -0.753039       -20.4912
  47   2.0000      -0.717279       -19.5181
  48   2.0000      -0.702176       -19.1072
  49   2.0000      -0.680584       -18.5196
  50   2.0000      -0.673566       -18.3287
  51   2.0000      -0.663637       -18.0585
  52   2.0000      -0.641064       -17.4442
  53   2.0000      -0.631022       -17.1710
  54   2.0000      -0.627316       -17.0701
  55   2.0000      -0.622893       -16.9498
  56   2.0000      -0.611520       -16.6403
  57   2.0000      -0.599730       -16.3195
  58   2.0000      -0.597339       -16.2544
  59   2.0000      -0.595001       -16.1908
  60   2.0000      -0.588478       -16.0133
  61   2.0000      -0.581594       -15.8260
  62   2.0000      -0.577646       -15.7185
  63   2.0000      -0.570949       -15.5363
  64   2.0000      -0.568462       -15.4686
  65   2.0000      -0.562123       -15.2961
  66   2.0000      -0.552863       -15.0442
  67   2.0000      -0.540263       -14.7013
  68   2.0000      -0.537792       -14.6341
  69   2.0000      -0.530545       -14.4369
  70   2.0000      -0.527676       -14.3588
  71   2.0000      -0.519831       -14.1453
  72   2.0000      -0.512820       -13.9545
  73   2.0000      -0.496310       -13.5053
  74   2.0000      -0.493208       -13.4209
  75   2.0000      -0.476943       -12.9783
  76   2.0000      -0.468285       -12.7427
  77   2.0000      -0.452575       -12.3152
  78   2.0000      -0.435925       -11.8621
  79   2.0000      -0.417582       -11.3630
  80   2.0000      -0.401670       -10.9300
  81   2.0000      -0.388238       -10.5645
  82   0.0000      -0.187747        -5.1089
  83   0.0000      -0.170232        -4.6323
  84   0.0000      -0.146784        -3.9942
  85   0.0000      -0.103186        -2.8078
  86   0.0000      -0.075953        -2.0668

MULLIKEN ATOMIC CHARGES
-----------------------
   0 Ir:    0.542888
   1 C :   -0.116801
   2 C :   -0.267123
   3 C :   -0.164434
   4 C :   -0.364859
   5 C :   -0.258924
   6 N :   -0.446259
   7 C :   -0.108661
   8 C :   -0.633641
   9 H :    0.246178
  10 H :    0.226455
  11 H :    0.254732
  12 C :   -0.681856
  13 H :    0.241280
  14 H :    0.265768
  15 H :    0.229574
  16 H :    0.249589
  17 C :    0.068057
  18 C :   -0.154462
  19 H :    0.277145
  20 C :   -0.328773
  21 C :   -0.246308
  22 S :    0.278815
  23 C :   -0.378047
  24 H :    0.537357
  25 H :    0.249137
  26 H :    0.292156
  27 H :    0.287345
  28 H :    0.283435
  29 H :    0.288909
  30 O :   -0.510464
  31 O :   -0.460618
  32 C :    0.628341
  33 C :   -0.770479
  34 H :    0.281635
  35 H :    0.286837
  36 H :    0.279146
  37 H :    0.302264
  38 H :    0.294665
Sum of atomic charges:    1.0000000

LOEWDIN ATOMIC CHARGES
----------------------
   0 Ir:   -0.256402
   1 C :   -0.005277
   2 C :   -0.078681
   3 C :   -0.040388
   4 C :   -0.108979
   5 C :   -0.066931
   6 N :   -0.041464
   7 C :   -0.056693
   8 C :   -0.353236
   9 H :    0.146727
  10 H :    0.135809
  11 H :    0.144092
  12 C :   -0.364412
  13 H :    0.138180
  14 H :    0.152182
  15 H :    0.134472
  16 H :    0.141310
  17 C :    0.027914
  18 C :   -0.216876
  19 H :    0.157182
  20 C :   -0.172017
  21 C :   -0.155290
  22 S :    0.436753
  23 C :   -0.264816
  24 H :    0.335851
  25 H :    0.152171
  26 H :    0.168910
  27 H :    0.183518
  28 H :    0.179073
  29 H :    0.187175
  30 O :   -0.218837
  31 O :   -0.134823
  32 C :    0.209319
  33 C :   -0.379489
  34 H :    0.170067
  35 H :    0.173655
  36 H :    0.166043
  37 H :    0.188797
  38 H :    0.185412

  Mayer bond orders larger than 0.100000
B(  0-Ir,  1-C ) :   0.2896 B(  0-Ir,  2-C ) :   0.3676 B(  0-Ir,  3-C ) :   0.4147
B(  0-Ir,  4-C ) :   0.4932 B(  0-Ir,  5-C ) :   0.4485 B(  0-Ir,  6-N ) :   0.4856
B(  0-Ir, 20-C ) :   0.4952 B(  0-Ir, 31-O ) :   0.4606 B(  1-C ,  2-C ) :   1.2717
B(  1-C ,  4-C ) :   1.1742 B(  1-C , 27-H ) :   0.9033 B(  2-C ,  5-C ) :   1.1163
B(  2-C , 28-H ) :   0.9176 B(  3-C ,  4-C ) :   1.1373 B(  3-C ,  5-C ) :   1.2230
B(  3-C , 37-H ) :   0.8901 B(  4-C , 38-H ) :   0.9067 B(  5-C , 29-H ) :   0.9117
B(  6-N ,  7-C ) :   0.8903 B(  6-N , 17-C ) :   1.6343 B(  7-C ,  8-C ) :   0.9716
B(  7-C , 12-C ) :   0.9840 B(  7-C , 13-H ) :   0.8974 B(  8-C ,  9-H ) :   0.9071
B(  8-C , 10-H ) :   0.9174 B(  8-C , 11-H ) :   0.9097 B( 12-C , 14-H ) :   0.9044
B( 12-C , 15-H ) :   0.9110 B( 12-C , 16-H ) :   0.9147 B( 17-C , 18-C ) :   1.1073
B( 17-C , 19-H ) :   0.8744 B( 18-C , 20-C ) :   1.3133 B( 18-C , 22-S ) :   1.1699
B( 20-C , 21-C ) :   1.3340 B( 20-C , 24-H ) :   0.1782 B( 21-C , 23-C ) :   1.5477
B( 21-C , 25-H ) :   0.9098 B( 22-S , 23-C ) :   1.2187 B( 23-C , 26-H ) :   0.8875
B( 24-H , 30-O ) :   0.4352 B( 30-O , 32-C ) :   1.4297 B( 31-O , 32-C ) :   1.4936
B( 32-C , 33-C ) :   0.9449 B( 33-C , 34-H ) :   0.8902 B( 33-C , 35-H ) :   0.8860
B( 33-C , 36-H ) :   0.9041

Dispersion correction           -0.029645369
FINAL SINGLE POINT ENERGY     -1288.352499316599
Dispersion correction            ... done

DIPOLE MOMENT
-------------
                                X             Y             Z
Electronic contribution:     42.76242     -74.48087      84.01442
Nuclear contribution   :    -43.46391      74.34134     -83.33730
                        -----------------------------------------
Total Dipole Moment    :     -0.70149      -0.13953       0.67712
                        -----------------------------------------
Magnitude (a.u.)       :      0.98491
Magnitude (Debye)      :      2.50345

Rotational constants in cm-1:     0.010484     0.008293     0.007678
Rotational constants in MHz :   314.288993   248.624442   230.190159

                             ****ORCA TERMINATED NORMALLY****
TOTAL RUN TIME: 0 days 0 hours 14 minutes 59 seconds 518 msec
