                         Program Version 5.0.3 -  RELEASE  -
|  1> ! EnGrad PBEh-3c
|  2> %output
|  3> xyzfile=True
|  4> end
|  5> %scf
|  6> maxiter 250
|  7> end
|  8> %output
|  9> Print[P_Hirshfeld] = 1
| 10> end
| 11> % maxcore
| 12> 4000
| 13> *xyz 1 1
| 14> Ir   0.62589784  -0.75756105   0.59000919
| 15> C   -0.00768674  -2.91015058   1.28676823
| 16> C    0.33634848  -2.13028301   2.40679038
| 17> C    2.16201585  -2.21935124   1.02850477
| 18> C    1.06142628  -2.86907068   0.36221386
| 19> C    1.71275712  -1.72919057   2.26197839
| 20> N   -1.07690206  -0.11033765  -0.51782339
| 21> C   -2.48066713  -0.08271357   0.03300453
| 22> C   -2.83313569   1.25789374   0.68045302
| 23> H   -3.87365623   1.20022695   1.00702776
| 24> H   -2.75533968   2.08988786  -0.02398775
| 25> H   -2.20855584   1.47153885   1.54447817
| 26> C   -3.50715212  -0.45565701  -1.03073772
| 27> H   -2.48523306  -0.86051467   0.80664729
| 28> H   -4.45930638  -0.58633957  -0.52485431
| 29> H   -3.67236486   0.32099322  -1.78274122
| 30> H   -3.26559471  -1.39325682  -1.53176675
| 31> C   -0.83799651   0.24827575  -1.72866657
| 32> C    0.51061245   0.18772458  -2.24034017
| 33> H   -1.67366651   0.54932333  -2.35943769
| 34> C    1.65477703   0.08181814  -1.44790055
| 35> C    2.74849426  -0.11785487  -2.41571859
| 36> S    0.73415924   0.25428410  -3.96009774
| 37> C    2.40920644  -0.01804665  -3.75223261
| 38> H    1.90633487   1.12171341  -0.46643119
| 39> H    3.79254667  -0.25574592  -2.16956766
| 40> H    3.06616532  -0.02824593  -4.63098051
| 41> H   -0.92693106  -3.46811970   1.14734099
| 42> H   -0.24577480  -2.05197648   3.31070370
| 43> H    2.31095722  -1.25633324   3.02697319
| 44> O    2.00510916   2.02552063   0.21694255
| 45> O    0.35592126   1.12303710   1.49431674
| 46> C    1.13953302   2.06251620   1.15972450
| 47> C    0.90937747   3.40730512   1.90257959
| 48> H    0.86512151   4.23787076   1.18999236
| 49> H    1.75748890   3.63192169   2.55269816
| 50> H    0.00514736   3.48012167   2.53621104
| 51> H    3.13804457  -2.05286267   0.61488731
| 52> H    1.09871311  -3.40076200  -0.57039488
| 53> *
| 54>
| 55>                          ****END OF INPUT****

CARTESIAN COORDINATES (ANGSTROEM)
---------------------------------
  Ir     0.625898   -0.757561    0.590009
  C     -0.007687   -2.910151    1.286768
  C      0.336348   -2.130283    2.406790
  C      2.162016   -2.219351    1.028505
  C      1.061426   -2.869071    0.362214
  C      1.712757   -1.729191    2.261978
  N     -1.076902   -0.110338   -0.517823
  C     -2.480667   -0.082714    0.033005
  C     -2.833136    1.257894    0.680453
  H     -3.873656    1.200227    1.007028
  H     -2.755340    2.089888   -0.023988
  H     -2.208556    1.471539    1.544478
  C     -3.507152   -0.455657   -1.030738
  H     -2.485233   -0.860515    0.806647
  H     -4.459306   -0.586340   -0.524854
  H     -3.672365    0.320993   -1.782741
  H     -3.265595   -1.393257   -1.531767
  C     -0.837997    0.248276   -1.728667
  C      0.510612    0.187725   -2.240340
  H     -1.673667    0.549323   -2.359438
  C      1.654777    0.081818   -1.447901
  C      2.748494   -0.117855   -2.415719
  S      0.734159    0.254284   -3.960098
  C      2.409206   -0.018047   -3.752233
  H      1.906335    1.121713   -0.466431
  H      3.792547   -0.255746   -2.169568
  H      3.066165   -0.028246   -4.630981
  H     -0.926931   -3.468120    1.147341
  H     -0.245775   -2.051976    3.310704
  H      2.310957   -1.256333    3.026973
  O      2.005109    2.025521    0.216943
  O      0.355921    1.123037    1.494317
  C      1.139533    2.062516    1.159725
  C      0.909377    3.407305    1.902580
  H      0.865122    4.237871    1.189992
  H      1.757489    3.631922    2.552698
  H      0.005147    3.480122    2.536211
  H      3.138045   -2.052863    0.614887
  H      1.098713   -3.400762   -0.570395

 Total Charge           Charge          ....    1
 Multiplicity           Mult            ....    1
 Number of Electrons    NEL             ....  164
 Basis Dimension        Dim             ....  358

ORBITAL ENERGIES
----------------

  NO   OCC          E(Eh)            E(eV)
   0   2.0000     -89.745121     -2442.0889
   1   2.0000     -19.654963      -534.8387
   2   2.0000     -19.650150      -534.7078
   3   2.0000     -14.824224      -403.3876
   4   2.0000     -10.725148      -291.8461
   5   2.0000     -10.646532      -289.7069
   6   2.0000     -10.635414      -289.4043
   7   2.0000     -10.622765      -289.0601
   8   2.0000     -10.621686      -289.0308
   9   2.0000     -10.620671      -289.0031
  10   2.0000     -10.613880      -288.8183
  11   2.0000     -10.612559      -288.7824
  12   2.0000     -10.611418      -288.7514
  13   2.0000     -10.600798      -288.4624
  14   2.0000     -10.589653      -288.1591
  15   2.0000     -10.581153      -287.9278
  16   2.0000     -10.560223      -287.3583
  17   2.0000     -10.548569      -287.0412
  18   2.0000     -10.542788      -286.8838
  19   2.0000      -8.384469      -228.1530
  20   2.0000      -6.274395      -170.7350
  21   2.0000      -6.270953      -170.6413
  22   2.0000      -6.269265      -170.5954
  23   2.0000      -4.016848      -109.3040
  24   2.0000      -2.332580       -63.4727
  25   2.0000      -2.301592       -62.6295
  26   2.0000      -2.299403       -62.5699
  27   2.0000      -1.341418       -36.5018
  28   2.0000      -1.251440       -34.0534
  29   2.0000      -1.187201       -32.3054
  30   2.0000      -1.161954       -31.6184
  31   2.0000      -1.101587       -29.9757
  32   2.0000      -1.010096       -27.4861
  33   2.0000      -0.975280       -26.5387
  34   2.0000      -0.963295       -26.2126
  35   2.0000      -0.948064       -25.7981
  36   2.0000      -0.946598       -25.7582
  37   2.0000      -0.936081       -25.4721
  38   2.0000      -0.891211       -24.2511
  39   2.0000      -0.854933       -23.2639
  40   2.0000      -0.800297       -21.7772
  41   2.0000      -0.782308       -21.2877
  42   2.0000      -0.778004       -21.1706
  43   2.0000      -0.777336       -21.1524
  44   2.0000      -0.763226       -20.7684
  45   2.0000      -0.759120       -20.6567
  46   2.0000      -0.741399       -20.1745
  47   2.0000      -0.717244       -19.5172
  48   2.0000      -0.682938       -18.5837
  49   2.0000      -0.677004       -18.4222
  50   2.0000      -0.667951       -18.1759
  51   2.0000      -0.655187       -17.8285
  52   2.0000      -0.644790       -17.5456
  53   2.0000      -0.635012       -17.2796
  54   2.0000      -0.629723       -17.1356
  55   2.0000      -0.624564       -16.9953
  56   2.0000      -0.613129       -16.6841
  57   2.0000      -0.600070       -16.3287
  58   2.0000      -0.598004       -16.2725
  59   2.0000      -0.592663       -16.1272
  60   2.0000      -0.584804       -15.9133
  61   2.0000      -0.581334       -15.8189
  62   2.0000      -0.569479       -15.4963
  63   2.0000      -0.567102       -15.4316
  64   2.0000      -0.559833       -15.2338
  65   2.0000      -0.558064       -15.1857
  66   2.0000      -0.552276       -15.0282
  67   2.0000      -0.535788       -14.5795
  68   2.0000      -0.534807       -14.5528
  69   2.0000      -0.525402       -14.2969
  70   2.0000      -0.524139       -14.2625
  71   2.0000      -0.521682       -14.1957
  72   2.0000      -0.512526       -13.9465
  73   2.0000      -0.498632       -13.5685
  74   2.0000      -0.491774       -13.3819
  75   2.0000      -0.474563       -12.9135
  76   2.0000      -0.469607       -12.7787
  77   2.0000      -0.450088       -12.2475
  78   2.0000      -0.438584       -11.9345
  79   2.0000      -0.419177       -11.4064
  80   2.0000      -0.406837       -11.0706
  81   2.0000      -0.392059       -10.6685
  82   0.0000      -0.197628        -5.3777
  83   0.0000      -0.168196        -4.5768
  84   0.0000      -0.149821        -4.0768
  85   0.0000      -0.092878        -2.5273
  86   0.0000      -0.077314        -2.1038

MULLIKEN ATOMIC CHARGES
-----------------------
   0 Ir:    0.591877
   1 C :   -0.132498
   2 C :   -0.271600
   3 C :   -0.185876
   4 C :   -0.342059
   5 C :   -0.226737
   6 N :   -0.451991
   7 C :   -0.108611
   8 C :   -0.633730
   9 H :    0.245702
  10 H :    0.226732
  11 H :    0.262397
  12 C :   -0.684169
  13 H :    0.247818
  14 H :    0.266142
  15 H :    0.230792
  16 H :    0.249943
  17 C :    0.081318
  18 C :   -0.158602
  19 H :    0.274389
  20 C :   -0.420354
  21 C :   -0.199524
  22 S :    0.302074
  23 C :   -0.385876
  24 H :    0.518488
  25 H :    0.253644
  26 H :    0.295008
  27 H :    0.285774
  28 H :    0.283185
  29 H :    0.287731
  30 O :   -0.530638
  31 O :   -0.472925
  32 C :    0.641911
  33 C :   -0.746228
  34 H :    0.276041
  35 H :    0.278070
  36 H :    0.270272
  37 H :    0.295322
  38 H :    0.286788
Sum of atomic charges:    1.0000000

LOEWDIN ATOMIC CHARGES
----------------------
   0 Ir:   -0.234247
   1 C :   -0.006814
   2 C :   -0.075910
   3 C :   -0.041959
   4 C :   -0.102220
   5 C :   -0.059000
   6 N :   -0.032436
   7 C :   -0.054470
   8 C :   -0.351873
   9 H :    0.146416
  10 H :    0.136530
  11 H :    0.147568
  12 C :   -0.364521
  13 H :    0.140259
  14 H :    0.153821
  15 H :    0.134890
  16 H :    0.141176
  17 C :    0.026722
  18 C :   -0.201900
  19 H :    0.154677
  20 C :   -0.212420
  21 C :   -0.146806
  22 S :    0.451096
  23 C :   -0.265708
  24 H :    0.358014
  25 H :    0.152787
  26 H :    0.170016
  27 H :    0.181290
  28 H :    0.180423
  29 H :    0.185200
  30 O :   -0.258163
  31 O :   -0.156356
  32 C :    0.217126
  33 C :   -0.376482
  34 H :    0.166346
  35 H :    0.169046
  36 H :    0.159409
  37 H :    0.185620
  38 H :    0.182857

  Mayer bond orders larger than 0.100000
B(  0-Ir,  1-C ) :   0.3110 B(  0-Ir,  2-C ) :   0.4016 B(  0-Ir,  3-C ) :   0.4288
B(  0-Ir,  4-C ) :   0.4826 B(  0-Ir,  5-C ) :   0.4307 B(  0-Ir,  6-N ) :   0.4913
B(  0-Ir, 20-C ) :   0.4312 B(  0-Ir, 31-O ) :   0.4894 B(  1-C ,  2-C ) :   1.2433
B(  1-C ,  4-C ) :   1.1990 B(  1-C , 27-H ) :   0.9094 B(  2-C ,  5-C ) :   1.1251
B(  2-C , 28-H ) :   0.9175 B(  3-C ,  4-C ) :   1.1256 B(  3-C ,  5-C ) :   1.2319
B(  3-C , 37-H ) :   0.9002 B(  4-C , 38-H ) :   0.9141 B(  5-C , 29-H ) :   0.9135
B(  6-N ,  7-C ) :   0.8798 B(  6-N , 17-C ) :   1.6399 B(  7-C ,  8-C ) :   0.9771
B(  7-C , 12-C ) :   0.9885 B(  7-C , 13-H ) :   0.8949 B(  8-C ,  9-H ) :   0.9065
B(  8-C , 10-H ) :   0.9177 B(  8-C , 11-H ) :   0.9055 B( 12-C , 14-H ) :   0.9041
B( 12-C , 15-H ) :   0.9110 B( 12-C , 16-H ) :   0.9142 B( 17-C , 18-C ) :   1.1039
B( 17-C , 19-H ) :   0.8769 B( 18-C , 20-C ) :   1.2950 B( 18-C , 22-S ) :   1.1927
B( 20-C , 21-C ) :   1.2933 B( 20-C , 24-H ) :   0.2629 B( 21-C , 23-C ) :   1.5579
B( 21-C , 25-H ) :   0.9071 B( 22-S , 23-C ) :   1.2091 B( 23-C , 26-H ) :   0.8878
B( 24-H , 30-O ) :   0.3914 B( 30-O , 32-C ) :   1.4366 B( 31-O , 32-C ) :   1.4610
B( 32-C , 33-C ) :   0.9389 B( 33-C , 34-H ) :   0.8946 B( 33-C , 35-H ) :   0.8913
B( 33-C , 36-H ) :   0.9056

Dispersion correction           -0.029444873
FINAL SINGLE POINT ENERGY     -1288.367733438494
Dispersion correction            ... done

DIPOLE MOMENT
-------------
                                X             Y             Z
Electronic contribution:     38.73643     -74.38525      86.97250
Nuclear contribution   :    -39.38820      73.91899     -86.66356
                        -----------------------------------------
Total Dipole Moment    :     -0.65176      -0.46627       0.30894
                        -----------------------------------------
Magnitude (a.u.)       :      0.85886
Magnitude (Debye)      :      2.18305

Rotational constants in cm-1:     0.010445     0.008136     0.007575
Rotational constants in MHz :   313.134385   243.925439   227.105378

                             ****ORCA TERMINATED NORMALLY****
TOTAL RUN TIME: 0 days 0 hours 19 minutes 24 seconds 107 msec
