                         Program Version 5.0.3 -  RELEASE  -
|  1> ! EnGrad PBEh-3c
|  2> %output
|  3> xyzfile=True
|  4> end
|  5> %scf
|  6> maxiter 250
|  7> end
|  8> %output
|  9> Print[P_Hirshfeld] = 1
| 10> end
| 11> % maxcore
| 12> 4000
| 13> *xyz 1 1
| 14> Ir   0.65929512  -0.78957177   0.56611671
| 15> C   -0.02219641  -2.89368711   1.33665682
| 16> C    0.41515431  -2.10920049   2.42029941
| 17> C    2.17399351  -2.28846272   0.96534376
| 18> C    1.02603507  -2.90960472   0.35917927
| 19> C    1.78583226  -1.72472733   2.20158743
| 20> N   -1.06216456  -0.11995983  -0.52588817
| 21> C   -2.43808915  -0.07954056   0.02736981
| 22> C   -2.82142577   1.29397862   0.62637679
| 23> H   -3.86971924   1.23036015   0.93995693
| 24> H   -2.75858153   2.11642776  -0.09552108
| 25> H   -2.20100093   1.57596999   1.48158984
| 26> C   -3.48157420  -0.48604534  -1.02669749
| 27> H   -2.45769743  -0.82852883   0.83645067
| 28> H   -4.43634665  -0.60207164  -0.52027485
| 29> H   -3.65292568   0.26613943  -1.80403640
| 30> H   -3.22911593  -1.43294567  -1.50889242
| 31> C   -0.84204179   0.24438992  -1.71382326
| 32> C    0.49100713   0.22933480  -2.20722163
| 33> H   -1.66957771   0.56465022  -2.37704264
| 34> C    1.62964558   0.08754428  -1.46755351
| 35> C    2.74469570  -0.05482524  -2.36489363
| 36> S    0.73065500   0.20989475  -3.89093442
| 37> C    2.39187393  -0.03792511  -3.69373011
| 38> H    1.70075966   1.10933859  -0.14704088
| 39> H    3.79748964  -0.22623164  -2.15589260
| 40> H    3.01956358  -0.04175256  -4.59582901
| 41> H   -1.03017526  -3.33161825   1.21461174
| 42> H   -0.14614190  -1.98096863   3.34151421
| 43> H    2.42514866  -1.19169335   2.91856116
| 44> O    1.94590039   1.99009199   0.18950734
| 45> O    0.44286203   1.09275256   1.44799097
| 46> C    1.10389093   2.07152451   1.17265061
| 47> C    0.92029972   3.34816525   1.90052707
| 48> H    0.86214753   4.18149343   1.21239303
| 49> H    1.73700864   3.58786830   2.57902530
| 50> H    0.01130593   3.41152289   2.51601581
| 51> H    3.11818924  -2.09874830   0.46526451
| 52> H    0.97916050  -3.38817131  -0.61140300
| 53> *
| 54>
| 55>                          ****END OF INPUT****

CARTESIAN COORDINATES (ANGSTROEM)
---------------------------------
  Ir     0.659295   -0.789572    0.566117
  C     -0.022196   -2.893687    1.336657
  C      0.415154   -2.109200    2.420299
  C      2.173994   -2.288463    0.965344
  C      1.026035   -2.909605    0.359179
  C      1.785832   -1.724727    2.201587
  N     -1.062165   -0.119960   -0.525888
  C     -2.438089   -0.079541    0.027370
  C     -2.821426    1.293979    0.626377
  H     -3.869719    1.230360    0.939957
  H     -2.758582    2.116428   -0.095521
  H     -2.201001    1.575970    1.481590
  C     -3.481574   -0.486045   -1.026697
  H     -2.457697   -0.828529    0.836451
  H     -4.436347   -0.602072   -0.520275
  H     -3.652926    0.266139   -1.804036
  H     -3.229116   -1.432946   -1.508892
  C     -0.842042    0.244390   -1.713823
  C      0.491007    0.229335   -2.207222
  H     -1.669578    0.564650   -2.377043
  C      1.629646    0.087544   -1.467554
  C      2.744696   -0.054825   -2.364894
  S      0.730655    0.209895   -3.890934
  C      2.391874   -0.037925   -3.693730
  H      1.700760    1.109339   -0.147041
  H      3.797490   -0.226232   -2.155893
  H      3.019564   -0.041753   -4.595829
  H     -1.030175   -3.331618    1.214612
  H     -0.146142   -1.980969    3.341514
  H      2.425149   -1.191693    2.918561
  O      1.945900    1.990092    0.189507
  O      0.442862    1.092753    1.447991
  C      1.103891    2.071525    1.172651
  C      0.920300    3.348165    1.900527
  H      0.862148    4.181493    1.212393
  H      1.737009    3.587868    2.579025
  H      0.011306    3.411523    2.516016
  H      3.118189   -2.098748    0.465265
  H      0.979160   -3.388171   -0.611403

 Total Charge           Charge          ....    1
 Multiplicity           Mult            ....    1
 Number of Electrons    NEL             ....  164
 Basis Dimension        Dim             ....  358

ORBITAL ENERGIES
----------------

  NO   OCC          E(Eh)            E(eV)
   0   2.0000     -89.729995     -2441.6773
   1   2.0000     -19.666367      -535.1490
   2   2.0000     -19.659983      -534.9753
   3   2.0000     -14.816558      -403.1790
   4   2.0000     -10.730821      -292.0005
   5   2.0000     -10.640358      -289.5389
   6   2.0000     -10.637409      -289.4586
   7   2.0000     -10.624790      -289.1152
   8   2.0000     -10.624109      -289.0967
   9   2.0000     -10.622390      -289.0499
  10   2.0000     -10.614867      -288.8452
  11   2.0000     -10.613380      -288.8048
  12   2.0000     -10.591509      -288.2096
  13   2.0000     -10.590174      -288.1733
  14   2.0000     -10.584570      -288.0208
  15   2.0000     -10.569821      -287.6194
  16   2.0000     -10.568515      -287.5839
  17   2.0000     -10.548074      -287.0277
  18   2.0000     -10.546910      -286.9960
  19   2.0000      -8.370783      -227.7806
  20   2.0000      -6.260665      -170.3614
  21   2.0000      -6.257213      -170.2674
  22   2.0000      -6.255604      -170.2236
  23   2.0000      -4.016834      -109.3036
  24   2.0000      -2.332952       -63.4829
  25   2.0000      -2.302447       -62.6528
  26   2.0000      -2.298719       -62.5513
  27   2.0000      -1.394619       -37.9495
  28   2.0000      -1.281449       -34.8700
  29   2.0000      -1.195327       -32.5265
  30   2.0000      -1.159448       -31.5502
  31   2.0000      -1.105725       -30.0883
  32   2.0000      -1.007784       -27.4232
  33   2.0000      -0.979524       -26.6542
  34   2.0000      -0.972678       -26.4679
  35   2.0000      -0.962193       -26.1826
  36   2.0000      -0.946268       -25.7493
  37   2.0000      -0.935134       -25.4463
  38   2.0000      -0.888230       -24.1700
  39   2.0000      -0.854787       -23.2599
  40   2.0000      -0.816550       -22.2195
  41   2.0000      -0.784139       -21.3375
  42   2.0000      -0.777223       -21.1493
  43   2.0000      -0.773705       -21.0536
  44   2.0000      -0.762716       -20.7546
  45   2.0000      -0.759567       -20.6689
  46   2.0000      -0.754386       -20.5279
  47   2.0000      -0.716065       -19.4851
  48   2.0000      -0.706841       -19.2341
  49   2.0000      -0.688004       -18.7215
  50   2.0000      -0.677078       -18.4242
  51   2.0000      -0.665383       -18.1060
  52   2.0000      -0.642185       -17.4747
  53   2.0000      -0.631612       -17.1870
  54   2.0000      -0.628844       -17.1117
  55   2.0000      -0.624420       -16.9913
  56   2.0000      -0.614652       -16.7255
  57   2.0000      -0.605002       -16.4629
  58   2.0000      -0.598941       -16.2980
  59   2.0000      -0.594508       -16.1774
  60   2.0000      -0.591816       -16.1041
  61   2.0000      -0.584735       -15.9115
  62   2.0000      -0.581388       -15.8204
  63   2.0000      -0.578266       -15.7354
  64   2.0000      -0.571274       -15.5451
  65   2.0000      -0.561119       -15.2688
  66   2.0000      -0.551993       -15.0205
  67   2.0000      -0.541516       -14.7354
  68   2.0000      -0.537217       -14.6184
  69   2.0000      -0.531908       -14.4740
  70   2.0000      -0.527666       -14.3585
  71   2.0000      -0.519734       -14.1427
  72   2.0000      -0.513174       -13.9642
  73   2.0000      -0.498773       -13.5723
  74   2.0000      -0.495001       -13.4697
  75   2.0000      -0.476766       -12.9735
  76   2.0000      -0.466908       -12.7052
  77   2.0000      -0.452596       -12.3158
  78   2.0000      -0.436892       -11.8884
  79   2.0000      -0.413803       -11.2602
  80   2.0000      -0.400201       -10.8900
  81   2.0000      -0.388948       -10.5838
  82   0.0000      -0.178683        -4.8622
  83   0.0000      -0.166829        -4.5396
  84   0.0000      -0.144775        -3.9395
  85   0.0000      -0.101173        -2.7531
  86   0.0000      -0.068709        -1.8697

MULLIKEN ATOMIC CHARGES
-----------------------
   0 Ir:    0.518657
   1 C :   -0.141437
   2 C :   -0.260259
   3 C :   -0.173638
   4 C :   -0.341479
   5 C :   -0.250983
   6 N :   -0.448053
   7 C :   -0.112470
   8 C :   -0.637257
   9 H :    0.247134
  10 H :    0.227564
  11 H :    0.250238
  12 C :   -0.682208
  13 H :    0.243794
  14 H :    0.263667
  15 H :    0.230636
  16 H :    0.249097
  17 C :    0.074084
  18 C :   -0.156910
  19 H :    0.273415
  20 C :   -0.286395
  21 C :   -0.254124
  22 S :    0.284470
  23 C :   -0.387580
  24 H :    0.533148
  25 H :    0.248930
  26 H :    0.291500
  27 H :    0.287774
  28 H :    0.284721
  29 H :    0.289262
  30 O :   -0.532657
  31 O :   -0.443720
  32 C :    0.627522
  33 C :   -0.778912
  34 H :    0.289143
  35 H :    0.294640
  36 H :    0.279681
  37 H :    0.302408
  38 H :    0.296596
Sum of atomic charges:    1.0000000

LOEWDIN ATOMIC CHARGES
----------------------
   0 Ir:   -0.267564
   1 C :   -0.014227
   2 C :   -0.079428
   3 C :   -0.038564
   4 C :   -0.100435
   5 C :   -0.065499
   6 N :   -0.037101
   7 C :   -0.058728
   8 C :   -0.354458
   9 H :    0.147150
  10 H :    0.135404
  11 H :    0.141094
  12 C :   -0.364105
  13 H :    0.138482
  14 H :    0.151637
  15 H :    0.134458
  16 H :    0.140509
  17 C :    0.027417
  18 C :   -0.242102
  19 H :    0.155078
  20 C :   -0.155081
  21 C :   -0.162974
  22 S :    0.451189
  23 C :   -0.264854
  24 H :    0.329548
  25 H :    0.153999
  26 H :    0.167219
  27 H :    0.184412
  28 H :    0.180667
  29 H :    0.187796
  30 O :   -0.228607
  31 O :   -0.107214
  32 C :    0.193280
  33 C :   -0.376506
  34 H :    0.174683
  35 H :    0.180383
  36 H :    0.166535
  37 H :    0.189655
  38 H :    0.186851

  Mayer bond orders larger than 0.100000
B(  0-Ir,  1-C ) :   0.3076 B(  0-Ir,  2-C ) :   0.3693 B(  0-Ir,  3-C ) :   0.4180
B(  0-Ir,  4-C ) :   0.5076 B(  0-Ir,  5-C ) :   0.4560 B(  0-Ir,  6-N ) :   0.4821
B(  0-Ir, 20-C ) :   0.5335 B(  0-Ir, 31-O ) :   0.4266 B(  1-C ,  2-C ) :   1.2726
B(  1-C ,  4-C ) :   1.1657 B(  1-C , 27-H ) :   0.9036 B(  2-C ,  5-C ) :   1.1141
B(  2-C , 28-H ) :   0.9144 B(  3-C ,  4-C ) :   1.1388 B(  3-C ,  5-C ) :   1.2189
B(  3-C , 37-H ) :   0.8914 B(  4-C , 38-H ) :   0.9040 B(  5-C , 29-H ) :   0.9100
B(  6-N ,  7-C ) :   0.8989 B(  6-N , 17-C ) :   1.6375 B(  7-C ,  8-C ) :   0.9718
B(  7-C , 12-C ) :   0.9848 B(  7-C , 13-H ) :   0.8975 B(  8-C ,  9-H ) :   0.9080
B(  8-C , 10-H ) :   0.9170 B(  8-C , 11-H ) :   0.9116 B( 12-C , 14-H ) :   0.9061
B( 12-C , 15-H ) :   0.9110 B( 12-C , 16-H ) :   0.9148 B( 17-C , 18-C ) :   1.1109
B( 17-C , 19-H ) :   0.8750 B( 18-C , 20-C ) :   1.3203 B( 18-C , 22-S ) :   1.1667
B( 20-C , 21-C ) :   1.3758 B( 20-C , 24-H ) :   0.1305 B( 21-C , 23-C ) :   1.5262
B( 21-C , 25-H ) :   0.9107 B( 22-S , 23-C ) :   1.2422 B( 23-C , 26-H ) :   0.8873
B( 24-H , 30-O ) :   0.4892 B( 30-O , 32-C ) :   1.3699 B( 31-O , 32-C ) :   1.5550
B( 32-C , 33-C ) :   0.9549 B( 33-C , 34-H ) :   0.8870 B( 33-C , 35-H ) :   0.8829
B( 33-C , 36-H ) :   0.9031

Dispersion correction           -0.029758761
FINAL SINGLE POINT ENERGY     -1288.365629458878
Dispersion correction            ... done

DIPOLE MOMENT
-------------
                                X             Y             Z
Electronic contribution:     41.63321     -76.40530      84.81417
Nuclear contribution   :    -42.30608      76.38020     -84.01088
                        -----------------------------------------
Total Dipole Moment    :     -0.67287      -0.02510       0.80330
                        -----------------------------------------
Magnitude (a.u.)       :      1.04818
Magnitude (Debye)      :      2.66426

Rotational constants in cm-1:     0.010507     0.008328     0.007718
Rotational constants in MHz :   314.998476   249.676687   231.381554

                             ****ORCA TERMINATED NORMALLY****
TOTAL RUN TIME: 0 days 0 hours 14 minutes 50 seconds 522 msec
