                         Program Version 5.0.3 -  RELEASE  -
|  1> ! EnGrad PBEh-3c
|  2> %output
|  3> xyzfile=True
|  4> end
|  5> %scf
|  6> maxiter 250
|  7> end
|  8> %output
|  9> Print[P_Hirshfeld] = 1
| 10> end
| 11> % maxcore
| 12> 4000
| 13> *xyz 1 1
| 14> Ir   0.63486719  -0.76615802   0.58359250
| 15> C   -0.01158353  -2.90572907   1.30016658
| 16> C    0.35751299  -2.12462098   2.41041844
| 17> C    2.16523263  -2.23791218   1.01154192
| 18> C    1.05192143  -2.87995671   0.36139888
| 19> C    1.73238257  -1.72799190   2.24575947
| 20> N   -1.07294408  -0.11292184  -0.51998931
| 21> C   -2.46923216  -0.08186141   0.03149124
| 22> C   -2.82999081   1.26758488   0.66593002
| 23> H   -3.87259889   1.20831968   0.98901486
| 24> H   -2.75621033   2.09701555  -0.04319911
| 25> H   -2.20652685   1.49958543   1.52758855
| 26> C   -3.50028278  -0.46381826  -1.02965266
| 27> H   -2.47783795  -0.85192438   0.81465144
| 28> H   -4.45314019  -0.59056466  -0.52362443
| 29> H   -3.66714417   0.30626140  -1.78846037
| 30> H   -3.25579778  -1.40391587  -1.52562350
| 31> C   -0.83908293   0.24723215  -1.72468017
| 32> C    0.50534715   0.19889964  -2.23144568
| 33> H   -1.67256840   0.55343960  -2.36416577
| 34> C    1.64802759   0.08335598  -1.45317865
| 35> C    2.74747410  -0.10092730  -2.40206877
| 36> S    0.73321813   0.24236267  -3.94152287
| 37> C    2.40455153  -0.02338531  -3.73652087
| 38> H    1.85112451   1.11838996  -0.38065405
| 39> H    3.79387418  -0.24781941  -2.16589501
| 40> H    3.05364971  -0.03187334  -4.62154003
| 41> H   -0.95465887  -3.43146016   1.16540757
| 42> H   -0.21901687  -2.03290624   3.31897833
| 43> H    2.34162507  -1.23897321   2.99785749
| 44> O    1.98920774   2.01600573   0.20957440
| 45> O    0.37927053   1.11490373   1.48187525
| 46> C    1.12996079   2.06493552   1.16319601
| 47> C    0.91231080   3.39142221   1.90202836
| 48> H    0.86432280   4.22272976   1.19600840
| 49> H    1.75198861   3.62009048   2.55976872
| 50> H    0.00680134   3.46169842   2.53078730
| 51> H    3.13271212  -2.06518595   0.57470383
| 52> H    1.06660543  -3.39738058  -0.58140824
| 53> *
| 54>
| 55>                          ****END OF INPUT****

CARTESIAN COORDINATES (ANGSTROEM)
---------------------------------
  Ir     0.634867   -0.766158    0.583592
  C     -0.011584   -2.905729    1.300167
  C      0.357513   -2.124621    2.410418
  C      2.165233   -2.237912    1.011542
  C      1.051921   -2.879957    0.361399
  C      1.732383   -1.727992    2.245759
  N     -1.072944   -0.112922   -0.519989
  C     -2.469232   -0.081861    0.031491
  C     -2.829991    1.267585    0.665930
  H     -3.872599    1.208320    0.989015
  H     -2.756210    2.097016   -0.043199
  H     -2.206527    1.499585    1.527589
  C     -3.500283   -0.463818   -1.029653
  H     -2.477838   -0.851924    0.814651
  H     -4.453140   -0.590565   -0.523624
  H     -3.667144    0.306261   -1.788460
  H     -3.255798   -1.403916   -1.525624
  C     -0.839083    0.247232   -1.724680
  C      0.505347    0.198900   -2.231446
  H     -1.672568    0.553440   -2.364166
  C      1.648028    0.083356   -1.453179
  C      2.747474   -0.100927   -2.402069
  S      0.733218    0.242363   -3.941523
  C      2.404552   -0.023385   -3.736521
  H      1.851125    1.118390   -0.380654
  H      3.793874   -0.247819   -2.165895
  H      3.053650   -0.031873   -4.621540
  H     -0.954659   -3.431460    1.165408
  H     -0.219017   -2.032906    3.318978
  H      2.341625   -1.238973    2.997857
  O      1.989208    2.016006    0.209574
  O      0.379271    1.114904    1.481875
  C      1.129961    2.064936    1.163196
  C      0.912311    3.391422    1.902028
  H      0.864323    4.222730    1.196008
  H      1.751989    3.620090    2.559769
  H      0.006801    3.461698    2.530787
  H      3.132712   -2.065186    0.574704
  H      1.066605   -3.397381   -0.581408

 Total Charge           Charge          ....    1
 Multiplicity           Mult            ....    1
 Number of Electrons    NEL             ....  164
 Basis Dimension        Dim             ....  358

ORBITAL ENERGIES
----------------

  NO   OCC          E(Eh)            E(eV)
   0   2.0000     -89.740152     -2441.9537
   1   2.0000     -19.658624      -534.9384
   2   2.0000     -19.654694      -534.8314
   3   2.0000     -14.821751      -403.3204
   4   2.0000     -10.727546      -291.9114
   5   2.0000     -10.644598      -289.6542
   6   2.0000     -10.635878      -289.4169
   7   2.0000     -10.622822      -289.0617
   8   2.0000     -10.622378      -289.0496
   9   2.0000     -10.621602      -289.0285
  10   2.0000     -10.613532      -288.8089
  11   2.0000     -10.612277      -288.7747
  12   2.0000     -10.605446      -288.5889
  13   2.0000     -10.597736      -288.3790
  14   2.0000     -10.587799      -288.1087
  15   2.0000     -10.577410      -287.8260
  16   2.0000     -10.563150      -287.4379
  17   2.0000     -10.548268      -287.0330
  18   2.0000     -10.543775      -286.9107
  19   2.0000      -8.379897      -228.0286
  20   2.0000      -6.269816      -170.6104
  21   2.0000      -6.266372      -170.5167
  22   2.0000      -6.264698      -170.4711
  23   2.0000      -4.017185      -109.3132
  24   2.0000      -2.333001       -63.4842
  25   2.0000      -2.302091       -62.6431
  26   2.0000      -2.299589       -62.5750
  27   2.0000      -1.355784       -36.8928
  28   2.0000      -1.260828       -34.3089
  29   2.0000      -1.189017       -32.3548
  30   2.0000      -1.161775       -31.6135
  31   2.0000      -1.101996       -29.9868
  32   2.0000      -1.009240       -27.4628
  33   2.0000      -0.974966       -26.5302
  34   2.0000      -0.963460       -26.2171
  35   2.0000      -0.954449       -25.9719
  36   2.0000      -0.946104       -25.7448
  37   2.0000      -0.937883       -25.5211
  38   2.0000      -0.890325       -24.2270
  39   2.0000      -0.854587       -23.2545
  40   2.0000      -0.807471       -21.9724
  41   2.0000      -0.782979       -21.3059
  42   2.0000      -0.778079       -21.1726
  43   2.0000      -0.776671       -21.1343
  44   2.0000      -0.762410       -20.7462
  45   2.0000      -0.758362       -20.6361
  46   2.0000      -0.747145       -20.3308
  47   2.0000      -0.717228       -19.5168
  48   2.0000      -0.686994       -18.6941
  49   2.0000      -0.679664       -18.4946
  50   2.0000      -0.669992       -18.2314
  51   2.0000      -0.661761       -18.0074
  52   2.0000      -0.643949       -17.5227
  53   2.0000      -0.634145       -17.2560
  54   2.0000      -0.629904       -17.1406
  55   2.0000      -0.624423       -16.9914
  56   2.0000      -0.613474       -16.6935
  57   2.0000      -0.600067       -16.3286
  58   2.0000      -0.597483       -16.2583
  59   2.0000      -0.593473       -16.1492
  60   2.0000      -0.584705       -15.9106
  61   2.0000      -0.583173       -15.8690
  62   2.0000      -0.573347       -15.6016
  63   2.0000      -0.569665       -15.5014
  64   2.0000      -0.564373       -15.3574
  65   2.0000      -0.560134       -15.2420
  66   2.0000      -0.552023       -15.0213
  67   2.0000      -0.537017       -14.6130
  68   2.0000      -0.534771       -14.5519
  69   2.0000      -0.527052       -14.3418
  70   2.0000      -0.524826       -14.2812
  71   2.0000      -0.523371       -14.2416
  72   2.0000      -0.513063       -13.9612
  73   2.0000      -0.498792       -13.5728
  74   2.0000      -0.493232       -13.4215
  75   2.0000      -0.475344       -12.9348
  76   2.0000      -0.469868       -12.7858
  77   2.0000      -0.451081       -12.2745
  78   2.0000      -0.438185       -11.9236
  79   2.0000      -0.417957       -11.3732
  80   2.0000      -0.405143       -11.0245
  81   2.0000      -0.390928       -10.6377
  82   0.0000      -0.191624        -5.2144
  83   0.0000      -0.167782        -4.5656
  84   0.0000      -0.148360        -4.0371
  85   0.0000      -0.095585        -2.6010
  86   0.0000      -0.074314        -2.0222

MULLIKEN ATOMIC CHARGES
-----------------------
   0 Ir:    0.574862
   1 C :   -0.134606
   2 C :   -0.268487
   3 C :   -0.181831
   4 C :   -0.342347
   5 C :   -0.233464
   6 N :   -0.451722
   7 C :   -0.109420
   8 C :   -0.634724
   9 H :    0.246018
  10 H :    0.226853
  11 H :    0.258986
  12 C :   -0.683602
  13 H :    0.246585
  14 H :    0.265357
  15 H :    0.230748
  16 H :    0.249736
  17 C :    0.079395
  18 C :   -0.158866
  19 H :    0.274105
  20 C :   -0.389988
  21 C :   -0.215154
  22 S :    0.296257
  23 C :   -0.385900
  24 H :    0.529079
  25 H :    0.252098
  26 H :    0.293654
  27 H :    0.286354
  28 H :    0.283620
  29 H :    0.288127
  30 O :   -0.534884
  31 O :   -0.463450
  32 C :    0.637431
  33 C :   -0.753687
  34 H :    0.279903
  35 H :    0.282584
  36 H :    0.273540
  37 H :    0.297421
  38 H :    0.289419
Sum of atomic charges:    1.0000000

LOEWDIN ATOMIC CHARGES
----------------------
   0 Ir:   -0.241153
   1 C :   -0.008485
   2 C :   -0.076864
   3 C :   -0.040766
   4 C :   -0.101605
   5 C :   -0.060927
   6 N :   -0.034542
   7 C :   -0.055692
   8 C :   -0.352601
   9 H :    0.146578
  10 H :    0.136155
  11 H :    0.145716
  12 C :   -0.364377
  13 H :    0.139696
  14 H :    0.153163
  15 H :    0.134753
  16 H :    0.141000
  17 C :    0.027388
  18 C :   -0.214643
  19 H :    0.154752
  20 C :   -0.199144
  21 C :   -0.152083
  22 S :    0.449657
  23 C :   -0.265187
  24 H :    0.351726
  25 H :    0.152788
  26 H :    0.169131
  27 H :    0.181940
  28 H :    0.180496
  29 H :    0.185802
  30 O :   -0.249023
  31 O :   -0.141610
  32 C :    0.211164
  33 C :   -0.376103
  34 H :    0.168711
  35 H :    0.172071
  36 H :    0.161636
  37 H :    0.186611
  38 H :    0.183871

  Mayer bond orders larger than 0.100000
B(  0-Ir,  1-C ) :   0.3108 B(  0-Ir,  2-C ) :   0.3934 B(  0-Ir,  3-C ) :   0.4258
B(  0-Ir,  4-C ) :   0.4896 B(  0-Ir,  5-C ) :   0.4376 B(  0-Ir,  6-N ) :   0.4894
B(  0-Ir, 20-C ) :   0.4555 B(  0-Ir, 31-O ) :   0.4714 B(  1-C ,  2-C ) :   1.2510
B(  1-C ,  4-C ) :   1.1901 B(  1-C , 27-H ) :   0.9080 B(  2-C ,  5-C ) :   1.1222
B(  2-C , 28-H ) :   0.9168 B(  3-C ,  4-C ) :   1.1293 B(  3-C ,  5-C ) :   1.2286
B(  3-C , 37-H ) :   0.8977 B(  4-C , 38-H ) :   0.9116 B(  5-C , 29-H ) :   0.9126
B(  6-N ,  7-C ) :   0.8852 B(  6-N , 17-C ) :   1.6384 B(  7-C ,  8-C ) :   0.9757
B(  7-C , 12-C ) :   0.9876 B(  7-C , 13-H ) :   0.8957 B(  8-C ,  9-H ) :   0.9070
B(  8-C , 10-H ) :   0.9176 B(  8-C , 11-H ) :   0.9073 B( 12-C , 14-H ) :   0.9047
B( 12-C , 15-H ) :   0.9110 B( 12-C , 16-H ) :   0.9144 B( 17-C , 18-C ) :   1.1068
B( 17-C , 19-H ) :   0.8764 B( 18-C , 20-C ) :   1.3010 B( 18-C , 22-S ) :   1.1842
B( 20-C , 21-C ) :   1.3209 B( 20-C , 24-H ) :   0.2212 B( 21-C , 23-C ) :   1.5494
B( 21-C , 25-H ) :   0.9079 B( 22-S , 23-C ) :   1.2183 B( 23-C , 26-H ) :   0.8880
B( 24-H , 30-O ) :   0.4219 B( 30-O , 32-C ) :   1.4123 B( 31-O , 32-C ) :   1.4923
B( 32-C , 33-C ) :   0.9433 B( 33-C , 34-H ) :   0.8924 B( 33-C , 35-H ) :   0.8889
B( 33-C , 36-H ) :   0.9049

Dispersion correction           -0.029548397
FINAL SINGLE POINT ENERGY     -1288.375456942393
Dispersion correction            ... done

DIPOLE MOMENT
-------------
                                X             Y             Z
Electronic contribution:     39.51838     -74.91733      86.42621
Nuclear contribution   :    -40.17184      74.57998     -85.95114
                        -----------------------------------------
Total Dipole Moment    :     -0.65346      -0.33735       0.47507
                        -----------------------------------------
Magnitude (a.u.)       :      0.87551
Magnitude (Debye)      :      2.22536

Rotational constants in cm-1:     0.010462     0.008188     0.007614
Rotational constants in MHz :   313.651107   245.479187   228.266929

                             ****ORCA TERMINATED NORMALLY****
TOTAL RUN TIME: 0 days 0 hours 19 minutes 25 seconds 222 msec
