                         Program Version 5.0.3 -  RELEASE  -
|  1> ! EnGrad PBEh-3c
|  2> %output
|  3> xyzfile=True
|  4> end
|  5> %scf
|  6> maxiter 250
|  7> end
|  8> %output
|  9> Print[P_Hirshfeld] = 1
| 10> end
| 11> % maxcore
| 12> 4000
| 13> *xyz 1 1
| 14> Ir   0.55896153  -0.76019410   0.64376835
| 15> C    0.00836256  -2.87859267   1.23587046
| 16> C    0.26345076  -2.17087258   2.38492816
| 17> C    2.13432248  -2.11350201   1.08492718
| 18> C    1.08184976  -2.84570885   0.35900824
| 19> C    1.67721223  -1.74538282   2.28525607
| 20> N   -1.07913016  -0.09900800  -0.49074810
| 21> C   -2.50197956  -0.09312515   0.04032370
| 22> C   -2.83167172   1.22150035   0.71449959
| 23> H   -3.87508226   1.18369468   1.06899373
| 24> H   -2.75504518   2.05382536   0.03229407
| 25> H   -2.22537730   1.38140864   1.59237268
| 26> C   -3.51706543  -0.43010511  -1.03717829
| 27> H   -2.51147305  -0.85635661   0.75918000
| 28> H   -4.49501886  -0.58037224  -0.52468273
| 29> H   -3.68248521   0.35926533  -1.75654598
| 30> H   -3.29762763  -1.35556446  -1.54350177
| 31> C   -0.84405736   0.24799217  -1.71910072
| 32> C    0.48152934   0.19119665  -2.31209595
| 33> H   -1.64761807   0.52978463  -2.33888839
| 34> C    1.64689046  -0.04724639  -1.49327898
| 35> C    2.76619348  -0.16144186  -2.47765241
| 36> S    0.74959446   0.28254574  -4.00924871
| 37> C    2.42499223   0.01679875  -3.78971850
| 38> H    2.15395384   1.18544094  -0.76472123
| 39> H    3.78928989  -0.27193139  -2.16829084
| 40> H    3.09656207  -0.02788168  -4.63361597
| 41> H   -0.82362689  -3.57699112   1.10382355
| 42> H   -0.32992103  -2.09792909   3.29656652
| 43> H    2.21098590  -1.32210015   3.10100187
| 44> O    2.02002954   2.06494076   0.32039794
| 45> O    0.27173587   1.11337294   1.54497970
| 46> C    1.15379816   2.11413353   1.14177716
| 47> C    0.88695163   3.49014116   1.91673076
| 48> H    0.87319151   4.27223766   1.17112034
| 49> H    1.78206872   3.66301319   2.53115344
| 50> H    0.02465352   3.51452264   2.53066226
| 51> H    3.16468679  -2.03080026   0.73483542
| 52> H    1.19531900  -3.42088301  -0.53304829
| 53> *
| 54>
| 55>                          ****END OF INPUT****

CARTESIAN COORDINATES (ANGSTROEM)
---------------------------------
  Ir     0.558962   -0.760194    0.643768
  C      0.008363   -2.878593    1.235870
  C      0.263451   -2.170873    2.384928
  C      2.134322   -2.113502    1.084927
  C      1.081850   -2.845709    0.359008
  C      1.677212   -1.745383    2.285256
  N     -1.079130   -0.099008   -0.490748
  C     -2.501980   -0.093125    0.040324
  C     -2.831672    1.221500    0.714500
  H     -3.875082    1.183695    1.068994
  H     -2.755045    2.053825    0.032294
  H     -2.225377    1.381409    1.592373
  C     -3.517065   -0.430105   -1.037178
  H     -2.511473   -0.856357    0.759180
  H     -4.495019   -0.580372   -0.524683
  H     -3.682485    0.359265   -1.756546
  H     -3.297628   -1.355564   -1.543502
  C     -0.844057    0.247992   -1.719101
  C      0.481529    0.191197   -2.312096
  H     -1.647618    0.529785   -2.338888
  C      1.646890   -0.047246   -1.493279
  C      2.766193   -0.161442   -2.477652
  S      0.749594    0.282546   -4.009249
  C      2.424992    0.016799   -3.789718
  H      2.153954    1.185441   -0.764721
  H      3.789290   -0.271931   -2.168291
  H      3.096562   -0.027882   -4.633616
  H     -0.823627   -3.576991    1.103824
  H     -0.329921   -2.097929    3.296567
  H      2.210986   -1.322100    3.101002
  O      2.020030    2.064941    0.320398
  O      0.271736    1.113373    1.544980
  C      1.153798    2.114134    1.141777
  C      0.886952    3.490141    1.916731
  H      0.873192    4.272238    1.171120
  H      1.782069    3.663013    2.531153
  H      0.024654    3.514523    2.530662
  H      3.164687   -2.030800    0.734835
  H      1.195319   -3.420883   -0.533048

 Total Charge           Charge          ....    1
 Multiplicity           Mult            ....    1
 Number of Electrons    NEL             ....  164
 Basis Dimension        Dim             ....  358

ORBITAL ENERGIES
----------------

  NO   OCC          E(Eh)            E(eV)
   0   2.0000     -89.764582     -2442.6185
   1   2.0000     -19.645873      -534.5914
   2   2.0000     -19.624080      -533.9984
   3   2.0000     -14.830356      -403.5545
   4   2.0000     -10.710813      -291.4560
   5   2.0000     -10.648498      -289.7604
   6   2.0000     -10.630126      -289.2604
   7   2.0000     -10.622130      -289.0429
   8   2.0000     -10.617663      -288.9213
   9   2.0000     -10.612106      -288.7701
  10   2.0000     -10.610916      -288.7377
  11   2.0000     -10.608157      -288.6626
  12   2.0000     -10.606640      -288.6214
  13   2.0000     -10.604288      -288.5573
  14   2.0000     -10.603937      -288.5478
  15   2.0000     -10.593488      -288.2635
  16   2.0000     -10.546986      -286.9981
  17   2.0000     -10.546393      -286.9819
  18   2.0000     -10.534682      -286.6633
  19   2.0000      -8.403461      -228.6698
  20   2.0000      -6.293259      -171.2483
  21   2.0000      -6.289778      -171.1536
  22   2.0000      -6.288569      -171.1207
  23   2.0000      -4.012163      -109.1765
  24   2.0000      -2.328772       -63.3691
  25   2.0000      -2.296364       -62.4872
  26   2.0000      -2.294908       -62.4476
  27   2.0000      -1.330959       -36.2172
  28   2.0000      -1.195043       -32.5188
  29   2.0000      -1.183466       -32.2037
  30   2.0000      -1.164321       -31.6828
  31   2.0000      -1.110840       -30.2275
  32   2.0000      -1.012961       -27.5641
  33   2.0000      -0.983187       -26.7539
  34   2.0000      -0.958990       -26.0954
  35   2.0000      -0.953382       -25.9428
  36   2.0000      -0.945898       -25.7392
  37   2.0000      -0.919598       -25.0235
  38   2.0000      -0.890951       -24.2440
  39   2.0000      -0.860052       -23.4032
  40   2.0000      -0.791546       -21.5391
  41   2.0000      -0.773933       -21.0598
  42   2.0000      -0.771033       -20.9809
  43   2.0000      -0.770307       -20.9611
  44   2.0000      -0.766454       -20.8563
  45   2.0000      -0.759038       -20.6545
  46   2.0000      -0.728701       -19.8290
  47   2.0000      -0.702476       -19.1154
  48   2.0000      -0.683577       -18.6011
  49   2.0000      -0.676568       -18.4103
  50   2.0000      -0.653065       -17.7708
  51   2.0000      -0.651097       -17.7173
  52   2.0000      -0.640466       -17.4280
  53   2.0000      -0.638192       -17.3661
  54   2.0000      -0.628803       -17.1106
  55   2.0000      -0.622716       -16.9450
  56   2.0000      -0.615466       -16.7477
  57   2.0000      -0.598551       -16.2874
  58   2.0000      -0.594522       -16.1778
  59   2.0000      -0.589166       -16.0320
  60   2.0000      -0.587268       -15.9804
  61   2.0000      -0.581847       -15.8329
  62   2.0000      -0.571295       -15.5457
  63   2.0000      -0.562129       -15.2963
  64   2.0000      -0.551397       -15.0043
  65   2.0000      -0.550484       -14.9794
  66   2.0000      -0.546864       -14.8809
  67   2.0000      -0.536550       -14.6003
  68   2.0000      -0.530396       -14.4328
  69   2.0000      -0.520574       -14.1655
  70   2.0000      -0.516926       -14.0663
  71   2.0000      -0.511283       -13.9127
  72   2.0000      -0.505057       -13.7433
  73   2.0000      -0.491713       -13.3802
  74   2.0000      -0.487932       -13.2773
  75   2.0000      -0.464502       -12.6397
  76   2.0000      -0.462069       -12.5735
  77   2.0000      -0.444748       -12.1022
  78   2.0000      -0.432812       -11.7774
  79   2.0000      -0.415366       -11.3027
  80   2.0000      -0.413237       -11.2448
  81   2.0000      -0.393420       -10.7055
  82   0.0000      -0.210959        -5.7405
  83   0.0000      -0.163855        -4.4587
  84   0.0000      -0.143054        -3.8927
  85   0.0000      -0.085124        -2.3163
  86   0.0000      -0.082474        -2.2442

MULLIKEN ATOMIC CHARGES
-----------------------
   0 Ir:    0.623123
   1 C :   -0.186833
   2 C :   -0.270914
   3 C :   -0.239318
   4 C :   -0.286645
   5 C :   -0.172112
   6 N :   -0.460475
   7 C :   -0.105267
   8 C :   -0.637006
   9 H :    0.240006
  10 H :    0.226791
  11 H :    0.277004
  12 C :   -0.691463
  13 H :    0.262007
  14 H :    0.261528
  15 H :    0.234148
  16 H :    0.252037
  17 C :    0.097734
  18 C :   -0.161376
  19 H :    0.272225
  20 C :   -0.435966
  21 C :   -0.164225
  22 S :    0.347070
  23 C :   -0.402193
  24 H :    0.443660
  25 H :    0.265876
  26 H :    0.298789
  27 H :    0.280943
  28 H :    0.282534
  29 H :    0.283088
  30 O :   -0.435716
  31 O :   -0.551746
  32 C :    0.619959
  33 C :   -0.721857
  34 H :    0.262919
  35 H :    0.263256
  36 H :    0.273099
  37 H :    0.279638
  38 H :    0.275682
Sum of atomic charges:    1.0000000

LOEWDIN ATOMIC CHARGES
----------------------
   0 Ir:   -0.238117
   1 C :   -0.027533
   2 C :   -0.069038
   3 C :   -0.050265
   4 C :   -0.093685
   5 C :   -0.048446
   6 N :   -0.015359
   7 C :   -0.053413
   8 C :   -0.350495
   9 H :    0.144272
  10 H :    0.136423
  11 H :    0.153690
  12 C :   -0.364909
  13 H :    0.144104
  14 H :    0.155699
  15 H :    0.135446
  16 H :    0.140502
  17 C :    0.024750
  18 C :   -0.195872
  19 H :    0.150977
  20 C :   -0.229787
  21 C :   -0.144913
  22 S :    0.490194
  23 C :   -0.271858
  24 H :    0.385439
  25 H :    0.156437
  26 H :    0.171174
  27 H :    0.180801
  28 H :    0.183248
  29 H :    0.182184
  30 O :   -0.197344
  31 O :   -0.264480
  32 C :    0.215062
  33 C :   -0.372964
  34 H :    0.158423
  35 H :    0.163680
  36 H :    0.153911
  37 H :    0.182570
  38 H :    0.179491

  Mayer bond orders larger than 0.100000
B(  0-Ir,  1-C ) :   0.3328 B(  0-Ir,  2-C ) :   0.4539 B(  0-Ir,  3-C ) :   0.4505
B(  0-Ir,  4-C ) :   0.4673 B(  0-Ir,  5-C ) :   0.4055 B(  0-Ir,  6-N ) :   0.4967
B(  0-Ir, 20-C ) :   0.4001 B(  0-Ir, 31-O ) :   0.5856 B(  1-C ,  2-C ) :   1.2129
B(  1-C ,  4-C ) :   1.2336 B(  1-C , 27-H ) :   0.9153 B(  2-C ,  5-C ) :   1.1233
B(  2-C , 28-H ) :   0.9154 B(  3-C ,  4-C ) :   1.1042 B(  3-C ,  5-C ) :   1.2463
B(  3-C , 37-H ) :   0.9150 B(  4-C , 38-H ) :   0.9207 B(  5-C , 29-H ) :   0.9157
B(  6-N ,  7-C ) :   0.8708 B(  6-N , 17-C ) :   1.6413 B(  7-C ,  8-C ) :   0.9850
B(  7-C , 12-C ) :   0.9953 B(  7-C , 13-H ) :   0.8904 B(  8-C ,  9-H ) :   0.9072
B(  8-C , 10-H ) :   0.9184 B(  8-C , 11-H ) :   0.8968 B( 12-C , 14-H ) :   0.9065
B( 12-C , 15-H ) :   0.9107 B( 12-C , 16-H ) :   0.9125 B( 17-C , 18-C ) :   1.1098
B( 17-C , 19-H ) :   0.8804 B( 18-C , 20-C ) :   1.2420 B( 18-C , 22-S ) :   1.2306
B( 20-C , 21-C ) :   1.2435 B( 20-C , 24-H ) :   0.3991 B( 21-C , 23-C ) :   1.5483
B( 21-C , 25-H ) :   0.9006 B( 22-S , 23-C ) :   1.2119 B( 23-C , 26-H ) :   0.8883
B( 24-H , 30-O ) :   0.2714 B( 30-O , 32-C ) :   1.6620 B( 31-O , 32-C ) :   1.2477
B( 32-C , 33-C ) :   0.9311 B( 33-C , 34-H ) :   0.9012 B( 33-C , 35-H ) :   0.9009
B( 33-C , 36-H ) :   0.9020

Dispersion correction           -0.029739659
FINAL SINGLE POINT ENERGY     -1288.295735406227
Dispersion correction            ... done

DIPOLE MOMENT
-------------
                                X             Y             Z
Electronic contribution:     33.03960     -75.25504      91.56140
Nuclear contribution   :    -33.33871      74.69984     -92.03953
                        -----------------------------------------
Total Dipole Moment    :     -0.29912      -0.55520      -0.47813
                        -----------------------------------------
Magnitude (a.u.)       :      0.79141
Magnitude (Debye)      :      2.01160

Rotational constants in cm-1:     0.010397     0.007926     0.007440
Rotational constants in MHz :   311.704034   237.617596   223.050505

                             ****ORCA TERMINATED NORMALLY****
TOTAL RUN TIME: 0 days 0 hours 15 minutes 7 seconds 702 msec
