                         Program Version 5.0.3 -  RELEASE  -
|  1> ! EnGrad PBEh-3c
|  2> %output
|  3> xyzfile=True
|  4> end
|  5> %scf
|  6> maxiter 250
|  7> end
|  8> %output
|  9> Print[P_Hirshfeld] = 1
| 10> end
| 11> % maxcore
| 12> 4000
| 13> *xyz 1 1
| 14> Ir   0.52477620  -0.77033680   0.65621190
| 15> C   -0.00086646  -2.88001362   1.20364206
| 16> C    0.25788483  -2.16470323   2.39626693
| 17> C    2.14133970  -2.09570443   1.06587078
| 18> C    1.12151953  -2.83318805   0.35879453
| 19> C    1.62763466  -1.74855765   2.31576576
| 20> N   -1.07259874  -0.09702464  -0.48323966
| 21> C   -2.47832883  -0.08774727   0.01542476
| 22> C   -2.83758280   1.20216312   0.73210055
| 23> H   -3.87201647   1.17834205   1.09111291
| 24> H   -2.75245193   2.04397693   0.05283858
| 25> H   -2.22632402   1.35226647   1.61271832
| 26> C   -3.53604938  -0.42347039  -1.02785585
| 27> H   -2.52097562  -0.86754036   0.75234016
| 28> H   -4.50375924  -0.57783316  -0.53022315
| 29> H   -3.68485287   0.37596659  -1.74833594
| 30> H   -3.30683454  -1.34468362  -1.55279376
| 31> C   -0.83753134   0.23459264  -1.70446043
| 32> C    0.46704154   0.20657000  -2.30332818
| 33> H   -1.64718069   0.52885219  -2.34348266
| 34> C    1.62361767  -0.08666334  -1.58007224
| 35> C    2.75686943  -0.17051775  -2.46791882
| 36> S    0.76406171   0.28150572  -3.98821503
| 37> C    2.42936940   0.02649861  -3.78065305
| 38> H    2.20406048   1.20345826  -0.82189508
| 39> H    3.78660171  -0.28029794  -2.16532838
| 40> H    3.10122623  -0.02738541  -4.62377147
| 41> H   -0.80170008  -3.60200977   1.07858973
| 42> H   -0.36527220  -2.10722563   3.28042562
| 43> H    2.17960130  -1.32908631   3.13475430
| 44> O    2.01107652   2.05962396   0.35142918
| 45> O    0.33671285   1.15025231   1.50282301
| 46> C    1.08491420   2.15101038   1.17217134
| 47> C    0.91009476   3.48109066   1.89766848
| 48> H    0.87565522   4.27948210   1.16272978
| 49> H    1.78834537   3.67357177   2.52086158
| 50> H    0.03452931   3.51256336   2.52047809
| 51> H    3.18204373  -2.01950373   0.77715838
| 52> H    1.23511308  -3.42834792  -0.52975446
| 53> *
| 54>
| 55>                          ****END OF INPUT****

CARTESIAN COORDINATES (ANGSTROEM)
---------------------------------
  Ir     0.524776   -0.770337    0.656212
  C     -0.000866   -2.880014    1.203642
  C      0.257885   -2.164703    2.396267
  C      2.141340   -2.095704    1.065871
  C      1.121520   -2.833188    0.358795
  C      1.627635   -1.748558    2.315766
  N     -1.072599   -0.097025   -0.483240
  C     -2.478329   -0.087747    0.015425
  C     -2.837583    1.202163    0.732101
  H     -3.872016    1.178342    1.091113
  H     -2.752452    2.043977    0.052839
  H     -2.226324    1.352266    1.612718
  C     -3.536049   -0.423470   -1.027856
  H     -2.520976   -0.867540    0.752340
  H     -4.503759   -0.577833   -0.530223
  H     -3.684853    0.375967   -1.748336
  H     -3.306835   -1.344684   -1.552794
  C     -0.837531    0.234593   -1.704460
  C      0.467042    0.206570   -2.303328
  H     -1.647181    0.528852   -2.343483
  C      1.623618   -0.086663   -1.580072
  C      2.756869   -0.170518   -2.467919
  S      0.764062    0.281506   -3.988215
  C      2.429369    0.026499   -3.780653
  H      2.204060    1.203458   -0.821895
  H      3.786602   -0.280298   -2.165328
  H      3.101226   -0.027385   -4.623771
  H     -0.801700   -3.602010    1.078590
  H     -0.365272   -2.107226    3.280426
  H      2.179601   -1.329086    3.134754
  O      2.011077    2.059624    0.351429
  O      0.336713    1.150252    1.502823
  C      1.084914    2.151010    1.172171
  C      0.910095    3.481091    1.897668
  H      0.875655    4.279482    1.162730
  H      1.788345    3.673572    2.520862
  H      0.034529    3.512563    2.520478
  H      3.182044   -2.019504    0.777158
  H      1.235113   -3.428348   -0.529754

 Total Charge           Charge          ....    1
 Multiplicity           Mult            ....    1
 Number of Electrons    NEL             ....  164
 Basis Dimension        Dim             ....  358

ORBITAL ENERGIES
----------------

  NO   OCC          E(Eh)            E(eV)
   0   2.0000     -89.760633     -2442.5110
   1   2.0000     -19.624218      -534.0021
   2   2.0000     -19.615415      -533.7626
   3   2.0000     -14.830281      -403.5525
   4   2.0000     -10.696618      -291.0698
   5   2.0000     -10.649916      -289.7989
   6   2.0000     -10.626713      -289.1676
   7   2.0000     -10.620109      -288.9879
   8   2.0000     -10.619893      -288.9820
   9   2.0000     -10.617403      -288.9142
  10   2.0000     -10.616615      -288.8928
  11   2.0000     -10.611165      -288.7445
  12   2.0000     -10.608257      -288.6654
  13   2.0000     -10.606286      -288.6117
  14   2.0000     -10.596880      -288.3558
  15   2.0000     -10.590270      -288.1759
  16   2.0000     -10.546431      -286.9830
  17   2.0000     -10.543018      -286.8901
  18   2.0000     -10.535382      -286.6823
  19   2.0000      -8.400024      -228.5763
  20   2.0000      -6.289713      -171.1518
  21   2.0000      -6.286273      -171.0582
  22   2.0000      -6.285288      -171.0314
  23   2.0000      -4.015787      -109.2751
  24   2.0000      -2.333301       -63.4924
  25   2.0000      -2.300588       -62.6022
  26   2.0000      -2.297154       -62.5087
  27   2.0000      -1.307772       -35.5863
  28   2.0000      -1.209460       -32.9111
  29   2.0000      -1.193491       -32.4765
  30   2.0000      -1.161774       -31.6135
  31   2.0000      -1.121274       -30.5114
  32   2.0000      -1.014038       -27.5934
  33   2.0000      -0.972608       -26.4660
  34   2.0000      -0.964109       -26.2347
  35   2.0000      -0.962839       -26.2002
  36   2.0000      -0.949648       -25.8412
  37   2.0000      -0.930481       -25.3197
  38   2.0000      -0.890216       -24.2240
  39   2.0000      -0.863674       -23.5018
  40   2.0000      -0.792424       -21.5629
  41   2.0000      -0.774521       -21.0758
  42   2.0000      -0.773195       -21.0397
  43   2.0000      -0.772957       -21.0332
  44   2.0000      -0.761953       -20.7338
  45   2.0000      -0.751884       -20.4598
  46   2.0000      -0.729981       -19.8638
  47   2.0000      -0.704253       -19.1637
  48   2.0000      -0.684688       -18.6313
  49   2.0000      -0.675207       -18.3733
  50   2.0000      -0.655836       -17.8462
  51   2.0000      -0.647220       -17.6117
  52   2.0000      -0.640408       -17.4264
  53   2.0000      -0.635050       -17.2806
  54   2.0000      -0.628543       -17.1035
  55   2.0000      -0.627538       -17.0762
  56   2.0000      -0.617436       -16.8013
  57   2.0000      -0.603207       -16.4141
  58   2.0000      -0.597613       -16.2619
  59   2.0000      -0.594136       -16.1673
  60   2.0000      -0.590310       -16.0632
  61   2.0000      -0.583104       -15.8671
  62   2.0000      -0.568031       -15.4569
  63   2.0000      -0.565754       -15.3950
  64   2.0000      -0.555735       -15.1223
  65   2.0000      -0.548858       -14.9352
  66   2.0000      -0.542702       -14.7677
  67   2.0000      -0.538914       -14.6646
  68   2.0000      -0.533056       -14.5052
  69   2.0000      -0.518981       -14.1222
  70   2.0000      -0.509232       -13.8569
  71   2.0000      -0.507020       -13.7967
  72   2.0000      -0.501752       -13.6534
  73   2.0000      -0.492734       -13.4080
  74   2.0000      -0.483419       -13.1545
  75   2.0000      -0.463494       -12.6123
  76   2.0000      -0.456817       -12.4306
  77   2.0000      -0.441002       -12.0003
  78   2.0000      -0.436939       -11.8897
  79   2.0000      -0.420268       -11.4361
  80   2.0000      -0.410568       -11.1721
  81   2.0000      -0.392361       -10.6767
  82   0.0000      -0.208280        -5.6676
  83   0.0000      -0.167454        -4.5566
  84   0.0000      -0.149280        -4.0621
  85   0.0000      -0.087158        -2.3717
  86   0.0000      -0.080182        -2.1819

MULLIKEN ATOMIC CHARGES
-----------------------
   0 Ir:    0.619013
   1 C :   -0.229683
   2 C :   -0.257419
   3 C :   -0.244887
   4 C :   -0.251929
   5 C :   -0.167128
   6 N :   -0.473032
   7 C :   -0.114041
   8 C :   -0.634926
   9 H :    0.245020
  10 H :    0.223298
  11 H :    0.270995
  12 C :   -0.684932
  13 H :    0.256819
  14 H :    0.266558
  15 H :    0.228817
  16 H :    0.247322
  17 C :    0.100677
  18 C :   -0.149096
  19 H :    0.273288
  20 C :   -0.387176
  21 C :   -0.181967
  22 S :    0.342762
  23 C :   -0.407263
  24 H :    0.435241
  25 H :    0.270058
  26 H :    0.300411
  27 H :    0.282095
  28 H :    0.285039
  29 H :    0.285181
  30 O :   -0.504491
  31 O :   -0.520056
  32 C :    0.648013
  33 C :   -0.737238
  34 H :    0.268148
  35 H :    0.274968
  36 H :    0.263203
  37 H :    0.279427
  38 H :    0.278909
Sum of atomic charges:    1.0000000

LOEWDIN ATOMIC CHARGES
----------------------
   0 Ir:   -0.229298
   1 C :   -0.032327
   2 C :   -0.068306
   3 C :   -0.048509
   4 C :   -0.077847
   5 C :   -0.042893
   6 N :   -0.016206
   7 C :   -0.061468
   8 C :   -0.351023
   9 H :    0.145307
  10 H :    0.134844
  11 H :    0.150967
  12 C :   -0.363598
  13 H :    0.143359
  14 H :    0.156167
  15 H :    0.133244
  16 H :    0.138990
  17 C :    0.031368
  18 C :   -0.219332
  19 H :    0.153269
  20 C :   -0.213031
  21 C :   -0.160165
  22 S :    0.495413
  23 C :   -0.266337
  24 H :    0.398514
  25 H :    0.159356
  26 H :    0.171499
  27 H :    0.181498
  28 H :    0.183291
  29 H :    0.182640
  30 O :   -0.270407
  31 O :   -0.200755
  32 C :    0.182065
  33 C :   -0.372170
  34 H :    0.164108
  35 H :    0.170581
  36 H :    0.152860
  37 H :    0.183453
  38 H :    0.180881

  Mayer bond orders larger than 0.100000
B(  0-Ir,  1-C ) :   0.3810 B(  0-Ir,  2-C ) :   0.4626 B(  0-Ir,  3-C ) :   0.4678
B(  0-Ir,  4-C ) :   0.4750 B(  0-Ir,  5-C ) :   0.4071 B(  0-Ir,  6-N ) :   0.4886
B(  0-Ir, 20-C ) :   0.4142 B(  0-Ir, 31-O ) :   0.5338 B(  1-C ,  2-C ) :   1.1868
B(  1-C ,  4-C ) :   1.2271 B(  1-C , 27-H ) :   0.9184 B(  2-C ,  5-C ) :   1.1362
B(  2-C , 28-H ) :   0.9135 B(  3-C ,  4-C ) :   1.0961 B(  3-C ,  5-C ) :   1.2287
B(  3-C , 37-H ) :   0.9190 B(  4-C , 38-H ) :   0.9191 B(  5-C , 29-H ) :   0.9136
B(  6-N ,  7-C ) :   0.8888 B(  6-N , 17-C ) :   1.6284 B(  7-C ,  8-C ) :   0.9808
B(  7-C , 12-C ) :   0.9932 B(  7-C , 13-H ) :   0.8904 B(  8-C ,  9-H ) :   0.9069
B(  8-C , 10-H ) :   0.9190 B(  8-C , 11-H ) :   0.9000 B( 12-C , 14-H ) :   0.9053
B( 12-C , 15-H ) :   0.9122 B( 12-C , 16-H ) :   0.9144 B( 17-C , 18-C ) :   1.1136
B( 17-C , 19-H ) :   0.8797 B( 18-C , 20-C ) :   1.2519 B( 18-C , 22-S ) :   1.2072
B( 20-C , 21-C ) :   1.2940 B( 20-C , 24-H ) :   0.3577 B( 21-C , 23-C ) :   1.4964
B( 21-C , 25-H ) :   0.8988 B( 22-S , 23-C ) :   1.2570 B( 23-C , 26-H ) :   0.8874
B( 24-H , 30-O ) :   0.3048 B( 30-O , 32-C ) :   1.5470 B( 31-O , 32-C ) :   1.3678
B( 32-C , 33-C ) :   0.9445 B( 33-C , 34-H ) :   0.8998 B( 33-C , 35-H ) :   0.8959
B( 33-C , 36-H ) :   0.9047

Dispersion correction           -0.029929880
FINAL SINGLE POINT ENERGY     -1288.312091215741
Dispersion correction            ... done

DIPOLE MOMENT
-------------
                                X             Y             Z
Electronic contribution:     29.64582     -76.50349      92.79953
Nuclear contribution   :    -29.93489      75.81509     -93.18587
                        -----------------------------------------
Total Dipole Moment    :     -0.28908      -0.68840      -0.38634
                        -----------------------------------------
Magnitude (a.u.)       :      0.84067
Magnitude (Debye)      :      2.13681

Rotational constants in cm-1:     0.010417     0.007921     0.007460
Rotational constants in MHz :   312.302727   237.467235   223.643682

                             ****ORCA TERMINATED NORMALLY****
TOTAL RUN TIME: 0 days 0 hours 15 minutes 0 seconds 64 msec
