                         Program Version 5.0.3 -  RELEASE  -
|  1> ! EnGrad PBEh-3c
|  2> %output
|  3> xyzfile=True
|  4> end
|  5> %scf
|  6> maxiter 250
|  7> end
|  8> %output
|  9> Print[P_Hirshfeld] = 1
| 10> end
| 11> % maxcore
| 12> 4000
| 13> *xyz 1 1
| 14> Ir   0.58124902  -0.74836128   0.63460916
| 15> C   -0.00219977  -2.89339199   1.25867668
| 16> C    0.29460960  -2.15824005   2.39114423
| 17> C    2.13914615  -2.14681142   1.06399831
| 18> C    1.05983940  -2.84796505   0.36444989
| 19> C    1.69362298  -1.74399558   2.27503116
| 20> N   -1.08071951  -0.09969021  -0.50304520
| 21> C   -2.50833065  -0.08435816   0.04377186
| 22> C   -2.83503185   1.23777308   0.69987628
| 23> H   -3.87511672   1.19231323   1.04431380
| 24> H   -2.75728595   2.06570112   0.00588174
| 25> H   -2.22363895   1.41435420   1.57099623
| 26> C   -3.51092301  -0.43985542  -1.03399978
| 27> H   -2.50360511  -0.85258862   0.77680215
| 28> H   -4.48017425  -0.58293381  -0.52400984
| 29> H   -3.67813018   0.34305520  -1.76707535
| 30> H   -3.28540426  -1.37082279  -1.53469434
| 31> C   -0.83938149   0.25275584  -1.71861647
| 32> C    0.50087986   0.17750873  -2.30161983
| 33> H   -1.65510871   0.53468007  -2.34129559
| 34> C    1.66738213   0.00488480  -1.44863830
| 35> C    2.76130059  -0.15168159  -2.47372698
| 36> S    0.74051196   0.27745641  -4.01587783
| 37> C    2.42039420   0.00690479  -3.79390298
| 38> H    2.10004199   1.15632568  -0.71165206
| 39> H    3.79603757  -0.26142642  -2.17390947
| 40> H    3.09157785  -0.02936848  -4.64418233
| 41> H   -0.84519553  -3.54620468   1.13417260
| 42> H   -0.28955349  -2.08744297   3.31115270
| 43> H    2.25067885  -1.31277505   3.06712409
| 44> O    2.03634982   2.05748484   0.28398123
| 45> O    0.26719297   1.12622013   1.55650698
| 46> C    1.13986387   2.06464946   1.16913796
| 47> C    0.88738448   3.47259195   1.91991699
| 48> H    0.86928213   4.26717233   1.17936773
| 49> H    1.77172158   3.65391958   2.54317893
| 50> H    0.00656783   3.51344085   2.54505142
| 51> H    3.14286562  -2.04471674   0.68937515
| 52> H    1.15017952  -3.41675943  -0.53915268
| 53> *
| 54>
| 55>                          ****END OF INPUT****

CARTESIAN COORDINATES (ANGSTROEM)
---------------------------------
  Ir     0.581249   -0.748361    0.634609
  C     -0.002200   -2.893392    1.258677
  C      0.294610   -2.158240    2.391144
  C      2.139146   -2.146811    1.063998
  C      1.059839   -2.847965    0.364450
  C      1.693623   -1.743996    2.275031
  N     -1.080720   -0.099690   -0.503045
  C     -2.508331   -0.084358    0.043772
  C     -2.835032    1.237773    0.699876
  H     -3.875117    1.192313    1.044314
  H     -2.757286    2.065701    0.005882
  H     -2.223639    1.414354    1.570996
  C     -3.510923   -0.439855   -1.034000
  H     -2.503605   -0.852589    0.776802
  H     -4.480174   -0.582934   -0.524010
  H     -3.678130    0.343055   -1.767075
  H     -3.285404   -1.370823   -1.534694
  C     -0.839381    0.252756   -1.718616
  C      0.500880    0.177509   -2.301620
  H     -1.655109    0.534680   -2.341296
  C      1.667382    0.004885   -1.448638
  C      2.761301   -0.151682   -2.473727
  S      0.740512    0.277456   -4.015878
  C      2.420394    0.006905   -3.793903
  H      2.100042    1.156326   -0.711652
  H      3.796038   -0.261426   -2.173909
  H      3.091578   -0.029368   -4.644182
  H     -0.845196   -3.546205    1.134173
  H     -0.289553   -2.087443    3.311153
  H      2.250679   -1.312775    3.067124
  O      2.036350    2.057485    0.283981
  O      0.267193    1.126220    1.556507
  C      1.139864    2.064649    1.169138
  C      0.887384    3.472592    1.919917
  H      0.869282    4.267172    1.179368
  H      1.771722    3.653920    2.543179
  H      0.006568    3.513441    2.545051
  H      3.142866   -2.044717    0.689375
  H      1.150180   -3.416759   -0.539153

 Total Charge           Charge          ....    1
 Multiplicity           Mult            ....    1
 Number of Electrons    NEL             ....  164
 Basis Dimension        Dim             ....  358

ORBITAL ENERGIES
----------------

  NO   OCC          E(Eh)            E(eV)
   0   2.0000     -89.762883     -2442.5722
   1   2.0000     -19.640831      -534.4542
   2   2.0000     -19.638828      -534.3997
   3   2.0000     -14.830255      -403.5518
   4   2.0000     -10.716929      -291.6225
   5   2.0000     -10.649166      -289.7785
   6   2.0000     -10.632097      -289.3141
   7   2.0000     -10.626702      -289.1673
   8   2.0000     -10.620621      -289.0018
   9   2.0000     -10.615319      -288.8575
  10   2.0000     -10.613811      -288.8165
  11   2.0000     -10.611182      -288.7449
  12   2.0000     -10.607264      -288.6383
  13   2.0000     -10.607018      -288.6316
  14   2.0000     -10.601857      -288.4912
  15   2.0000     -10.592603      -288.2394
  16   2.0000     -10.548736      -287.0457
  17   2.0000     -10.548286      -287.0334
  18   2.0000     -10.537936      -286.7518
  19   2.0000      -8.401489      -228.6161
  20   2.0000      -6.291349      -171.1963
  21   2.0000      -6.287894      -171.1023
  22   2.0000      -6.286457      -171.0632
  23   2.0000      -4.014743      -109.2467
  24   2.0000      -2.330960       -63.4286
  25   2.0000      -2.299112       -62.5620
  26   2.0000      -2.297609       -62.5211
  27   2.0000      -1.303911       -35.4812
  28   2.0000      -1.218772       -33.1645
  29   2.0000      -1.186175       -32.2775
  30   2.0000      -1.166785       -31.7498
  31   2.0000      -1.104653       -30.0591
  32   2.0000      -1.014210       -27.5980
  33   2.0000      -0.984642       -26.7935
  34   2.0000      -0.957170       -26.0459
  35   2.0000      -0.953628       -25.9495
  36   2.0000      -0.945148       -25.7188
  37   2.0000      -0.914449       -24.8834
  38   2.0000      -0.893568       -24.3152
  39   2.0000      -0.857233       -23.3265
  40   2.0000      -0.790497       -21.5105
  41   2.0000      -0.778566       -21.1859
  42   2.0000      -0.776478       -21.1291
  43   2.0000      -0.768517       -20.9124
  44   2.0000      -0.764176       -20.7943
  45   2.0000      -0.760802       -20.7025
  46   2.0000      -0.729515       -19.8511
  47   2.0000      -0.706514       -19.2252
  48   2.0000      -0.683749       -18.6058
  49   2.0000      -0.676180       -18.3998
  50   2.0000      -0.651960       -17.7407
  51   2.0000      -0.648545       -17.6478
  52   2.0000      -0.642111       -17.4727
  53   2.0000      -0.632825       -17.2200
  54   2.0000      -0.628708       -17.1080
  55   2.0000      -0.620989       -16.8980
  56   2.0000      -0.612887       -16.6775
  57   2.0000      -0.598472       -16.2852
  58   2.0000      -0.596493       -16.2314
  59   2.0000      -0.595306       -16.1991
  60   2.0000      -0.587603       -15.9895
  61   2.0000      -0.580287       -15.7904
  62   2.0000      -0.568187       -15.4612
  63   2.0000      -0.561998       -15.2927
  64   2.0000      -0.551159       -14.9978
  65   2.0000      -0.549234       -14.9454
  66   2.0000      -0.545568       -14.8457
  67   2.0000      -0.538448       -14.6519
  68   2.0000      -0.531362       -14.4591
  69   2.0000      -0.524707       -14.2780
  70   2.0000      -0.522545       -14.2192
  71   2.0000      -0.513724       -13.9791
  72   2.0000      -0.507436       -13.8080
  73   2.0000      -0.495517       -13.4837
  74   2.0000      -0.489596       -13.3226
  75   2.0000      -0.471705       -12.8357
  76   2.0000      -0.465085       -12.6556
  77   2.0000      -0.443377       -12.0649
  78   2.0000      -0.438625       -11.9356
  79   2.0000      -0.418160       -11.3787
  80   2.0000      -0.412646       -11.2287
  81   2.0000      -0.394708       -10.7406
  82   0.0000      -0.211381        -5.7520
  83   0.0000      -0.166366        -4.5270
  84   0.0000      -0.149154        -4.0587
  85   0.0000      -0.085868        -2.3366
  86   0.0000      -0.082802        -2.2532

MULLIKEN ATOMIC CHARGES
-----------------------
   0 Ir:    0.621295
   1 C :   -0.150800
   2 C :   -0.281912
   3 C :   -0.219624
   4 C :   -0.312523
   5 C :   -0.186968
   6 N :   -0.453694
   7 C :   -0.105781
   8 C :   -0.636081
   9 H :    0.243095
  10 H :    0.228356
  11 H :    0.274182
  12 C :   -0.689920
  13 H :    0.259043
  14 H :    0.263567
  15 H :    0.234092
  16 H :    0.252548
  17 C :    0.092823
  18 C :   -0.165307
  19 H :    0.270768
  20 C :   -0.457045
  21 C :   -0.162982
  22 S :    0.338340
  23 C :   -0.394531
  24 H :    0.461782
  25 H :    0.261169
  26 H :    0.298307
  27 H :    0.282906
  28 H :    0.282831
  29 H :    0.285308
  30 O :   -0.494336
  31 O :   -0.512909
  32 C :    0.636334
  33 C :   -0.721523
  34 H :    0.266545
  35 H :    0.264424
  36 H :    0.264367
  37 H :    0.285535
  38 H :    0.278320
Sum of atomic charges:    1.0000000

LOEWDIN ATOMIC CHARGES
----------------------
   0 Ir:   -0.231017
   1 C :   -0.016023
   2 C :   -0.070895
   3 C :   -0.044667
   4 C :   -0.096295
   5 C :   -0.053578
   6 N :   -0.020468
   7 C :   -0.050449
   8 C :   -0.350523
   9 H :    0.145852
  10 H :    0.137741
  11 H :    0.152681
  12 C :   -0.364947
  13 H :    0.143362
  14 H :    0.155643
  15 H :    0.136033
  16 H :    0.141392
  17 C :    0.023043
  18 C :   -0.183481
  19 H :    0.150876
  20 C :   -0.235266
  21 C :   -0.137414
  22 S :    0.478628
  23 C :   -0.272615
  24 H :    0.372684
  25 H :    0.154818
  26 H :    0.171263
  27 H :    0.179955
  28 H :    0.182427
  29 H :    0.182731
  30 O :   -0.262157
  31 O :   -0.217294
  32 C :    0.235403
  33 C :   -0.374619
  34 H :    0.159400
  35 H :    0.162401
  36 H :    0.152033
  37 H :    0.183204
  38 H :    0.180137

  Mayer bond orders larger than 0.100000
B(  0-Ir,  1-C ) :   0.3175 B(  0-Ir,  2-C ) :   0.4363 B(  0-Ir,  3-C ) :   0.4426
B(  0-Ir,  4-C ) :   0.4709 B(  0-Ir,  5-C ) :   0.4136 B(  0-Ir,  6-N ) :   0.4981
B(  0-Ir, 20-C ) :   0.3996 B(  0-Ir, 31-O ) :   0.5438 B(  1-C ,  2-C ) :   1.2261
B(  1-C ,  4-C ) :   1.2238 B(  1-C , 27-H ) :   0.9147 B(  2-C ,  5-C ) :   1.1253
B(  2-C , 28-H ) :   0.9162 B(  3-C ,  4-C ) :   1.1135 B(  3-C ,  5-C ) :   1.2440
B(  3-C , 37-H ) :   0.9111 B(  4-C , 38-H ) :   0.9199 B(  5-C , 29-H ) :   0.9152
B(  6-N ,  7-C ) :   0.8627 B(  6-N , 17-C ) :   1.6517 B(  7-C ,  8-C ) :   0.9852
B(  7-C , 12-C ) :   0.9943 B(  7-C , 13-H ) :   0.8915 B(  8-C ,  9-H ) :   0.9060
B(  8-C , 10-H ) :   0.9177 B(  8-C , 11-H ) :   0.8985 B( 12-C , 14-H ) :   0.9048
B( 12-C , 15-H ) :   0.9105 B( 12-C , 16-H ) :   0.9127 B( 17-C , 18-C ) :   1.0993
B( 17-C , 19-H ) :   0.8800 B( 18-C , 20-C ) :   1.2546 B( 18-C , 22-S ) :   1.2322
B( 20-C , 21-C ) :   1.2302 B( 20-C , 24-H ) :   0.3782 B( 21-C , 23-C ) :   1.5682
B( 21-C , 25-H ) :   0.9027 B( 22-S , 23-C ) :   1.1933 B( 23-C , 26-H ) :   0.8878
B( 24-H , 30-O ) :   0.3046 B( 30-O , 31-O ) :   0.1005 B( 30-O , 32-C ) :   1.5502
B( 31-O , 32-C ) :   1.3407 B( 32-C , 33-C ) :   0.9277 B( 33-C , 34-H ) :   0.9005
B( 33-C , 35-H ) :   0.9001 B( 33-C , 36-H ) :   0.9047

Dispersion correction           -0.029455201
FINAL SINGLE POINT ENERGY     -1288.316142444424
Dispersion correction            ... done

DIPOLE MOMENT
-------------
                                X             Y             Z
Electronic contribution:     34.90812     -74.17275      90.83181
Nuclear contribution   :    -35.45008      73.43530     -91.14444
                        -----------------------------------------
Total Dipole Moment    :     -0.54196      -0.73746      -0.31264
                        -----------------------------------------
Magnitude (a.u.)       :      0.96711
Magnitude (Debye)      :      2.45820

Rotational constants in cm-1:     0.010402     0.007952     0.007442
Rotational constants in MHz :   311.838954   238.392917   223.102768

                             ****ORCA TERMINATED NORMALLY****
TOTAL RUN TIME: 0 days 0 hours 14 minutes 54 seconds 79 msec
