                         Program Version 5.0.3 -  RELEASE  -
|  1> ! EnGrad PBEh-3c
|  2> %output
|  3> xyzfile=True
|  4> end
|  5> %scf
|  6> maxiter 250
|  7> end
|  8> %output
|  9> Print[P_Hirshfeld] = 1
| 10> end
| 11> % maxcore
| 12> 4000
| 13> *xyz 1 1
| 14> Ir   0.54334660  -0.76311042   0.64910810
| 15> C   -0.00130490  -2.88441293   1.22173953
| 16> C    0.26996133  -2.16257789   2.39458239
| 17> C    2.14061837  -2.11251034   1.06525504
| 18> C    1.10123677  -2.83804729   0.36065423
| 19> C    1.64933411  -1.74705747   2.30237068
| 20> N   -1.07526915  -0.09790118  -0.48975247
| 21> C   -2.48819456  -0.08663280   0.02474636
| 22> C   -2.83674395   1.21387302   0.72150399
| 23> H   -3.87303595   1.18293630   1.07572359
| 24> H   -2.75404154   2.05112067   0.03739740
| 25> H   -2.22544106   1.37268326   1.59899852
| 26> C   -3.52778688  -0.42885840  -1.02987621
| 27> H   -2.51526354  -0.86262366   0.76038419
| 28> H   -4.49600361  -0.57951045  -0.52817998
| 29> H   -3.68264219   0.36514408  -1.75449817
| 30> H   -3.29978745  -1.35327917  -1.54684199
| 31> C   -0.83813974   0.24056539  -1.70911547
| 32> C    0.47816886   0.19701355  -2.30276641
| 33> H   -1.64978772   0.53076862  -2.34276347
| 34> C    1.63800908  -0.05655885  -1.53685179
| 35> C    2.75832657  -0.16432371  -2.46982876
| 36> S    0.75631766   0.28017415  -3.99731160
| 37> C    2.42641802   0.02005542  -3.78501013
| 38> H    2.16985527   1.18795929  -0.78564301
| 39> H    3.78970458  -0.27409227  -2.16815017
| 40> H    3.09805348  -0.02803752  -4.63048333
| 41> H   -0.81600303  -3.58365895   1.09686748
| 42> H   -0.34037302  -2.10072034   3.29052985
| 43> H    2.20297429  -1.32372255   3.11251493
| 44> O    2.01938734   2.05892054   0.32924974
| 45> O    0.31385208   1.14234962   1.52047633
| 46> C    1.10298373   2.12261164   1.17117385
| 47> C    0.90262676   3.47829596   1.90498463
| 48> H    0.87355951   4.27543418   1.16820097
| 49> H    1.78287884   3.66710939   2.52820037
| 50> H    0.02533451   3.51285191   2.52855873
| 51> H    3.16916049  -2.02779472   0.74829194
| 52> H    1.20718372  -3.42453719  -0.53284495
| 53> *
| 54>
| 55>                          ****END OF INPUT****

CARTESIAN COORDINATES (ANGSTROEM)
---------------------------------
  Ir     0.543347   -0.763110    0.649108
  C     -0.001305   -2.884413    1.221740
  C      0.269961   -2.162578    2.394582
  C      2.140618   -2.112510    1.065255
  C      1.101237   -2.838047    0.360654
  C      1.649334   -1.747057    2.302371
  N     -1.075269   -0.097901   -0.489752
  C     -2.488195   -0.086633    0.024746
  C     -2.836744    1.213873    0.721504
  H     -3.873036    1.182936    1.075724
  H     -2.754042    2.051121    0.037397
  H     -2.225441    1.372683    1.598999
  C     -3.527787   -0.428858   -1.029876
  H     -2.515264   -0.862624    0.760384
  H     -4.496004   -0.579510   -0.528180
  H     -3.682642    0.365144   -1.754498
  H     -3.299787   -1.353279   -1.546842
  C     -0.838140    0.240565   -1.709115
  C      0.478169    0.197014   -2.302766
  H     -1.649788    0.530769   -2.342763
  C      1.638009   -0.056559   -1.536852
  C      2.758327   -0.164324   -2.469829
  S      0.756318    0.280174   -3.997312
  C      2.426418    0.020055   -3.785010
  H      2.169855    1.187959   -0.785643
  H      3.789705   -0.274092   -2.168150
  H      3.098053   -0.028038   -4.630483
  H     -0.816003   -3.583659    1.096867
  H     -0.340373   -2.100720    3.290530
  H      2.202974   -1.323723    3.112515
  O      2.019387    2.058921    0.329250
  O      0.313852    1.142350    1.520476
  C      1.102984    2.122612    1.171174
  C      0.902627    3.478296    1.904985
  H      0.873560    4.275434    1.168201
  H      1.782879    3.667109    2.528200
  H      0.025335    3.512852    2.528559
  H      3.169160   -2.027795    0.748292
  H      1.207184   -3.424537   -0.532845

 Total Charge           Charge          ....    1
 Multiplicity           Mult            ....    1
 Number of Electrons    NEL             ....  164
 Basis Dimension        Dim             ....  358

ORBITAL ENERGIES
----------------

  NO   OCC          E(Eh)            E(eV)
   0   2.0000     -89.761065     -2442.5227
   1   2.0000     -19.630199      -534.1649
   2   2.0000     -19.623829      -533.9915
   3   2.0000     -14.830238      -403.5513
   4   2.0000     -10.703367      -291.2534
   5   2.0000     -10.649615      -289.7908
   6   2.0000     -10.626985      -289.1750
   7   2.0000     -10.623310      -289.0750
   8   2.0000     -10.620411      -288.9961
   9   2.0000     -10.616698      -288.8951
  10   2.0000     -10.615769      -288.8698
  11   2.0000     -10.609650      -288.7032
  12   2.0000     -10.607729      -288.6510
  13   2.0000     -10.607559      -288.6463
  14   2.0000     -10.598071      -288.3882
  15   2.0000     -10.590543      -288.1833
  16   2.0000     -10.547079      -287.0006
  17   2.0000     -10.544848      -286.9399
  18   2.0000     -10.536122      -286.7025
  19   2.0000      -8.400200      -228.5811
  20   2.0000      -6.289952      -171.1583
  21   2.0000      -6.286492      -171.0641
  22   2.0000      -6.285374      -171.0337
  23   2.0000      -4.015553      -109.2688
  24   2.0000      -2.332647       -63.4746
  25   2.0000      -2.300182       -62.5911
  26   2.0000      -2.297409       -62.5157
  27   2.0000      -1.306592       -35.5542
  28   2.0000      -1.214164       -33.0391
  29   2.0000      -1.191014       -32.4091
  30   2.0000      -1.163715       -31.6663
  31   2.0000      -1.115345       -30.3501
  32   2.0000      -1.013833       -27.5878
  33   2.0000      -0.976737       -26.5784
  34   2.0000      -0.961848       -26.1732
  35   2.0000      -0.959861       -26.1191
  36   2.0000      -0.948295       -25.8044
  37   2.0000      -0.925000       -25.1705
  38   2.0000      -0.891197       -24.2507
  39   2.0000      -0.861385       -23.4395
  40   2.0000      -0.791390       -21.5348
  41   2.0000      -0.775856       -21.1121
  42   2.0000      -0.774630       -21.0788
  43   2.0000      -0.770734       -20.9727
  44   2.0000      -0.761968       -20.7342
  45   2.0000      -0.756546       -20.5867
  46   2.0000      -0.729493       -19.8505
  47   2.0000      -0.705901       -19.2086
  48   2.0000      -0.684653       -18.6303
  49   2.0000      -0.675540       -18.3824
  50   2.0000      -0.653765       -17.7899
  51   2.0000      -0.647428       -17.6174
  52   2.0000      -0.639798       -17.4098
  53   2.0000      -0.635726       -17.2990
  54   2.0000      -0.627888       -17.0857
  55   2.0000      -0.626001       -17.0343
  56   2.0000      -0.616122       -16.7655
  57   2.0000      -0.600855       -16.3501
  58   2.0000      -0.598176       -16.2772
  59   2.0000      -0.595213       -16.1966
  60   2.0000      -0.589159       -16.0318
  61   2.0000      -0.582055       -15.8385
  62   2.0000      -0.567216       -15.4347
  63   2.0000      -0.564700       -15.3663
  64   2.0000      -0.554306       -15.0834
  65   2.0000      -0.548729       -14.9317
  66   2.0000      -0.544210       -14.8087
  67   2.0000      -0.538664       -14.6578
  68   2.0000      -0.532573       -14.4920
  69   2.0000      -0.519747       -14.1430
  70   2.0000      -0.514219       -13.9926
  71   2.0000      -0.508686       -13.8421
  72   2.0000      -0.506215       -13.7748
  73   2.0000      -0.492142       -13.3919
  74   2.0000      -0.488681       -13.2977
  75   2.0000      -0.465621       -12.6702
  76   2.0000      -0.460277       -12.5248
  77   2.0000      -0.440778       -11.9942
  78   2.0000      -0.439711       -11.9651
  79   2.0000      -0.419010       -11.4019
  80   2.0000      -0.411790       -11.2054
  81   2.0000      -0.394156       -10.7255
  82   0.0000      -0.208664        -5.6780
  83   0.0000      -0.166172        -4.5218
  84   0.0000      -0.150081        -4.0839
  85   0.0000      -0.083745        -2.2788
  86   0.0000      -0.079911        -2.1745

MULLIKEN ATOMIC CHARGES
-----------------------
   0 Ir:    0.620929
   1 C :   -0.204160
   2 C :   -0.264782
   3 C :   -0.236730
   4 C :   -0.271992
   5 C :   -0.172891
   6 N :   -0.467312
   7 C :   -0.110964
   8 C :   -0.635310
   9 H :    0.244356
  10 H :    0.224891
  11 H :    0.271990
  12 C :   -0.686624
  13 H :    0.257283
  14 H :    0.265559
  15 H :    0.230481
  16 H :    0.249015
  17 C :    0.098637
  18 C :   -0.154588
  19 H :    0.272522
  20 C :   -0.414323
  21 C :   -0.173930
  22 S :    0.342054
  23 C :   -0.403353
  24 H :    0.443830
  25 H :    0.266846
  26 H :    0.299408
  27 H :    0.282503
  28 H :    0.284402
  29 H :    0.285290
  30 O :   -0.502152
  31 O :   -0.518472
  32 C :    0.646786
  33 C :   -0.731907
  34 H :    0.267658
  35 H :    0.271237
  36 H :    0.263863
  37 H :    0.281321
  38 H :    0.278626
Sum of atomic charges:    1.0000000

LOEWDIN ATOMIC CHARGES
----------------------
   0 Ir:   -0.228553
   1 C :   -0.026026
   2 C :   -0.069197
   3 C :   -0.046993
   4 C :   -0.084745
   5 C :   -0.046280
   6 N :   -0.017694
   7 C :   -0.057935
   8 C :   -0.350843
   9 H :    0.145447
  10 H :    0.135778
  11 H :    0.151512
  12 C :   -0.364025
  13 H :    0.143231
  14 H :    0.155978
  15 H :    0.134137
  16 H :    0.139771
  17 C :    0.028939
  18 C :   -0.208033
  19 H :    0.152461
  20 C :   -0.223543
  21 C :   -0.152094
  22 S :    0.489599
  23 C :   -0.268343
  24 H :    0.391592
  25 H :    0.157685
  26 H :    0.171348
  27 H :    0.181034
  28 H :    0.183026
  29 H :    0.182658
  30 O :   -0.267346
  31 O :   -0.205517
  32 C :    0.199380
  33 C :   -0.373100
  34 H :    0.162475
  35 H :    0.167777
  36 H :    0.152557
  37 H :    0.183279
  38 H :    0.180603

  Mayer bond orders larger than 0.100000
B(  0-Ir,  1-C ) :   0.3601 B(  0-Ir,  2-C ) :   0.4554 B(  0-Ir,  3-C ) :   0.4598
B(  0-Ir,  4-C ) :   0.4732 B(  0-Ir,  5-C ) :   0.4091 B(  0-Ir,  6-N ) :   0.4919
B(  0-Ir, 20-C ) :   0.4076 B(  0-Ir, 31-O ) :   0.5380 B(  1-C ,  2-C ) :   1.1999
B(  1-C ,  4-C ) :   1.2278 B(  1-C , 27-H ) :   0.9173 B(  2-C ,  5-C ) :   1.1320
B(  2-C , 28-H ) :   0.9144 B(  3-C ,  4-C ) :   1.1017 B(  3-C ,  5-C ) :   1.2344
B(  3-C , 37-H ) :   0.9167 B(  4-C , 38-H ) :   0.9195 B(  5-C , 29-H ) :   0.9141
B(  6-N ,  7-C ) :   0.8804 B(  6-N , 17-C ) :   1.6351 B(  7-C ,  8-C ) :   0.9824
B(  7-C , 12-C ) :   0.9938 B(  7-C , 13-H ) :   0.8909 B(  8-C ,  9-H ) :   0.9067
B(  8-C , 10-H ) :   0.9186 B(  8-C , 11-H ) :   0.8996 B( 12-C , 14-H ) :   0.9052
B( 12-C , 15-H ) :   0.9116 B( 12-C , 16-H ) :   0.9138 B( 17-C , 18-C ) :   1.1104
B( 17-C , 19-H ) :   0.8799 B( 18-C , 20-C ) :   1.2513 B( 18-C , 22-S ) :   1.2161
B( 20-C , 21-C ) :   1.2735 B( 20-C , 24-H ) :   0.3658 B( 21-C , 23-C ) :   1.5217
B( 21-C , 25-H ) :   0.9002 B( 22-S , 23-C ) :   1.2350 B( 23-C , 26-H ) :   0.8879
B( 24-H , 30-O ) :   0.3061 B( 30-O , 32-C ) :   1.5475 B( 31-O , 32-C ) :   1.3590
B( 32-C , 33-C ) :   0.9387 B( 33-C , 34-H ) :   0.9002 B( 33-C , 35-H ) :   0.8973
B( 33-C , 36-H ) :   0.9047

Dispersion correction           -0.029835363
FINAL SINGLE POINT ENERGY     -1288.323416528558
Dispersion correction            ... done

DIPOLE MOMENT
-------------
                                X             Y             Z
Electronic contribution:     31.37651     -75.73826      92.16361
Nuclear contribution   :    -31.74850      75.03253     -92.51457
                        -----------------------------------------
Total Dipole Moment    :     -0.37199      -0.70573      -0.35096
                        -----------------------------------------
Magnitude (a.u.)       :      0.87156
Magnitude (Debye)      :      2.21532

Rotational constants in cm-1:     0.010413     0.007932     0.007455
Rotational constants in MHz :   312.187082   237.799704   223.491943

                             ****ORCA TERMINATED NORMALLY****
TOTAL RUN TIME: 0 days 0 hours 19 minutes 4 seconds 388 msec
