                         Program Version 5.0.3 -  RELEASE  -
|  1> ! EnGrad PBEh-3c
|  2> %output
|  3> xyzfile=True
|  4> end
|  5> %scf
|  6> maxiter 250
|  7> end
|  8> %output
|  9> Print[P_Hirshfeld] = 1
| 10> end
| 11> % maxcore
| 12> 4000
| 13> *xyz 1 1
| 14> Ir   0.59108454  -0.74894416   0.61670989
| 15> C   -0.00256029  -2.90545368   1.24921835
| 16> C    0.28903868  -2.15013421   2.39483836
| 17> C    2.15345497  -2.16086415   1.06124045
| 18> C    1.08168816  -2.84772921   0.36309693
| 19> C    1.67499283  -1.73770850   2.29210183
| 20> N   -1.08309339  -0.10490927  -0.50730151
| 21> C   -2.50294987  -0.08429898   0.03599266
| 22> C   -2.83650431   1.23283135   0.70978423
| 23> H   -3.87216047   1.18500214   1.04883137
| 24> H   -2.75378044   2.06828203   0.01717758
| 25> H   -2.21679803   1.40752376   1.58046800
| 26> C   -3.51921137  -0.43765016  -1.03177870
| 27> H   -2.50261692  -0.86990616   0.78113103
| 28> H   -4.47725633  -0.57963386  -0.52684891
| 29> H   -3.68112959   0.35148941  -1.76664757
| 30> H   -3.28799267  -1.36864898  -1.54388922
| 31> C   -0.83725867   0.24930516  -1.72276765
| 32> C    0.50418856   0.17540919  -2.28252841
| 33> H   -1.66654977   0.53776427  -2.34776294
| 34> C    1.65756663   0.02258645  -1.45096662
| 35> C    2.75294171  -0.15316761  -2.45352630
| 36> S    0.74029736   0.27869365  -4.00545360
| 37> C    2.41702782   0.00352408  -3.78316515
| 38> H    2.06176350   1.14985316  -0.67061200
| 39> H    3.79116588  -0.27035326  -2.16822164
| 40> H    3.09049389  -0.02496260  -4.63960983
| 41> H   -0.85571659  -3.54146374   1.11078488
| 42> H   -0.30694174  -2.08690403   3.29584080
| 43> H    2.24020912  -1.29820030   3.08479209
| 44> O    2.03884750   2.06011734   0.25936057
| 45> O    0.29754650   1.13395978   1.52854661
| 46> C    1.14268054   2.06944800   1.16152598
| 47> C    0.90188253   3.45554209   1.90583494
| 48> H    0.86940036   4.26913611   1.17400864
| 49> H    1.77347375   3.65450067   2.53592502
| 50> H    0.00777930   3.50893520   2.54059570
| 51> H    3.15287413  -2.03094291   0.70290036
| 52> H    1.17044556  -3.41247326  -0.54607613
| 53> *
| 54>
| 55>                          ****END OF INPUT****

CARTESIAN COORDINATES (ANGSTROEM)
---------------------------------
  Ir     0.591085   -0.748944    0.616710
  C     -0.002560   -2.905454    1.249218
  C      0.289039   -2.150134    2.394838
  C      2.153455   -2.160864    1.061240
  C      1.081688   -2.847729    0.363097
  C      1.674993   -1.737709    2.292102
  N     -1.083093   -0.104909   -0.507302
  C     -2.502950   -0.084299    0.035993
  C     -2.836504    1.232831    0.709784
  H     -3.872160    1.185002    1.048831
  H     -2.753780    2.068282    0.017178
  H     -2.216798    1.407524    1.580468
  C     -3.519211   -0.437650   -1.031779
  H     -2.502617   -0.869906    0.781131
  H     -4.477256   -0.579634   -0.526849
  H     -3.681130    0.351489   -1.766648
  H     -3.287993   -1.368649   -1.543889
  C     -0.837259    0.249305   -1.722768
  C      0.504189    0.175409   -2.282528
  H     -1.666550    0.537764   -2.347763
  C      1.657567    0.022586   -1.450967
  C      2.752942   -0.153168   -2.453526
  S      0.740297    0.278694   -4.005454
  C      2.417028    0.003524   -3.783165
  H      2.061764    1.149853   -0.670612
  H      3.791166   -0.270353   -2.168222
  H      3.090494   -0.024963   -4.639610
  H     -0.855717   -3.541464    1.110785
  H     -0.306942   -2.086904    3.295841
  H      2.240209   -1.298200    3.084792
  O      2.038848    2.060117    0.259361
  O      0.297546    1.133960    1.528547
  C      1.142681    2.069448    1.161526
  C      0.901883    3.455542    1.905835
  H      0.869400    4.269136    1.174009
  H      1.773474    3.654501    2.535925
  H      0.007779    3.508935    2.540596
  H      3.152874   -2.030943    0.702900
  H      1.170446   -3.412473   -0.546076

 Total Charge           Charge          ....    1
 Multiplicity           Mult            ....    1
 Number of Electrons    NEL             ....  164
 Basis Dimension        Dim             ....  358

ORBITAL ENERGIES
----------------

  NO   OCC          E(Eh)            E(eV)
   0   2.0000     -89.758936     -2442.4648
   1   2.0000     -19.645069      -534.5695
   2   2.0000     -19.639559      -534.4196
   3   2.0000     -14.829007      -403.5178
   4   2.0000     -10.718219      -291.6576
   5   2.0000     -10.649170      -289.7786
   6   2.0000     -10.630737      -289.2771
   7   2.0000     -10.627492      -289.1888
   8   2.0000     -10.621575      -289.0278
   9   2.0000     -10.618409      -288.9416
  10   2.0000     -10.617419      -288.9147
  11   2.0000     -10.612511      -288.7811
  12   2.0000     -10.609330      -288.6945
  13   2.0000     -10.606891      -288.6282
  14   2.0000     -10.598128      -288.3897
  15   2.0000     -10.590609      -288.1851
  16   2.0000     -10.551677      -287.1257
  17   2.0000     -10.548618      -287.0425
  18   2.0000     -10.539206      -286.7864
  19   2.0000      -8.397615      -228.5107
  20   2.0000      -6.287500      -171.0916
  21   2.0000      -6.284050      -170.9977
  22   2.0000      -6.282518      -170.9560
  23   2.0000      -4.015185      -109.2587
  24   2.0000      -2.331068       -63.4316
  25   2.0000      -2.299732       -62.5789
  26   2.0000      -2.297821       -62.5269
  27   2.0000      -1.309228       -35.6259
  28   2.0000      -1.227267       -33.3956
  29   2.0000      -1.186299       -32.2808
  30   2.0000      -1.161811       -31.6145
  31   2.0000      -1.104071       -30.0433
  32   2.0000      -1.013040       -27.5662
  33   2.0000      -0.977403       -26.5965
  34   2.0000      -0.960292       -26.1309
  35   2.0000      -0.951146       -25.8820
  36   2.0000      -0.947411       -25.7804
  37   2.0000      -0.919983       -25.0340
  38   2.0000      -0.892928       -24.2978
  39   2.0000      -0.856405       -23.3040
  40   2.0000      -0.789044       -21.4710
  41   2.0000      -0.777923       -21.1684
  42   2.0000      -0.776891       -21.1403
  43   2.0000      -0.771123       -20.9833
  44   2.0000      -0.764875       -20.8133
  45   2.0000      -0.760645       -20.6982
  46   2.0000      -0.730718       -19.8838
  47   2.0000      -0.710525       -19.3344
  48   2.0000      -0.683404       -18.5964
  49   2.0000      -0.674603       -18.3569
  50   2.0000      -0.654085       -17.7986
  51   2.0000      -0.647723       -17.6254
  52   2.0000      -0.640445       -17.4274
  53   2.0000      -0.635651       -17.2970
  54   2.0000      -0.627823       -17.0839
  55   2.0000      -0.623148       -16.9567
  56   2.0000      -0.612730       -16.6732
  57   2.0000      -0.599353       -16.3092
  58   2.0000      -0.597193       -16.2504
  59   2.0000      -0.594162       -16.1680
  60   2.0000      -0.587360       -15.9829
  61   2.0000      -0.579866       -15.7790
  62   2.0000      -0.566118       -15.4048
  63   2.0000      -0.562572       -15.3084
  64   2.0000      -0.552544       -15.0355
  65   2.0000      -0.551406       -15.0045
  66   2.0000      -0.547613       -14.9013
  67   2.0000      -0.538775       -14.6608
  68   2.0000      -0.532469       -14.4892
  69   2.0000      -0.525266       -14.2932
  70   2.0000      -0.521459       -14.1896
  71   2.0000      -0.513281       -13.9671
  72   2.0000      -0.509767       -13.8715
  73   2.0000      -0.496387       -13.5074
  74   2.0000      -0.489044       -13.3076
  75   2.0000      -0.472450       -12.8560
  76   2.0000      -0.466268       -12.6878
  77   2.0000      -0.445002       -12.1091
  78   2.0000      -0.439473       -11.9587
  79   2.0000      -0.418929       -11.3996
  80   2.0000      -0.410994       -11.1837
  81   2.0000      -0.394435       -10.7331
  82   0.0000      -0.208730        -5.6798
  83   0.0000      -0.166561        -4.5323
  84   0.0000      -0.151457        -4.1213
  85   0.0000      -0.087069        -2.3693
  86   0.0000      -0.081994        -2.2312

MULLIKEN ATOMIC CHARGES
-----------------------
   0 Ir:    0.617957
   1 C :   -0.148239
   2 C :   -0.276638
   3 C :   -0.209220
   4 C :   -0.320326
   5 C :   -0.198537
   6 N :   -0.453848
   7 C :   -0.107111
   8 C :   -0.633749
   9 H :    0.245113
  10 H :    0.226716
  11 H :    0.270431
  12 C :   -0.686631
  13 H :    0.253361
  14 H :    0.266471
  15 H :    0.231497
  16 H :    0.250514
  17 C :    0.088048
  18 C :   -0.157632
  19 H :    0.271682
  20 C :   -0.457396
  21 C :   -0.169553
  22 S :    0.328925
  23 C :   -0.391782
  24 H :    0.474111
  25 H :    0.259415
  26 H :    0.298134
  27 H :    0.283552
  28 H :    0.282690
  29 H :    0.286133
  30 O :   -0.510154
  31 O :   -0.499800
  32 C :    0.645422
  33 C :   -0.728573
  34 H :    0.268593
  35 H :    0.269165
  36 H :    0.263098
  37 H :    0.287734
  38 H :    0.280429
Sum of atomic charges:    1.0000000

LOEWDIN ATOMIC CHARGES
----------------------
   0 Ir:   -0.231766
   1 C :   -0.011467
   2 C :   -0.073884
   3 C :   -0.045351
   4 C :   -0.097573
   5 C :   -0.052117
   6 N :   -0.023818
   7 C :   -0.052329
   8 C :   -0.350612
   9 H :    0.146086
  10 H :    0.137240
  11 H :    0.151475
  12 C :   -0.364650
  13 H :    0.142099
  14 H :    0.155375
  15 H :    0.135216
  16 H :    0.141291
  17 C :    0.024360
  18 C :   -0.184914
  19 H :    0.152403
  20 C :   -0.231585
  21 C :   -0.138863
  22 S :    0.469710
  23 C :   -0.269899
  24 H :    0.372306
  25 H :    0.154373
  26 H :    0.171368
  27 H :    0.179935
  28 H :    0.181242
  29 H :    0.183237
  30 O :   -0.271212
  31 O :   -0.196043
  32 C :    0.230225
  33 C :   -0.375467
  34 H :    0.161703
  35 H :    0.164159
  36 H :    0.153699
  37 H :    0.183272
  38 H :    0.180778

  Mayer bond orders larger than 0.100000
B(  0-Ir,  1-C ) :   0.3210 B(  0-Ir,  2-C ) :   0.4250 B(  0-Ir,  3-C ) :   0.4412
B(  0-Ir,  4-C ) :   0.4711 B(  0-Ir,  5-C ) :   0.4158 B(  0-Ir,  6-N ) :   0.4947
B(  0-Ir, 20-C ) :   0.4078 B(  0-Ir, 31-O ) :   0.5273 B(  1-C ,  2-C ) :   1.2252
B(  1-C ,  4-C ) :   1.2192 B(  1-C , 27-H ) :   0.9141 B(  2-C ,  5-C ) :   1.1297
B(  2-C , 28-H ) :   0.9172 B(  3-C ,  4-C ) :   1.1147 B(  3-C ,  5-C ) :   1.2385
B(  3-C , 37-H ) :   0.9091 B(  4-C , 38-H ) :   0.9189 B(  5-C , 29-H ) :   0.9147
B(  6-N ,  7-C ) :   0.8691 B(  6-N , 17-C ) :   1.6447 B(  7-C ,  8-C ) :   0.9820
B(  7-C , 12-C ) :   0.9919 B(  7-C , 13-H ) :   0.8926 B(  8-C ,  9-H ) :   0.9055
B(  8-C , 10-H ) :   0.9180 B(  8-C , 11-H ) :   0.9009 B( 12-C , 14-H ) :   0.9036
B( 12-C , 15-H ) :   0.9110 B( 12-C , 16-H ) :   0.9137 B( 17-C , 18-C ) :   1.1016
B( 17-C , 19-H ) :   0.8793 B( 18-C , 20-C ) :   1.2683 B( 18-C , 22-S ) :   1.2182
B( 20-C , 21-C ) :   1.2428 B( 20-C , 24-H ) :   0.3487 B( 21-C , 23-C ) :   1.5639
B( 21-C , 25-H ) :   0.9039 B( 22-S , 23-C ) :   1.1995 B( 23-C , 26-H ) :   0.8873
B( 24-H , 30-O ) :   0.3322 B( 30-O , 32-C ) :   1.5076 B( 31-O , 32-C ) :   1.3813
B( 32-C , 33-C ) :   0.9308 B( 33-C , 34-H ) :   0.8992 B( 33-C , 35-H ) :   0.8968
B( 33-C , 36-H ) :   0.9061

Dispersion correction           -0.029400660
FINAL SINGLE POINT ENERGY     -1288.338181595508
Dispersion correction            ... done

DIPOLE MOMENT
-------------
                                X             Y             Z
Electronic contribution:     35.71122     -74.17306      89.28474
Nuclear contribution   :    -36.28457      73.47977     -89.44417
                        -----------------------------------------
Total Dipole Moment    :     -0.57335      -0.69329      -0.15943
                        -----------------------------------------
Magnitude (a.u.)       :      0.91367
Magnitude (Debye)      :      2.32237

Rotational constants in cm-1:     0.010402     0.007994     0.007478
Rotational constants in MHz :   311.854726   239.662475   224.179227

                             ****ORCA TERMINATED NORMALLY****
TOTAL RUN TIME: 0 days 0 hours 15 minutes 11 seconds 304 msec
