                         Program Version 5.0.3 -  RELEASE  -
|  1> ! EnGrad PBEh-3c
|  2> %output
|  3> xyzfile=True
|  4> end
|  5> %scf
|  6> maxiter 250
|  7> end
|  8> %output
|  9> Print[P_Hirshfeld] = 1
| 10> end
| 11> % maxcore
| 12> 4000
| 13> *xyz 1 1
| 14> Ir   0.55948473  -0.75832142   0.63815567
| 15> C   -0.00172930  -2.89152590   1.23102893
| 16> C    0.27641056  -2.15837122   2.39466892
| 17> C    2.14495787  -2.12885668   1.06389788
| 18> C    1.09462823  -2.84132033   0.36148000
| 19> C    1.65800822  -1.74389699   2.29889922
| 20> N   -1.07791419  -0.10027031  -0.49568505
| 21> C   -2.49318269  -0.08584384   0.02854825
| 22> C   -2.83666294   1.22028202   0.71754204
| 23> H   -3.87273999   1.18363467   1.06663250
| 24> H   -2.75395327   2.05692218   0.03056195
| 25> H   -2.22251923   1.38446133   1.59273415
| 26> C   -3.52488787  -0.43183052  -1.03051936
| 27> H   -2.51098826  -0.86508556   0.76739780
| 28> H   -4.48966596  -0.57955217  -0.52773000
| 29> H   -3.68213085   0.36052802  -1.75860536
| 30> H   -3.29580015  -1.35847504  -1.54584378
| 31> C   -0.83784189   0.24351993  -1.71373069
| 32> C    0.48696500   0.18971005  -2.29592482
| 33> H   -1.65545425   0.53313355  -2.34445358
| 34> C    1.64462065  -0.02980324  -1.50781772
| 35> C    2.75650618  -0.16055232  -2.46431761
| 36> S    0.75090189   0.27967366  -4.00006406
| 37> C    2.42324359   0.01446689  -3.78438642
| 38> H    2.13331411   1.17507725  -0.74675599
| 39> H    3.79019858  -0.27282827  -2.16817433
| 40> H    3.09549791  -0.02699802  -4.63356860
| 41> H   -0.82942847  -3.56939457   1.10157235
| 42> H   -0.32907135  -2.09604964   3.29232525
| 43> H    2.21556178  -1.31509458   3.10314303
| 44> O    2.02596598   2.05932512   0.30562323
| 45> O    0.30833987   1.13951338   1.52320454
| 46> C    1.11640351   2.10463931   1.16791232
| 47> C    0.90237517   3.47060386   1.90527209
| 48> H    0.87215348   4.27330507   1.17016429
| 49> H    1.77969938   3.66284693   2.53081174
| 50> H    0.01939985   3.51152784   2.53262791
| 51> H    3.16365477  -2.02885899   0.73294700
| 52> H    1.19476413  -3.42045889  -0.53731784
| 53> *
| 54>
| 55>                          ****END OF INPUT****

CARTESIAN COORDINATES (ANGSTROEM)
---------------------------------
  Ir     0.559485   -0.758321    0.638156
  C     -0.001729   -2.891526    1.231029
  C      0.276411   -2.158371    2.394669
  C      2.144958   -2.128857    1.063898
  C      1.094628   -2.841320    0.361480
  C      1.658008   -1.743897    2.298899
  N     -1.077914   -0.100270   -0.495685
  C     -2.493183   -0.085844    0.028548
  C     -2.836663    1.220282    0.717542
  H     -3.872740    1.183635    1.066633
  H     -2.753953    2.056922    0.030562
  H     -2.222519    1.384461    1.592734
  C     -3.524888   -0.431831   -1.030519
  H     -2.510988   -0.865086    0.767398
  H     -4.489666   -0.579552   -0.527730
  H     -3.682131    0.360528   -1.758605
  H     -3.295800   -1.358475   -1.545844
  C     -0.837842    0.243520   -1.713731
  C      0.486965    0.189710   -2.295925
  H     -1.655454    0.533134   -2.344454
  C      1.644621   -0.029803   -1.507818
  C      2.756506   -0.160552   -2.464318
  S      0.750902    0.279674   -4.000064
  C      2.423244    0.014467   -3.784386
  H      2.133314    1.175077   -0.746756
  H      3.790199   -0.272828   -2.168174
  H      3.095498   -0.026998   -4.633569
  H     -0.829428   -3.569395    1.101572
  H     -0.329071   -2.096050    3.292325
  H      2.215562   -1.315095    3.103143
  O      2.025966    2.059325    0.305623
  O      0.308340    1.139513    1.523205
  C      1.116404    2.104639    1.167912
  C      0.902375    3.470604    1.905272
  H      0.872153    4.273305    1.170164
  H      1.779699    3.662847    2.530812
  H      0.019400    3.511528    2.532628
  H      3.163655   -2.028859    0.732947
  H      1.194764   -3.420459   -0.537318

 Total Charge           Charge          ....    1
 Multiplicity           Mult            ....    1
 Number of Electrons    NEL             ....  164
 Basis Dimension        Dim             ....  358

ORBITAL ENERGIES
----------------

  NO   OCC          E(Eh)            E(eV)
   0   2.0000     -89.760190     -2442.4989
   1   2.0000     -19.635392      -534.3062
   2   2.0000     -19.629682      -534.1508
   3   2.0000     -14.829807      -403.5396
   4   2.0000     -10.708554      -291.3946
   5   2.0000     -10.649408      -289.7851
   6   2.0000     -10.628298      -289.2107
   7   2.0000     -10.624464      -289.1064
   8   2.0000     -10.620762      -289.0056
   9   2.0000     -10.617102      -288.9060
  10   2.0000     -10.616380      -288.8864
  11   2.0000     -10.609406      -288.6966
  12   2.0000     -10.609300      -288.6937
  13   2.0000     -10.607206      -288.6367
  14   2.0000     -10.597769      -288.3799
  15   2.0000     -10.590311      -288.1770
  16   2.0000     -10.547571      -287.0140
  17   2.0000     -10.547266      -287.0057
  18   2.0000     -10.537139      -286.7301
  19   2.0000      -8.399176      -228.5532
  20   2.0000      -6.288976      -171.1317
  21   2.0000      -6.285514      -171.0375
  22   2.0000      -6.284259      -171.0034
  23   2.0000      -4.015405      -109.2647
  24   2.0000      -2.332075       -63.4590
  25   2.0000      -2.299971       -62.5854
  26   2.0000      -2.297549       -62.5195
  27   2.0000      -1.307710       -35.5846
  28   2.0000      -1.218988       -33.1704
  29   2.0000      -1.189417       -32.3657
  30   2.0000      -1.163141       -31.6507
  31   2.0000      -1.111383       -30.2423
  32   2.0000      -1.013484       -27.5783
  33   2.0000      -0.977031       -26.5864
  34   2.0000      -0.961285       -26.1579
  35   2.0000      -0.956908       -26.0388
  36   2.0000      -0.947951       -25.7951
  37   2.0000      -0.923353       -25.1257
  38   2.0000      -0.891729       -24.2652
  39   2.0000      -0.859641       -23.3920
  40   2.0000      -0.790311       -21.5055
  41   2.0000      -0.776557       -21.1312
  42   2.0000      -0.775526       -21.1031
  43   2.0000      -0.769204       -20.9311
  44   2.0000      -0.761666       -20.7260
  45   2.0000      -0.761475       -20.7208
  46   2.0000      -0.729456       -19.8495
  47   2.0000      -0.707966       -19.2647
  48   2.0000      -0.684402       -18.6235
  49   2.0000      -0.675171       -18.3723
  50   2.0000      -0.652633       -17.7591
  51   2.0000      -0.648584       -17.6489
  52   2.0000      -0.640064       -17.4170
  53   2.0000      -0.635742       -17.2994
  54   2.0000      -0.627926       -17.0867
  55   2.0000      -0.625057       -17.0087
  56   2.0000      -0.614902       -16.7323
  57   2.0000      -0.598916       -16.2973
  58   2.0000      -0.598516       -16.2865
  59   2.0000      -0.596004       -16.2181
  60   2.0000      -0.588517       -16.0144
  61   2.0000      -0.581252       -15.8167
  62   2.0000      -0.566843       -15.4246
  63   2.0000      -0.563621       -15.3369
  64   2.0000      -0.553643       -15.0654
  65   2.0000      -0.549428       -14.9507
  66   2.0000      -0.544873       -14.8267
  67   2.0000      -0.539008       -14.6671
  68   2.0000      -0.532494       -14.4899
  69   2.0000      -0.521077       -14.1792
  70   2.0000      -0.517858       -14.0916
  71   2.0000      -0.510438       -13.8897
  72   2.0000      -0.508044       -13.8246
  73   2.0000      -0.492184       -13.3930
  74   2.0000      -0.490819       -13.3559
  75   2.0000      -0.467510       -12.7216
  76   2.0000      -0.462630       -12.5888
  77   2.0000      -0.441661       -12.0182
  78   2.0000      -0.440487       -11.9863
  79   2.0000      -0.418428       -11.3860
  80   2.0000      -0.412115       -11.2142
  81   2.0000      -0.394663       -10.7393
  82   0.0000      -0.208397        -5.6708
  83   0.0000      -0.165497        -4.5034
  84   0.0000      -0.151164        -4.1134
  85   0.0000      -0.082562        -2.2466
  86   0.0000      -0.080514        -2.1909

MULLIKEN ATOMIC CHARGES
-----------------------
   0 Ir:    0.620617
   1 C :   -0.185083
   2 C :   -0.268810
   3 C :   -0.227562
   4 C :   -0.288196
   5 C :   -0.181109
   6 N :   -0.462922
   7 C :   -0.109491
   8 C :   -0.634784
   9 H :    0.244611
  10 H :    0.225469
  11 H :    0.271427
  12 C :   -0.686648
  13 H :    0.255868
  14 H :    0.265855
  15 H :    0.230811
  16 H :    0.249510
  17 C :    0.094967
  18 C :   -0.154769
  19 H :    0.272256
  20 C :   -0.432319
  21 C :   -0.171226
  22 S :    0.337807
  23 C :   -0.399593
  24 H :    0.454129
  25 H :    0.264165
  26 H :    0.298883
  27 H :    0.282859
  28 H :    0.283767
  29 H :    0.285511
  30 O :   -0.505723
  31 O :   -0.512191
  32 C :    0.648044
  33 C :   -0.730918
  34 H :    0.268064
  35 H :    0.270522
  36 H :    0.263788
  37 H :    0.283341
  38 H :    0.279076
Sum of atomic charges:    1.0000000

LOEWDIN ATOMIC CHARGES
----------------------
   0 Ir:   -0.229202
   1 C :   -0.020676
   2 C :   -0.070984
   3 C :   -0.046427
   4 C :   -0.089393
   5 C :   -0.048182
   6 N :   -0.019700
   7 C :   -0.056021
   8 C :   -0.350756
   9 H :    0.145646
  10 H :    0.136256
  11 H :    0.151480
  12 C :   -0.364228
  13 H :    0.142803
  14 H :    0.155765
  15 H :    0.134496
  16 H :    0.140279
  17 C :    0.027504
  18 C :   -0.200166
  19 H :    0.152401
  20 C :   -0.228526
  21 C :   -0.147110
  22 S :    0.482666
  23 C :   -0.268752
  24 H :    0.386198
  25 H :    0.156502
  26 H :    0.171320
  27 H :    0.180643
  28 H :    0.182414
  29 H :    0.182840
  30 O :   -0.268644
  31 O :   -0.201987
  32 C :    0.209801
  33 C :   -0.373850
  34 H :    0.162222
  35 H :    0.166573
  36 H :    0.152985
  37 H :    0.183179
  38 H :    0.180632

  Mayer bond orders larger than 0.100000
B(  0-Ir,  1-C ) :   0.3469 B(  0-Ir,  2-C ) :   0.4453 B(  0-Ir,  3-C ) :   0.4534
B(  0-Ir,  4-C ) :   0.4722 B(  0-Ir,  5-C ) :   0.4113 B(  0-Ir,  6-N ) :   0.4929
B(  0-Ir, 20-C ) :   0.4073 B(  0-Ir, 31-O ) :   0.5344 B(  1-C ,  2-C ) :   1.2086
B(  1-C ,  4-C ) :   1.2255 B(  1-C , 27-H ) :   0.9164 B(  2-C ,  5-C ) :   1.1313
B(  2-C , 28-H ) :   0.9154 B(  3-C ,  4-C ) :   1.1064 B(  3-C ,  5-C ) :   1.2360
B(  3-C , 37-H ) :   0.9144 B(  4-C , 38-H ) :   0.9195 B(  5-C , 29-H ) :   0.9144
B(  6-N ,  7-C ) :   0.8767 B(  6-N , 17-C ) :   1.6381 B(  7-C ,  8-C ) :   0.9823
B(  7-C , 12-C ) :   0.9932 B(  7-C , 13-H ) :   0.8915 B(  8-C ,  9-H ) :   0.9063
B(  8-C , 10-H ) :   0.9184 B(  8-C , 11-H ) :   0.9001 B( 12-C , 14-H ) :   0.9046
B( 12-C , 15-H ) :   0.9114 B( 12-C , 16-H ) :   0.9138 B( 17-C , 18-C ) :   1.1080
B( 17-C , 19-H ) :   0.8797 B( 18-C , 20-C ) :   1.2565 B( 18-C , 22-S ) :   1.2171
B( 20-C , 21-C ) :   1.2633 B( 20-C , 24-H ) :   0.3600 B( 21-C , 23-C ) :   1.5370
B( 21-C , 25-H ) :   0.9015 B( 22-S , 23-C ) :   1.2224 B( 23-C , 26-H ) :   0.8878
B( 24-H , 30-O ) :   0.3171 B( 30-O , 32-C ) :   1.5321 B( 31-O , 32-C ) :   1.3671
B( 32-C , 33-C ) :   0.9359 B( 33-C , 34-H ) :   0.8999 B( 33-C , 35-H ) :   0.8971
B( 33-C , 36-H ) :   0.9052

Dispersion correction           -0.029675822
FINAL SINGLE POINT ENERGY     -1288.332735107708
Dispersion correction            ... done

DIPOLE MOMENT
-------------
                                X             Y             Z
Electronic contribution:     32.84183     -75.20693      91.19532
Nuclear contribution   :    -33.28195      74.50761     -91.47660
                        -----------------------------------------
Total Dipole Moment    :     -0.44012      -0.69933      -0.28129
                        -----------------------------------------
Magnitude (a.u.)       :      0.87286
Magnitude (Debye)      :      2.21863

Rotational constants in cm-1:     0.010410     0.007954     0.007463
Rotational constants in MHz :   312.091561   238.442633   223.739481

                             ****ORCA TERMINATED NORMALLY****
TOTAL RUN TIME: 0 days 0 hours 18 minutes 11 seconds 445 msec
