                         Program Version 5.0.3 -  RELEASE  -
|  1> ! EnGrad PBEh-3c
|  2> %output
|  3> xyzfile=True
|  4> end
|  5> %scf
|  6> maxiter 250
|  7> end
|  8> %output
|  9> Print[P_Hirshfeld] = 1
| 10> end
| 11> % maxcore
| 12> 4000
| 13> *xyz 1 1
| 14> Ir   0.62693665  -0.74723132   0.58957399
| 15> C    0.00276436  -2.91072403   1.28099228
| 16> C    0.31618926  -2.13796579   2.39638087
| 17> C    2.15321083  -2.20620059   1.05322257
| 18> C    1.06723677  -2.86152150   0.36226302
| 19> C    1.70010369  -1.73208989   2.26919786
| 20> N   -1.08251431  -0.10869857  -0.52225505
| 21> C   -2.49794984  -0.08632757   0.04153112
| 22> C   -2.83443422   1.25265455   0.69278877
| 23> H   -3.87391437   1.19166734   1.02097251
| 24> H   -2.75425209   2.08452948  -0.00690983
| 25> H   -2.20932961   1.44811643   1.55837062
| 26> C   -3.51139990  -0.44828254  -1.03480056
| 27> H   -2.49028483  -0.86885360   0.79958776
| 28> H   -4.46256933  -0.58221074  -0.52522665
| 29> H   -3.67728456   0.33310206  -1.77799189
| 30> H   -3.27395398  -1.38438164  -1.53757357
| 31> C   -0.83754286   0.25103379  -1.73133549
| 32> C    0.51721301   0.17144488  -2.25217072
| 33> H   -1.67722989   0.54584644  -2.35490474
| 34> C    1.66526401   0.08585053  -1.41740294
| 35> C    2.74724070  -0.13385860  -2.43054816
| 36> S    0.73146562   0.26771208  -3.98611284
| 37> C    2.41082522  -0.01404419  -3.76556177
| 38> H    1.94680513   1.11923654  -0.53499995
| 39> H    3.79184898  -0.26345533  -2.17008480
| 40> H    3.07790084  -0.02432581  -4.64136980
| 41> H   -0.90718406  -3.49789490   1.12935925
| 42> H   -0.26921610  -2.06733970   3.30412557
| 43> H    2.28579930  -1.26823980   3.05313142
| 44> O    2.02453129   2.04453243   0.21687229
| 45> O    0.32063124   1.12603185   1.51365412
| 46> C    1.16524559   2.04820339   1.14966743
| 47> C    0.90290259   3.42314530   1.90505263
| 48> H    0.86577490   4.25309845   1.18333697
| 49> H    1.76314214   3.64065906   2.54623534
| 50> H    0.00140466   3.49639995   2.54258657
| 51> H    3.14498845  -2.04002821   0.64689664
| 52> H    1.12633516  -3.40132186  -0.56106380
| 53> *
| 54>
| 55>                          ****END OF INPUT****

CARTESIAN COORDINATES (ANGSTROEM)
---------------------------------
  Ir     0.626937   -0.747231    0.589574
  C      0.002764   -2.910724    1.280992
  C      0.316189   -2.137966    2.396381
  C      2.153211   -2.206201    1.053223
  C      1.067237   -2.861521    0.362263
  C      1.700104   -1.732090    2.269198
  N     -1.082514   -0.108699   -0.522255
  C     -2.497950   -0.086328    0.041531
  C     -2.834434    1.252655    0.692789
  H     -3.873914    1.191667    1.020973
  H     -2.754252    2.084529   -0.006910
  H     -2.209330    1.448116    1.558371
  C     -3.511400   -0.448283   -1.034801
  H     -2.490285   -0.868854    0.799588
  H     -4.462569   -0.582211   -0.525227
  H     -3.677285    0.333102   -1.777992
  H     -3.273954   -1.384382   -1.537574
  C     -0.837543    0.251034   -1.731335
  C      0.517213    0.171445   -2.252171
  H     -1.677230    0.545846   -2.354905
  C      1.665264    0.085851   -1.417403
  C      2.747241   -0.133859   -2.430548
  S      0.731466    0.267712   -3.986113
  C      2.410825   -0.014044   -3.765562
  H      1.946805    1.119237   -0.535000
  H      3.791849   -0.263455   -2.170085
  H      3.077901   -0.024326   -4.641370
  H     -0.907184   -3.497895    1.129359
  H     -0.269216   -2.067340    3.304126
  H      2.285799   -1.268240    3.053131
  O      2.024531    2.044532    0.216872
  O      0.320631    1.126032    1.513654
  C      1.165246    2.048203    1.149667
  C      0.902903    3.423145    1.905053
  H      0.865775    4.253098    1.183337
  H      1.763142    3.640659    2.546235
  H      0.001405    3.496400    2.542587
  H      3.144988   -2.040028    0.646897
  H      1.126335   -3.401322   -0.561064

 Total Charge           Charge          ....    1
 Multiplicity           Mult            ....    1
 Number of Electrons    NEL             ....  164
 Basis Dimension        Dim             ....  358

ORBITAL ENERGIES
----------------

  NO   OCC          E(Eh)            E(eV)
   0   2.0000     -89.752255     -2442.2830
   1   2.0000     -19.651578      -534.7466
   2   2.0000     -19.650104      -534.7065
   3   2.0000     -14.826583      -403.4518
   4   2.0000     -10.724625      -291.8319
   5   2.0000     -10.647753      -289.7401
   6   2.0000     -10.633786      -289.3600
   7   2.0000     -10.623616      -289.0833
   8   2.0000     -10.621737      -289.0322
   9   2.0000     -10.619993      -288.9847
  10   2.0000     -10.618715      -288.9499
  11   2.0000     -10.615343      -288.8582
  12   2.0000     -10.609263      -288.6927
  13   2.0000     -10.604467      -288.5622
  14   2.0000     -10.595274      -288.3121
  15   2.0000     -10.586878      -288.0836
  16   2.0000     -10.556800      -287.2651
  17   2.0000     -10.549270      -287.0602
  18   2.0000     -10.542122      -286.8657
  19   2.0000      -8.391039      -228.3318
  20   2.0000      -6.280992      -170.9145
  21   2.0000      -6.277557      -170.8210
  22   2.0000      -6.275777      -170.7726
  23   2.0000      -4.015837      -109.2765
  24   2.0000      -2.331366       -63.4397
  25   2.0000      -2.300372       -62.5963
  26   2.0000      -2.298822       -62.5541
  27   2.0000      -1.328387       -36.1472
  28   2.0000      -1.241842       -33.7922
  29   2.0000      -1.186055       -32.2742
  30   2.0000      -1.164946       -31.6998
  31   2.0000      -1.099490       -29.9187
  32   2.0000      -1.011436       -27.5226
  33   2.0000      -0.977414       -26.5968
  34   2.0000      -0.961599       -26.1664
  35   2.0000      -0.947192       -25.7744
  36   2.0000      -0.946288       -25.7498
  37   2.0000      -0.924647       -25.1609
  38   2.0000      -0.892641       -24.2900
  39   2.0000      -0.854310       -23.2470
  40   2.0000      -0.795127       -21.6365
  41   2.0000      -0.780242       -21.2315
  42   2.0000      -0.776015       -21.1164
  43   2.0000      -0.775855       -21.1121
  44   2.0000      -0.763085       -20.7646
  45   2.0000      -0.759004       -20.6535
  46   2.0000      -0.735702       -20.0195
  47   2.0000      -0.714472       -19.4418
  48   2.0000      -0.682950       -18.5840
  49   2.0000      -0.675570       -18.3832
  50   2.0000      -0.663191       -18.0463
  51   2.0000      -0.646624       -17.5955
  52   2.0000      -0.645123       -17.5547
  53   2.0000      -0.634585       -17.2679
  54   2.0000      -0.630167       -17.1477
  55   2.0000      -0.622903       -16.9501
  56   2.0000      -0.612466       -16.6660
  57   2.0000      -0.598465       -16.2851
  58   2.0000      -0.597096       -16.2478
  59   2.0000      -0.591552       -16.0969
  60   2.0000      -0.584773       -15.9125
  61   2.0000      -0.579853       -15.7786
  62   2.0000      -0.567761       -15.4496
  63   2.0000      -0.565313       -15.3829
  64   2.0000      -0.557037       -15.1578
  65   2.0000      -0.552260       -15.0278
  66   2.0000      -0.551116       -14.9966
  67   2.0000      -0.535819       -14.5804
  68   2.0000      -0.534599       -14.5472
  69   2.0000      -0.526360       -14.3230
  70   2.0000      -0.523140       -14.2354
  71   2.0000      -0.518936       -14.1210
  72   2.0000      -0.512557       -13.9474
  73   2.0000      -0.499016       -13.5789
  74   2.0000      -0.489956       -13.3324
  75   2.0000      -0.475250       -12.9322
  76   2.0000      -0.469513       -12.7761
  77   2.0000      -0.449640       -12.2353
  78   2.0000      -0.438741       -11.9387
  79   2.0000      -0.420424       -11.4403
  80   2.0000      -0.408063       -11.1039
  81   2.0000      -0.393215       -10.6999
  82   0.0000      -0.204877        -5.5750
  83   0.0000      -0.168363        -4.5814
  84   0.0000      -0.149409        -4.0656
  85   0.0000      -0.092370        -2.5135
  86   0.0000      -0.080160        -2.1813

MULLIKEN ATOMIC CHARGES
-----------------------
   0 Ir:    0.603838
   1 C :   -0.126139
   2 C :   -0.275844
   3 C :   -0.192399
   4 C :   -0.344719
   5 C :   -0.222843
   6 N :   -0.445231
   7 C :   -0.107815
   8 C :   -0.633283
   9 H :    0.244756
  10 H :    0.228296
  11 H :    0.267137
  12 C :   -0.685999
  13 H :    0.251318
  14 H :    0.266249
  15 H :    0.232675
  16 H :    0.250928
  17 C :    0.082126
  18 C :   -0.162287
  19 H :    0.272733
  20 C :   -0.449963
  21 C :   -0.182012
  22 S :    0.310088
  23 C :   -0.384418
  24 H :    0.505127
  25 H :    0.254331
  26 H :    0.296536
  27 H :    0.284824
  28 H :    0.282832
  29 H :    0.287967
  30 O :   -0.507390
  31 O :   -0.488243
  32 C :    0.636943
  33 C :   -0.735573
  34 H :    0.269861
  35 H :    0.270500
  36 H :    0.266847
  37 H :    0.293886
  38 H :    0.284362
Sum of atomic charges:    1.0000000

LOEWDIN ATOMIC CHARGES
----------------------
   0 Ir:   -0.232728
   1 C :   -0.006544
   2 C :   -0.076355
   3 C :   -0.045522
   4 C :   -0.105078
   5 C :   -0.058780
   6 N :   -0.028366
   7 C :   -0.050102
   8 C :   -0.351091
   9 H :    0.146280
  10 H :    0.137675
  11 H :    0.150105
  12 C :   -0.365152
  13 H :    0.141483
  14 H :    0.154412
  15 H :    0.135793
  16 H :    0.141723
  17 C :    0.021905
  18 C :   -0.181802
  19 H :    0.153661
  20 C :   -0.221597
  21 C :   -0.138825
  22 S :    0.452642
  23 C :   -0.268402
  24 H :    0.357830
  25 H :    0.152638
  26 H :    0.171372
  27 H :    0.181114
  28 H :    0.180982
  29 H :    0.185727
  30 O :   -0.252788
  31 O :   -0.183655
  32 C :    0.228582
  33 C :   -0.377869
  34 H :    0.162407
  35 H :    0.164049
  36 H :    0.156492
  37 H :    0.185731
  38 H :    0.182051

  Mayer bond orders larger than 0.100000
B(  0-Ir,  1-C ) :   0.3004 B(  0-Ir,  2-C ) :   0.4017 B(  0-Ir,  3-C ) :   0.4267
B(  0-Ir,  4-C ) :   0.4759 B(  0-Ir,  5-C ) :   0.4235 B(  0-Ir,  6-N ) :   0.4946
B(  0-Ir, 20-C ) :   0.4130 B(  0-Ir, 31-O ) :   0.5146 B(  1-C ,  2-C ) :   1.2450
B(  1-C ,  4-C ) :   1.2050 B(  1-C , 27-H ) :   0.9097 B(  2-C ,  5-C ) :   1.1252
B(  2-C , 28-H ) :   0.9178 B(  3-C ,  4-C ) :   1.1241 B(  3-C ,  5-C ) :   1.2392
B(  3-C , 37-H ) :   0.9007 B(  4-C , 38-H ) :   0.9161 B(  5-C , 29-H ) :   0.9134
B(  6-N ,  7-C ) :   0.8682 B(  6-N , 17-C ) :   1.6510 B(  7-C ,  8-C ) :   0.9795
B(  7-C , 12-C ) :   0.9896 B(  7-C , 13-H ) :   0.8940 B(  8-C ,  9-H ) :   0.9058
B(  8-C , 10-H ) :   0.9175 B(  8-C , 11-H ) :   0.9029 B( 12-C , 14-H ) :   0.9035
B( 12-C , 15-H ) :   0.9105 B( 12-C , 16-H ) :   0.9138 B( 17-C , 18-C ) :   1.0950
B( 17-C , 19-H ) :   0.8778 B( 18-C , 20-C ) :   1.2894 B( 18-C , 22-S ) :   1.2077
B( 20-C , 21-C ) :   1.2498 B( 20-C , 24-H ) :   0.3151 B( 21-C , 23-C ) :   1.5780
B( 21-C , 25-H ) :   0.9065 B( 22-S , 23-C ) :   1.1894 B( 23-C , 26-H ) :   0.8870
B( 24-H , 30-O ) :   0.3509 B( 30-O , 32-C ) :   1.4927 B( 31-O , 32-C ) :   1.4062
B( 32-C , 33-C ) :   0.9306 B( 33-C , 34-H ) :   0.8977 B( 33-C , 35-H ) :   0.8953
B( 33-C , 36-H ) :   0.9062

Dispersion correction           -0.029274612
FINAL SINGLE POINT ENERGY     -1288.346068552268
Dispersion correction            ... done

DIPOLE MOMENT
-------------
                                X             Y             Z
Electronic contribution:     38.92872     -73.67242      86.83479
Nuclear contribution   :    -39.59968      73.07544     -86.74519
                        -----------------------------------------
Total Dipole Moment    :     -0.67096      -0.59698       0.08960
                        -----------------------------------------
Magnitude (a.u.)       :      0.90256
Magnitude (Debye)      :      2.29412

Rotational constants in cm-1:     0.010420     0.008089     0.007536
Rotational constants in MHz :   312.393636   242.513795   225.935488

                             ****ORCA TERMINATED NORMALLY****
TOTAL RUN TIME: 0 days 0 hours 15 minutes 11 seconds 242 msec
