                         Program Version 5.0.3 -  RELEASE  -
|  1> ! EnGrad PBEh-3c
|  2> %output
|  3> xyzfile=True
|  4> end
|  5> %scf
|  6> maxiter 250
|  7> end
|  8> %output
|  9> Print[P_Hirshfeld] = 1
| 10> end
| 11> % maxcore
| 12> 4000
| 13> *xyz 1 1
| 14> Ir   0.58144871  -0.75471021   0.62233629
| 15> C   -0.00026605  -2.89777728   1.24729821
| 16> C    0.28936347  -2.15172672   2.39522638
| 17> C    2.14764524  -2.15404173   1.06042174
| 18> C    1.08570891  -2.84789832   0.36173497
| 19> C    1.67171552  -1.74005231   2.28922774
| 20> N   -1.07941210  -0.10301476  -0.50433688
| 21> C   -2.49473499  -0.08600135   0.03277578
| 22> C   -2.83593722   1.23082330   0.70948178
| 23> H   -3.87312239   1.18625030   1.05176450
| 24> H   -2.75405057   2.06591179   0.01836023
| 25> H   -2.21822437   1.40518897   1.58154455
| 26> C   -3.52049586  -0.43718770  -1.03191342
| 27> H   -2.50424672  -0.86631253   0.77787963
| 28> H   -4.48084264  -0.58041786  -0.52691485
| 29> H   -3.68055278   0.35159747  -1.76491808
| 30> H   -3.28868651  -1.36691086  -1.54315080
| 31> C   -0.83774452   0.24596662  -1.71946324
| 32> C    0.49681448   0.18376247  -2.28167742
| 33> H   -1.66254493   0.53727317  -2.34785673
| 34> C    1.65134263   0.00785643  -1.47837648
| 35> C    2.75348911  -0.15186019  -2.45332145
| 36> S    0.74457297   0.27577868  -3.99552120
| 37> C    2.41919987   0.00518299  -3.77825666
| 38> H    2.07258226   1.15689416  -0.67780309
| 39> H    3.79073599  -0.26977622  -2.16879643
| 40> H    3.08976787  -0.02612788  -4.63610886
| 41> H   -0.85474757  -3.54611254   1.11062044
| 42> H   -0.30958103  -2.08670099   3.29616772
| 43> H    2.23843282  -1.29983753   3.08685804
| 44> O    2.02549881   2.05450826   0.27672377
| 45> O    0.31234224   1.13512346   1.52009469
| 46> C    1.13230767   2.08626241   1.16197134
| 47> C    0.90254691   3.45515020   1.90520063
| 48> H    0.87007646   4.26672531   1.17445363
| 49> H    1.77430794   3.65562202   2.53583404
| 50> H    0.01354018   3.50660183   2.53587069
| 51> H    3.15757657  -2.03249596   0.70492692
| 52> H    1.17248200  -3.41422741  -0.54505010
| 53> *
| 54>
| 55>                          ****END OF INPUT****

CARTESIAN COORDINATES (ANGSTROEM)
---------------------------------
  Ir     0.581449   -0.754710    0.622336
  C     -0.000266   -2.897777    1.247298
  C      0.289363   -2.151727    2.395226
  C      2.147645   -2.154042    1.060422
  C      1.085709   -2.847898    0.361735
  C      1.671716   -1.740052    2.289228
  N     -1.079412   -0.103015   -0.504337
  C     -2.494735   -0.086001    0.032776
  C     -2.835937    1.230823    0.709482
  H     -3.873122    1.186250    1.051764
  H     -2.754051    2.065912    0.018360
  H     -2.218224    1.405189    1.581545
  C     -3.520496   -0.437188   -1.031913
  H     -2.504247   -0.866313    0.777880
  H     -4.480843   -0.580418   -0.526915
  H     -3.680553    0.351597   -1.764918
  H     -3.288687   -1.366911   -1.543151
  C     -0.837745    0.245967   -1.719463
  C      0.496814    0.183762   -2.281677
  H     -1.662545    0.537273   -2.347857
  C      1.651343    0.007856   -1.478376
  C      2.753489   -0.151860   -2.453321
  S      0.744573    0.275779   -3.995521
  C      2.419200    0.005183   -3.778257
  H      2.072582    1.156894   -0.677803
  H      3.790736   -0.269776   -2.168796
  H      3.089768   -0.026128   -4.636109
  H     -0.854748   -3.546113    1.110620
  H     -0.309581   -2.086701    3.296168
  H      2.238433   -1.299838    3.086858
  O      2.025499    2.054508    0.276724
  O      0.312342    1.135123    1.520095
  C      1.132308    2.086262    1.161971
  C      0.902547    3.455150    1.905201
  H      0.870076    4.266725    1.174454
  H      1.774308    3.655622    2.535834
  H      0.013540    3.506602    2.535871
  H      3.157577   -2.032496    0.704927
  H      1.172482   -3.414227   -0.545050

 Total Charge           Charge          ....    1
 Multiplicity           Mult            ....    1
 Number of Electrons    NEL             ....  164
 Basis Dimension        Dim             ....  358

ORBITAL ENERGIES
----------------

  NO   OCC          E(Eh)            E(eV)
   0   2.0000     -89.757389     -2442.4227
   1   2.0000     -19.640690      -534.4503
   2   2.0000     -19.637145      -534.3539
   3   2.0000     -14.828775      -403.5115
   4   2.0000     -10.714096      -291.5454
   5   2.0000     -10.648804      -289.7687
   6   2.0000     -10.630094      -289.2596
   7   2.0000     -10.623991      -289.0935
   8   2.0000     -10.621003      -289.0122
   9   2.0000     -10.617867      -288.9268
  10   2.0000     -10.617031      -288.9041
  11   2.0000     -10.611234      -288.7464
  12   2.0000     -10.609122      -288.6889
  13   2.0000     -10.606080      -288.6061
  14   2.0000     -10.596087      -288.3342
  15   2.0000     -10.588692      -288.1329
  16   2.0000     -10.550539      -287.0948
  17   2.0000     -10.548103      -287.0285
  18   2.0000     -10.538734      -286.7735
  19   2.0000      -8.396320      -228.4755
  20   2.0000      -6.286175      -171.0555
  21   2.0000      -6.282717      -170.9614
  22   2.0000      -6.281288      -170.9225
  23   2.0000      -4.015454      -109.2661
  24   2.0000      -2.331726       -63.4495
  25   2.0000      -2.299951       -62.5849
  26   2.0000      -2.297914       -62.5294
  27   2.0000      -1.314424       -35.7673
  28   2.0000      -1.226620       -33.3780
  29   2.0000      -1.188342       -32.3364
  30   2.0000      -1.163923       -31.6719
  31   2.0000      -1.107361       -30.1328
  32   2.0000      -1.012799       -27.5597
  33   2.0000      -0.977351       -26.5951
  34   2.0000      -0.961439       -26.1621
  35   2.0000      -0.953363       -25.9423
  36   2.0000      -0.947415       -25.7805
  37   2.0000      -0.923994       -25.1431
  38   2.0000      -0.892009       -24.2728
  39   2.0000      -0.857813       -23.3423
  40   2.0000      -0.789706       -21.4890
  41   2.0000      -0.776697       -21.1350
  42   2.0000      -0.775928       -21.1141
  43   2.0000      -0.771183       -20.9850
  44   2.0000      -0.766089       -20.8463
  45   2.0000      -0.761191       -20.7131
  46   2.0000      -0.730372       -19.8744
  47   2.0000      -0.711422       -19.3588
  48   2.0000      -0.684167       -18.6171
  49   2.0000      -0.674725       -18.3602
  50   2.0000      -0.655281       -17.8311
  51   2.0000      -0.648517       -17.6470
  52   2.0000      -0.641402       -17.4534
  53   2.0000      -0.636183       -17.3114
  54   2.0000      -0.628809       -17.1108
  55   2.0000      -0.624483       -16.9931
  56   2.0000      -0.614168       -16.7124
  57   2.0000      -0.598727       -16.2922
  58   2.0000      -0.596691       -16.2368
  59   2.0000      -0.596297       -16.2261
  60   2.0000      -0.587679       -15.9915
  61   2.0000      -0.580521       -15.7968
  62   2.0000      -0.567172       -15.4335
  63   2.0000      -0.563045       -15.3212
  64   2.0000      -0.553374       -15.0581
  65   2.0000      -0.551185       -14.9985
  66   2.0000      -0.546382       -14.8678
  67   2.0000      -0.538838       -14.6625
  68   2.0000      -0.532829       -14.4990
  69   2.0000      -0.523754       -14.2521
  70   2.0000      -0.520827       -14.1724
  71   2.0000      -0.513206       -13.9651
  72   2.0000      -0.509706       -13.8698
  73   2.0000      -0.495458       -13.4821
  74   2.0000      -0.490367       -13.3436
  75   2.0000      -0.470107       -12.7923
  76   2.0000      -0.465060       -12.6549
  77   2.0000      -0.444300       -12.0900
  78   2.0000      -0.440148       -11.9770
  79   2.0000      -0.418557       -11.3895
  80   2.0000      -0.411495       -11.1974
  81   2.0000      -0.394681       -10.7398
  82   0.0000      -0.206980        -5.6322
  83   0.0000      -0.165458        -4.5023
  84   0.0000      -0.151172        -4.1136
  85   0.0000      -0.083190        -2.2637
  86   0.0000      -0.080544        -2.1917

MULLIKEN ATOMIC CHARGES
-----------------------
   0 Ir:    0.617083
   1 C :   -0.164420
   2 C :   -0.271474
   3 C :   -0.215673
   4 C :   -0.307458
   5 C :   -0.194204
   6 N :   -0.457209
   7 C :   -0.108750
   8 C :   -0.634309
   9 H :    0.244656
  10 H :    0.226344
  11 H :    0.270005
  12 C :   -0.686464
  13 H :    0.254296
  14 H :    0.265977
  15 H :    0.231418
  16 H :    0.249972
  17 C :    0.090461
  18 C :   -0.155182
  19 H :    0.272433
  20 C :   -0.446378
  21 C :   -0.171923
  22 S :    0.328822
  23 C :   -0.395015
  24 H :    0.470969
  25 H :    0.260684
  26 H :    0.298053
  27 H :    0.283491
  28 H :    0.283312
  29 H :    0.286186
  30 O :   -0.508423
  31 O :   -0.504473
  32 C :    0.648030
  33 C :   -0.732385
  34 H :    0.268809
  35 H :    0.270538
  36 H :    0.265054
  37 H :    0.286742
  38 H :    0.280402
Sum of atomic charges:    1.0000000

LOEWDIN ATOMIC CHARGES
----------------------
   0 Ir:   -0.229328
   1 C :   -0.015261
   2 C :   -0.073009
   3 C :   -0.046067
   4 C :   -0.094986
   5 C :   -0.051525
   6 N :   -0.022329
   7 C :   -0.054035
   8 C :   -0.350844
   9 H :    0.145831
  10 H :    0.136697
  11 H :    0.151009
  12 C :   -0.364529
  13 H :    0.142312
  14 H :    0.155319
  15 H :    0.134916
  16 H :    0.140746
  17 C :    0.025788
  18 C :   -0.193351
  19 H :    0.152753
  20 C :   -0.230833
  21 C :   -0.143176
  22 S :    0.472545
  23 C :   -0.268402
  24 H :    0.378437
  25 H :    0.155127
  26 H :    0.171243
  27 H :    0.180662
  28 H :    0.181933
  29 H :    0.183749
  30 O :   -0.263901
  31 O :   -0.195797
  32 C :    0.216099
  33 C :   -0.374934
  34 H :    0.162340
  35 H :    0.165806
  36 H :    0.154206
  37 H :    0.183797
  38 H :    0.180993

  Mayer bond orders larger than 0.100000
B(  0-Ir,  1-C ) :   0.3317 B(  0-Ir,  2-C ) :   0.4313 B(  0-Ir,  3-C ) :   0.4444
B(  0-Ir,  4-C ) :   0.4731 B(  0-Ir,  5-C ) :   0.4151 B(  0-Ir,  6-N ) :   0.4934
B(  0-Ir, 20-C ) :   0.4074 B(  0-Ir, 31-O ) :   0.5280 B(  1-C ,  2-C ) :   1.2204
B(  1-C ,  4-C ) :   1.2197 B(  1-C , 27-H ) :   0.9143 B(  2-C ,  5-C ) :   1.1299
B(  2-C , 28-H ) :   0.9163 B(  3-C ,  4-C ) :   1.1130 B(  3-C ,  5-C ) :   1.2375
B(  3-C , 37-H ) :   0.9101 B(  4-C , 38-H ) :   0.9188 B(  5-C , 29-H ) :   0.9142
B(  6-N ,  7-C ) :   0.8740 B(  6-N , 17-C ) :   1.6421 B(  7-C ,  8-C ) :   0.9814
B(  7-C , 12-C ) :   0.9921 B(  7-C , 13-H ) :   0.8924 B(  8-C ,  9-H ) :   0.9061
B(  8-C , 10-H ) :   0.9181 B(  8-C , 11-H ) :   0.9010 B( 12-C , 14-H ) :   0.9043
B( 12-C , 15-H ) :   0.9111 B( 12-C , 16-H ) :   0.9138 B( 17-C , 18-C ) :   1.1044
B( 17-C , 19-H ) :   0.8792 B( 18-C , 20-C ) :   1.2676 B( 18-C , 22-S ) :   1.2147
B( 20-C , 21-C ) :   1.2586 B( 20-C , 24-H ) :   0.3454 B( 21-C , 23-C ) :   1.5528
B( 21-C , 25-H ) :   0.9034 B( 22-S , 23-C ) :   1.2104 B( 23-C , 26-H ) :   0.8876
B( 24-H , 30-O ) :   0.3327 B( 30-O , 32-C ) :   1.5135 B( 31-O , 32-C ) :   1.3808
B( 32-C , 33-C ) :   0.9344 B( 33-C , 34-H ) :   0.8991 B( 33-C , 35-H ) :   0.8964
B( 33-C , 36-H ) :   0.9054

Dispersion correction           -0.029474610
FINAL SINGLE POINT ENERGY     -1288.344289466149
Dispersion correction            ... done

DIPOLE MOMENT
-------------
                                X             Y             Z
Electronic contribution:     34.82123     -74.70559      89.78394
Nuclear contribution   :    -35.33916      74.04126     -89.93594
                        -----------------------------------------
Total Dipole Moment    :     -0.51792      -0.66433      -0.15200
                        -----------------------------------------
Magnitude (a.u.)       :      0.85597
Magnitude (Debye)      :      2.17570

Rotational constants in cm-1:     0.010414     0.007999     0.007488
Rotational constants in MHz :   312.217106   239.790461   224.478233

                             ****ORCA TERMINATED NORMALLY****
TOTAL RUN TIME: 0 days 0 hours 15 minutes 8 seconds 574 msec
