                         Program Version 5.0.3 -  RELEASE  -
|  1> ! EnGrad PBEh-3c
|  2> %output
|  3> xyzfile=True
|  4> end
|  5> %scf
|  6> maxiter 250
|  7> end
|  8> %output
|  9> Print[P_Hirshfeld] = 1
| 10> end
| 11> % maxcore
| 12> 4000
| 13> *xyz 1 1
| 14> Ir   0.65671356  -0.75052366   0.56709876
| 15> C   -0.01453078  -2.92761407   1.30808716
| 16> C    0.36250629  -2.11492661   2.41361928
| 17> C    2.17429709  -2.26180463   1.00959342
| 18> C    1.04840316  -2.87626654   0.36520399
| 19> C    1.72911671  -1.72045693   2.25691300
| 20> N   -1.07721416  -0.11346507  -0.53280572
| 21> C   -2.48064698  -0.07989115   0.03582344
| 22> C   -2.83379702   1.27371397   0.66803845
| 23> H   -3.87445858   1.20561257   0.98308142
| 24> H   -2.75574168   2.10444132  -0.04510292
| 25> H   -2.20243159   1.50504498   1.52603735
| 26> C   -3.50187144  -0.46506464  -1.03049527
| 27> H   -2.47519990  -0.86264145   0.82499113
| 28> H   -4.44480875  -0.58790499  -0.52433100
| 29> H   -3.66951915   0.30675853  -1.79340823
| 30> H   -3.25380088  -1.40722976  -1.52679574
| 31> C   -0.83741051   0.25056469  -1.73430837
| 32> C    0.52647373   0.17912653  -2.21625905
| 33> H   -1.68478870   0.55617051  -2.36524997
| 34> C    1.66809243   0.14559548  -1.40749617
| 35> C    2.74231296  -0.10421430  -2.39817786
| 36> S    0.72507518   0.24699575  -3.95022246
| 37> C    2.40459268  -0.03291232  -3.74397240
| 38> H    1.81263306   1.08831232  -0.36555070
| 39> H    3.79449248  -0.24991556  -2.17253193
| 40> H    3.05711756  -0.02718320  -4.63577157
| 41> H   -0.96243567  -3.43048218   1.16513158
| 42> H   -0.21267204  -2.03816176   3.31718869
| 43> H    2.34762320  -1.23505987   2.99824311
| 44> O    2.01329880   2.01484419   0.16462814
| 45> O    0.37547147   1.12801865   1.48360792
| 46> C    1.13671763   2.02728127   1.17175193
| 47> C    0.91384344   3.38089084   1.90013009
| 48> H    0.86140308   4.22762350   1.19811522
| 49> H    1.74764889   3.62142182   2.56165182
| 50> H   -0.00598085   3.47302433   2.54288584
| 51> H    3.12303245  -2.06070006   0.57156654
| 52> H    1.06135799  -3.39253838  -0.58265297
| 53> *
| 54>
| 55>                          ****END OF INPUT****

CARTESIAN COORDINATES (ANGSTROEM)
---------------------------------
  Ir     0.656714   -0.750524    0.567099
  C     -0.014531   -2.927614    1.308087
  C      0.362506   -2.114927    2.413619
  C      2.174297   -2.261805    1.009593
  C      1.048403   -2.876267    0.365204
  C      1.729117   -1.720457    2.256913
  N     -1.077214   -0.113465   -0.532806
  C     -2.480647   -0.079891    0.035823
  C     -2.833797    1.273714    0.668038
  H     -3.874459    1.205613    0.983081
  H     -2.755742    2.104441   -0.045103
  H     -2.202432    1.505045    1.526037
  C     -3.501871   -0.465065   -1.030495
  H     -2.475200   -0.862641    0.824991
  H     -4.444809   -0.587905   -0.524331
  H     -3.669519    0.306759   -1.793408
  H     -3.253801   -1.407230   -1.526796
  C     -0.837411    0.250565   -1.734308
  C      0.526474    0.179127   -2.216259
  H     -1.684789    0.556171   -2.365250
  C      1.668092    0.145595   -1.407496
  C      2.742313   -0.104214   -2.398178
  S      0.725075    0.246996   -3.950222
  C      2.404593   -0.032912   -3.743972
  H      1.812633    1.088312   -0.365551
  H      3.794492   -0.249916   -2.172532
  H      3.057118   -0.027183   -4.635772
  H     -0.962436   -3.430482    1.165132
  H     -0.212672   -2.038162    3.317189
  H      2.347623   -1.235060    2.998243
  O      2.013299    2.014844    0.164628
  O      0.375471    1.128019    1.483608
  C      1.136718    2.027281    1.171752
  C      0.913843    3.380891    1.900130
  H      0.861403    4.227623    1.198115
  H      1.747649    3.621422    2.561652
  H     -0.005981    3.473024    2.542886
  H      3.123032   -2.060700    0.571567
  H      1.061358   -3.392538   -0.582653

 Total Charge           Charge          ....    1
 Multiplicity           Mult            ....    1
 Number of Electrons    NEL             ....  164
 Basis Dimension        Dim             ....  358

ORBITAL ENERGIES
----------------

  NO   OCC          E(Eh)            E(eV)
   0   2.0000     -89.741088     -2441.9792
   1   2.0000     -19.669551      -535.2357
   2   2.0000     -19.644389      -534.5510
   3   2.0000     -14.823198      -403.3597
   4   2.0000     -10.728103      -291.9265
   5   2.0000     -10.646392      -289.7031
   6   2.0000     -10.641242      -289.5629
   7   2.0000     -10.626320      -289.1569
   8   2.0000     -10.625800      -289.1427
   9   2.0000     -10.624859      -289.1171
  10   2.0000     -10.618281      -288.9381
  11   2.0000     -10.615313      -288.8574
  12   2.0000     -10.611360      -288.7498
  13   2.0000     -10.599685      -288.4321
  14   2.0000     -10.591411      -288.2069
  15   2.0000     -10.580343      -287.9058
  16   2.0000     -10.562911      -287.4314
  17   2.0000     -10.550182      -287.0851
  18   2.0000     -10.546747      -286.9916
  19   2.0000      -8.380306      -228.0397
  20   2.0000      -6.270270      -170.6227
  21   2.0000      -6.266860      -170.5299
  22   2.0000      -6.264991      -170.4791
  23   2.0000      -4.018967      -109.3616
  24   2.0000      -2.334326       -63.5202
  25   2.0000      -2.304106       -62.6979
  26   2.0000      -2.301476       -62.6263
  27   2.0000      -1.357118       -36.9291
  28   2.0000      -1.258075       -34.2340
  29   2.0000      -1.188280       -32.3347
  30   2.0000      -1.159597       -31.5542
  31   2.0000      -1.096126       -29.8271
  32   2.0000      -1.009945       -27.4820
  33   2.0000      -0.972922       -26.4746
  34   2.0000      -0.966345       -26.2956
  35   2.0000      -0.948470       -25.8092
  36   2.0000      -0.941917       -25.6309
  37   2.0000      -0.934870       -25.4391
  38   2.0000      -0.892660       -24.2905
  39   2.0000      -0.852386       -23.1946
  40   2.0000      -0.796894       -21.6846
  41   2.0000      -0.781103       -21.2549
  42   2.0000      -0.780146       -21.2289
  43   2.0000      -0.778765       -21.1913
  44   2.0000      -0.762532       -20.7495
  45   2.0000      -0.758087       -20.6286
  46   2.0000      -0.749853       -20.4045
  47   2.0000      -0.716054       -19.4848
  48   2.0000      -0.689287       -18.7564
  49   2.0000      -0.679273       -18.4840
  50   2.0000      -0.668855       -18.2005
  51   2.0000      -0.660834       -17.9822
  52   2.0000      -0.642685       -17.4884
  53   2.0000      -0.635542       -17.2940
  54   2.0000      -0.630659       -17.1611
  55   2.0000      -0.625124       -17.0105
  56   2.0000      -0.612391       -16.6640
  57   2.0000      -0.601256       -16.3610
  58   2.0000      -0.599197       -16.3050
  59   2.0000      -0.593479       -16.1494
  60   2.0000      -0.586251       -15.9527
  61   2.0000      -0.581716       -15.8293
  62   2.0000      -0.571678       -15.5562
  63   2.0000      -0.565935       -15.3999
  64   2.0000      -0.561386       -15.2761
  65   2.0000      -0.559966       -15.2374
  66   2.0000      -0.552979       -15.0473
  67   2.0000      -0.536787       -14.6067
  68   2.0000      -0.533684       -14.5223
  69   2.0000      -0.526406       -14.3242
  70   2.0000      -0.520887       -14.1741
  71   2.0000      -0.519796       -14.1444
  72   2.0000      -0.514310       -13.9951
  73   2.0000      -0.499754       -13.5990
  74   2.0000      -0.493652       -13.4330
  75   2.0000      -0.477706       -12.9990
  76   2.0000      -0.472105       -12.8466
  77   2.0000      -0.455072       -12.3831
  78   2.0000      -0.437109       -11.8944
  79   2.0000      -0.420974       -11.4553
  80   2.0000      -0.404074       -10.9954
  81   2.0000      -0.389657       -10.6031
  82   0.0000      -0.197325        -5.3695
  83   0.0000      -0.175407        -4.7731
  84   0.0000      -0.150107        -4.0846
  85   0.0000      -0.096745        -2.6326
  86   0.0000      -0.077749        -2.1157

MULLIKEN ATOMIC CHARGES
-----------------------
   0 Ir:    0.572973
   1 C :   -0.106541
   2 C :   -0.275416
   3 C :   -0.166382
   4 C :   -0.367659
   5 C :   -0.247324
   6 N :   -0.444365
   7 C :   -0.109014
   8 C :   -0.632548
   9 H :    0.247579
  10 H :    0.228351
  11 H :    0.258013
  12 C :   -0.682573
  13 H :    0.243731
  14 H :    0.267524
  15 H :    0.230778
  16 H :    0.250348
  17 C :    0.075878
  18 C :   -0.168058
  19 H :    0.274782
  20 C :   -0.390811
  21 C :   -0.214853
  22 S :    0.287549
  23 C :   -0.377140
  24 H :    0.530726
  25 H :    0.249697
  26 H :    0.294148
  27 H :    0.288084
  28 H :    0.283748
  29 H :    0.289761
  30 O :   -0.552389
  31 O :   -0.423672
  32 C :    0.623103
  33 C :   -0.756470
  34 H :    0.279975
  35 H :    0.280419
  36 H :    0.264151
  37 H :    0.301889
  38 H :    0.292007
Sum of atomic charges:    1.0000000

LOEWDIN ATOMIC CHARGES
----------------------
   0 Ir:   -0.238088
   1 C :    0.000340
   2 C :   -0.077679
   3 C :   -0.038838
   4 C :   -0.106069
   5 C :   -0.062901
   6 N :   -0.038068
   7 C :   -0.052194
   8 C :   -0.352139
   9 H :    0.147499
  10 H :    0.137525
  11 H :    0.145928
  12 C :   -0.364611
  13 H :    0.139018
  14 H :    0.153257
  15 H :    0.135395
  16 H :    0.141936
  17 C :    0.024325
  18 C :   -0.198103
  19 H :    0.155684
  20 C :   -0.190389
  21 C :   -0.146084
  22 S :    0.437058
  23 C :   -0.266130
  24 H :    0.339516
  25 H :    0.151488
  26 H :    0.170425
  27 H :    0.181804
  28 H :    0.179246
  29 H :    0.186089
  30 O :   -0.294190
  31 O :   -0.104593
  32 C :    0.217642
  33 C :   -0.380838
  34 H :    0.168156
  35 H :    0.168860
  36 H :    0.158392
  37 H :    0.187074
  38 H :    0.184259

  Mayer bond orders larger than 0.100000
B(  0-Ir,  1-C ) :   0.2940 B(  0-Ir,  2-C ) :   0.3781 B(  0-Ir,  3-C ) :   0.4200
B(  0-Ir,  4-C ) :   0.4876 B(  0-Ir,  5-C ) :   0.4397 B(  0-Ir,  6-N ) :   0.4903
B(  0-Ir, 20-C ) :   0.4510 B(  0-Ir, 31-O ) :   0.4535 B(  1-C ,  2-C ) :   1.2587
B(  1-C ,  4-C ) :   1.1846 B(  1-C , 27-H ) :   0.9055 B(  2-C ,  5-C ) :   1.1223
B(  2-C , 28-H ) :   0.9180 B(  3-C ,  4-C ) :   1.1331 B(  3-C ,  5-C ) :   1.2252
B(  3-C , 37-H ) :   0.8929 B(  4-C , 38-H ) :   0.9100 B(  5-C , 29-H ) :   0.9129
B(  6-N ,  7-C ) :   0.8758 B(  6-N , 17-C ) :   1.6464 B(  7-C ,  8-C ) :   0.9753
B(  7-C , 12-C ) :   0.9865 B(  7-C , 13-H ) :   0.8964 B(  8-C ,  9-H ) :   0.9058
B(  8-C , 10-H ) :   0.9170 B(  8-C , 11-H ) :   0.9078 B( 12-C , 14-H ) :   0.9030
B( 12-C , 15-H ) :   0.9108 B( 12-C , 16-H ) :   0.9143 B( 17-C , 18-C ) :   1.0955
B( 17-C , 19-H ) :   0.8756 B( 18-C , 20-C ) :   1.3054 B( 18-C , 22-S ) :   1.1867
B( 20-C , 21-C ) :   1.2902 B( 20-C , 24-H ) :   0.2249 B( 21-C , 23-C ) :   1.5664
B( 21-C , 25-H ) :   0.9086 B( 22-S , 23-C ) :   1.1982 B( 23-C , 26-H ) :   0.8872
B( 24-H , 30-O ) :   0.4133 B( 30-O , 32-C ) :   1.3746 B( 31-O , 32-C ) :   1.5483
B( 32-C , 33-C ) :   0.9351 B( 33-C , 34-H ) :   0.8933 B( 33-C , 35-H ) :   0.8900
B( 33-C , 36-H ) :   0.9083

Dispersion correction           -0.029411323
FINAL SINGLE POINT ENERGY     -1288.344827488880
Dispersion correction            ... done

DIPOLE MOMENT
-------------
                                X             Y             Z
Electronic contribution:     41.37124     -73.59809      84.94360
Nuclear contribution   :    -42.22163      73.06951     -84.41889
                        -----------------------------------------
Total Dipole Moment    :     -0.85039      -0.52858       0.52470
                        -----------------------------------------
Magnitude (a.u.)       :      1.13043
Magnitude (Debye)      :      2.87333

Rotational constants in cm-1:     0.010448     0.008202     0.007610
Rotational constants in MHz :   313.219768   245.885979   228.142563

                             ****ORCA TERMINATED NORMALLY****
TOTAL RUN TIME: 0 days 0 hours 15 minutes 4 seconds 704 msec
