                         Program Version 5.0.3 -  RELEASE  -
|  1> ! EnGrad PBEh-3c
|  2> %output
|  3> xyzfile=True
|  4> end
|  5> %scf
|  6> maxiter 250
|  7> end
|  8> %output
|  9> Print[P_Hirshfeld] = 1
| 10> end
| 11> % maxcore
| 12> 4000
| 13> *xyz 1 1
| 14> Sc   0.88888918  -0.72444685  -1.92624946
| 15> C    0.17867485  -0.41139277   0.20320133
| 16> N   -0.47683915  -1.32271309   0.94497729
| 17> C   -0.56851940  -0.91731066   2.24781926
| 18> C    0.03626472   0.29246342   2.31404439
| 19> N    0.45009349   0.60462122   1.04713237
| 20> C    1.22797607   1.79684112   0.75512347
| 21> H    0.89572464   2.63823764   1.35943858
| 22> H    1.10358678   2.09741243  -0.28127789
| 23> H    2.29002044   1.62668819   0.92223441
| 24> C   -0.97974267  -2.61569696   0.50614304
| 25> H   -0.92281729  -2.70006358  -0.57632357
| 26> H   -2.02409734  -2.72280503   0.78960629
| 27> H   -0.39733857  -3.42627594   0.93988387
| 28> H   -1.03585262  -1.50097410   3.02360711
| 29> H    0.20603657   0.90900472   3.18108898
| 30> C    0.13385716   1.55401426  -2.97243953
| 31> H   -0.41852174   1.52578487  -3.92021501
| 32> H    0.93411522   2.28633254  -3.13533635
| 33> H   -0.56406017   1.98555969  -2.24571099
| 34> H   -0.95742180  -0.97527786  -3.17674922
| 35> *
| 36>
| 37>                          ****END OF INPUT****

CARTESIAN COORDINATES (ANGSTROEM)
---------------------------------
  Sc     0.888889   -0.724447   -1.926249
  C      0.178675   -0.411393    0.203201
  N     -0.476839   -1.322713    0.944977
  C     -0.568519   -0.917311    2.247819
  C      0.036265    0.292463    2.314044
  N      0.450093    0.604621    1.047132
  C      1.227976    1.796841    0.755123
  H      0.895725    2.638238    1.359439
  H      1.103587    2.097412   -0.281278
  H      2.290020    1.626688    0.922234
  C     -0.979743   -2.615697    0.506143
  H     -0.922817   -2.700064   -0.576324
  H     -2.024097   -2.722805    0.789606
  H     -0.397339   -3.426276    0.939884
  H     -1.035853   -1.500974    3.023607
  H      0.206037    0.909005    3.181089
  C      0.133857    1.554014   -2.972440
  H     -0.418522    1.525785   -3.920215
  H      0.934115    2.286333   -3.135336
  H     -0.564060    1.985560   -2.245711
  H     -0.957422   -0.975278   -3.176749

 Total Charge           Charge          ....    1
 Multiplicity           Mult            ....    1
 Number of Electrons    NEL             ....   82
 Basis Dimension        Dim             ....  175

ORBITAL ENERGIES
----------------

  NO   OCC          E(Eh)            E(eV)
   0   2.0000    -162.926854     -4433.4651
   1   2.0000     -18.233538      -496.1598
   2   2.0000     -15.071969      -410.1291
   3   2.0000     -15.068410      -410.0323
   4   2.0000     -15.067384      -410.0044
   5   2.0000     -14.879998      -404.9053
   6   2.0000     -14.878731      -404.8709
   7   2.0000     -10.659324      -290.0550
   8   2.0000     -10.640086      -289.5315
   9   2.0000     -10.638817      -289.4969
  10   2.0000     -10.635620      -289.4099
  11   2.0000     -10.628399      -289.2134
  12   2.0000     -10.520651      -286.2815
  13   2.0000      -2.433611       -66.2219
  14   2.0000      -1.582223       -43.0545
  15   2.0000      -1.572940       -42.8019
  16   2.0000      -1.566906       -42.6377
  17   2.0000      -1.325549       -36.0700
  18   2.0000      -1.202871       -32.7318
  19   2.0000      -1.035856       -28.1871
  20   2.0000      -0.995821       -27.0977
  21   2.0000      -0.938439       -25.5362
  22   2.0000      -0.857016       -23.3206
  23   2.0000      -0.829778       -22.5794
  24   2.0000      -0.818013       -22.2593
  25   2.0000      -0.764343       -20.7988
  26   2.0000      -0.716383       -19.4938
  27   2.0000      -0.688934       -18.7468
  28   2.0000      -0.671582       -18.2747
  29   2.0000      -0.668557       -18.1924
  30   2.0000      -0.660486       -17.9727
  31   2.0000      -0.614280       -16.7154
  32   2.0000      -0.607258       -16.5243
  33   2.0000      -0.602753       -16.4017
  34   2.0000      -0.537678       -14.6310
  35   2.0000      -0.526098       -14.3159
  36   2.0000      -0.518016       -14.0959
  37   2.0000      -0.500444       -13.6178
  38   2.0000      -0.448017       -12.1912
  39   2.0000      -0.406509       -11.0617
  40   2.0000      -0.370919       -10.0932
  41   0.0000      -0.197113        -5.3637
  42   0.0000      -0.195632        -5.3234
  43   0.0000      -0.185111        -5.0371
  44   0.0000      -0.178845        -4.8666
  45   0.0000      -0.174042        -4.7359

MULLIKEN ATOMIC CHARGES
-----------------------
   0 Sc:    0.801723
   1 C :    0.200847
   2 N :   -0.415026
   3 C :   -0.063716
   4 C :   -0.056386
   5 N :   -0.421446
   6 C :   -0.555600
   7 H :    0.289391
   8 H :    0.294934
   9 H :    0.266007
  10 C :   -0.535314
  11 H :    0.262139
  12 H :    0.297119
  13 H :    0.275367
  14 H :    0.310366
  15 H :    0.309717
  16 C :   -0.881833
  17 H :    0.260835
  18 H :    0.210259
  19 H :    0.216149
  20 H :   -0.065533
Sum of atomic charges:    1.0000000

LOEWDIN ATOMIC CHARGES
----------------------
   0 Sc:    0.558735
   1 C :   -0.030930
   2 N :    0.009073
   3 C :   -0.078255
   4 C :   -0.072072
   5 N :    0.009396
   6 C :   -0.245419
   7 H :    0.163665
   8 H :    0.163721
   9 H :    0.146969
  10 C :   -0.235548
  11 H :    0.152691
  12 H :    0.165512
  13 H :    0.152171
  14 H :    0.172090
  15 H :    0.171813
  16 C :   -0.559884
  17 H :    0.150354
  18 H :    0.123138
  19 H :    0.129599
  20 H :   -0.046820

  Mayer bond orders larger than 0.100000
B(  0-Sc,  1-C ) :   0.6619 B(  0-Sc, 16-C ) :   0.9733 B(  0-Sc, 20-H ) :   0.9826
B(  1-C ,  2-N ) :   1.2257 B(  1-C ,  5-N ) :   1.2324 B(  2-N ,  3-C ) :   1.1555
B(  2-N , 10-C ) :   0.9073 B(  3-C ,  4-C ) :   1.6267 B(  3-C , 14-H ) :   0.8743
B(  4-C ,  5-N ) :   1.1544 B(  4-C , 15-H ) :   0.8753 B(  5-N ,  6-C ) :   0.9041
B(  6-C ,  7-H ) :   0.8981 B(  6-C ,  8-H ) :   0.8825 B(  6-C ,  9-H ) :   0.8957
B( 10-C , 11-H ) :   0.8954 B( 10-C , 12-H ) :   0.8903 B( 10-C , 13-H ) :   0.8915
B( 16-C , 17-H ) :   0.9120 B( 16-C , 18-H ) :   0.9118 B( 16-C , 19-H ) :   0.9130

Dispersion correction           -0.011087136
FINAL SINGLE POINT ENERGY     -1104.403295687344
Dispersion correction            ... done

DIPOLE MOMENT
-------------
                                X             Y             Z
Electronic contribution:      7.17782      -7.32217      -2.53400
Nuclear contribution   :     -5.40147       6.03951       3.75954
                        -----------------------------------------
Total Dipole Moment    :      1.77636      -1.28266       1.22554
                        -----------------------------------------
Magnitude (a.u.)       :      2.51050
Magnitude (Debye)      :      6.38117

Rotational constants in cm-1:     0.053643     0.029749     0.021150
Rotational constants in MHz :  1608.184835   891.840823   634.049546

                             ****ORCA TERMINATED NORMALLY****
TOTAL RUN TIME: 0 days 0 hours 2 minutes 20 seconds 413 msec
