                         Program Version 5.0.3 -  RELEASE  -
|  1> ! EnGrad PBEh-3c
|  2> %output
|  3> xyzfile=True
|  4> end
|  5> %scf
|  6> maxiter 250
|  7> end
|  8> %output
|  9> Print[P_Hirshfeld] = 1
| 10> end
| 11> % maxcore
| 12> 4000
| 13> *xyz 1 1
| 14> Sc   0.81159388  -0.60372888  -2.06494868
| 15> C    0.22359793  -0.44740234   0.20409602
| 16> N   -0.46575422  -1.33982178   0.96154009
| 17> C   -0.61467252  -0.86966708   2.21911701
| 18> C   -0.01969712   0.31041803   2.29018638
| 19> N    0.49440719   0.56687664   1.06420053
| 20> C    1.28584752   1.77004421   0.71564720
| 21> H    1.03772260   2.58020069   1.39803728
| 22> H    1.08272716   2.10498363  -0.27116446
| 23> H    2.33209565   1.54360321   0.84491121
| 24> C   -0.96462286  -2.62443053   0.50410124
| 25> H   -0.84200865  -2.75223028  -0.55258540
| 26> H   -2.02930682  -2.70721631   0.72330442
| 27> H   -0.44788628  -3.42508409   1.02759809
| 28> H   -1.13373683  -1.43907466   2.98529105
| 29> H    0.12406124   0.97113945   3.12810705
| 30> C    0.11707346   1.52759197  -2.91314705
| 31> H   -0.49959761   1.52428004  -3.86523861
| 32> H    0.83554592   2.32757849  -3.08313238
| 33> H   -0.60696804   1.90348555  -2.17807067
| 34> H   -0.72022623  -0.92107366  -3.13472018
| 35> *
| 36>
| 37>                          ****END OF INPUT****

CARTESIAN COORDINATES (ANGSTROEM)
---------------------------------
  Sc     0.811594   -0.603729   -2.064949
  C      0.223598   -0.447402    0.204096
  N     -0.465754   -1.339822    0.961540
  C     -0.614673   -0.869667    2.219117
  C     -0.019697    0.310418    2.290186
  N      0.494407    0.566877    1.064201
  C      1.285848    1.770044    0.715647
  H      1.037723    2.580201    1.398037
  H      1.082727    2.104984   -0.271164
  H      2.332096    1.543603    0.844911
  C     -0.964623   -2.624431    0.504101
  H     -0.842009   -2.752230   -0.552585
  H     -2.029307   -2.707216    0.723304
  H     -0.447886   -3.425084    1.027598
  H     -1.133737   -1.439075    2.985291
  H      0.124061    0.971139    3.128107
  C      0.117073    1.527592   -2.913147
  H     -0.499598    1.524280   -3.865239
  H      0.835546    2.327578   -3.083132
  H     -0.606968    1.903486   -2.178071
  H     -0.720226   -0.921074   -3.134720

 Total Charge           Charge          ....    1
 Multiplicity           Mult            ....    1
 Number of Electrons    NEL             ....   82
 Basis Dimension        Dim             ....  175

ORBITAL ENERGIES
----------------

  NO   OCC          E(Eh)            E(eV)
   0   2.0000    -162.916502     -4433.1834
   1   2.0000     -18.225941      -495.9531
   2   2.0000     -15.064053      -409.9137
   3   2.0000     -15.060725      -409.8232
   4   2.0000     -15.059861      -409.7996
   5   2.0000     -14.872617      -404.7045
   6   2.0000     -14.871504      -404.6742
   7   2.0000     -10.655384      -289.9477
   8   2.0000     -10.630683      -289.2756
   9   2.0000     -10.629727      -289.2496
  10   2.0000     -10.629386      -289.2403
  11   2.0000     -10.625717      -289.1404
  12   2.0000     -10.519314      -286.2451
  13   2.0000      -2.427561       -66.0573
  14   2.0000      -1.576065       -42.8869
  15   2.0000      -1.566985       -42.6398
  16   2.0000      -1.562018       -42.5047
  17   2.0000      -1.321558       -35.9614
  18   2.0000      -1.195006       -32.5178
  19   2.0000      -1.035482       -28.1769
  20   2.0000      -0.987587       -26.8736
  21   2.0000      -0.939084       -25.5538
  22   2.0000      -0.847989       -23.0750
  23   2.0000      -0.836321       -22.7574
  24   2.0000      -0.817427       -22.2433
  25   2.0000      -0.760274       -20.6881
  26   2.0000      -0.711358       -19.3570
  27   2.0000      -0.679778       -18.4977
  28   2.0000      -0.665292       -18.1035
  29   2.0000      -0.664331       -18.0774
  30   2.0000      -0.655373       -17.8336
  31   2.0000      -0.617247       -16.7961
  32   2.0000      -0.607211       -16.5230
  33   2.0000      -0.601151       -16.3581
  34   2.0000      -0.536989       -14.6122
  35   2.0000      -0.527808       -14.3624
  36   2.0000      -0.515760       -14.0345
  37   2.0000      -0.496530       -13.5113
  38   2.0000      -0.443625       -12.0716
  39   2.0000      -0.435280       -11.8446
  40   2.0000      -0.401218       -10.9177
  41   0.0000      -0.192319        -5.2333
  42   0.0000      -0.185575        -5.0497
  43   0.0000      -0.179435        -4.8827
  44   0.0000      -0.170670        -4.6442
  45   0.0000      -0.163649        -4.4531

MULLIKEN ATOMIC CHARGES
-----------------------
   0 Sc:    0.774112
   1 C :    0.191762
   2 N :   -0.413188
   3 C :   -0.059679
   4 C :   -0.054900
   5 N :   -0.427453
   6 C :   -0.541346
   7 H :    0.283758
   8 H :    0.295919
   9 H :    0.267588
  10 C :   -0.527623
  11 H :    0.256635
  12 H :    0.289113
  13 H :    0.276294
  14 H :    0.303528
  15 H :    0.304554
  16 C :   -0.938417
  17 H :    0.262402
  18 H :    0.229464
  19 H :    0.225497
  20 H :    0.001981
Sum of atomic charges:    1.0000000

LOEWDIN ATOMIC CHARGES
----------------------
   0 Sc:    0.555310
   1 C :   -0.037810
   2 N :    0.006862
   3 C :   -0.082947
   4 C :   -0.079546
   5 N :    0.004098
   6 C :   -0.236807
   7 H :    0.161444
   8 H :    0.161353
   9 H :    0.148011
  10 C :   -0.234341
  11 H :    0.148220
  12 H :    0.161528
  13 H :    0.153087
  14 H :    0.169889
  15 H :    0.169804
  16 C :   -0.582621
  17 H :    0.158680
  18 H :    0.133118
  19 H :    0.139173
  20 H :   -0.016504

  Mayer bond orders larger than 0.100000
B(  0-Sc,  1-C ) :   0.6516 B(  0-Sc, 16-C ) :   0.9830 B(  0-Sc, 20-H ) :   0.9885
B(  1-C ,  2-N ) :   1.2240 B(  1-C ,  5-N ) :   1.2388 B(  2-N ,  3-C ) :   1.1665
B(  2-N , 10-C ) :   0.9122 B(  3-C ,  4-C ) :   1.6213 B(  3-C , 14-H ) :   0.8783
B(  4-C ,  5-N ) :   1.1575 B(  4-C , 15-H ) :   0.8787 B(  5-N ,  6-C ) :   0.8942
B(  6-C ,  7-H ) :   0.9031 B(  6-C ,  8-H ) :   0.8818 B(  6-C ,  9-H ) :   0.8980
B( 10-C , 11-H ) :   0.9041 B( 10-C , 12-H ) :   0.8932 B( 10-C , 13-H ) :   0.8934
B( 16-C , 17-H ) :   0.9055 B( 16-C , 18-H ) :   0.9024 B( 16-C , 19-H ) :   0.8977

Dispersion correction           -0.010942927
FINAL SINGLE POINT ENERGY     -1104.447098038937
Dispersion correction            ... done

DIPOLE MOMENT
-------------
                                X             Y             Z
Electronic contribution:      6.60669      -6.58793      -3.75959
Nuclear contribution   :     -5.02078       5.44579       4.60209
                        -----------------------------------------
Total Dipole Moment    :      1.58591      -1.14214       0.84250
                        -----------------------------------------
Magnitude (a.u.)       :      2.12823
Magnitude (Debye)      :      5.40954

Rotational constants in cm-1:     0.055404     0.029223     0.020920
Rotational constants in MHz :  1660.979460   876.094195   627.162916

                             ****ORCA TERMINATED NORMALLY****
TOTAL RUN TIME: 0 days 0 hours 2 minutes 11 seconds 662 msec
