                         Program Version 5.0.3 -  RELEASE  -
|  1> ! EnGrad PBEh-3c
|  2> %output
|  3> xyzfile=True
|  4> end
|  5> %scf
|  6> maxiter 250
|  7> end
|  8> %output
|  9> Print[P_Hirshfeld] = 1
| 10> end
| 11> % maxcore
| 12> 4000
| 13> *xyz 1 1
| 14> Sc   0.74507027  -0.49560817  -2.17638426
| 15> C    0.26584635  -0.48128926   0.21183530
| 16> N   -0.45133863  -1.34600972   0.95107463
| 17> C   -0.67477498  -0.86140114   2.21200544
| 18> C   -0.05303193   0.35100582   2.27719459
| 19> N    0.53447792   0.54572394   1.05168592
| 20> C    1.32870609   1.73189285   0.70546849
| 21> H    1.15832662   2.52824436   1.43007591
| 22> H    1.06186663   2.11495049  -0.27654469
| 23> H    2.37435783   1.47272796   0.77178018
| 24> C   -0.95841778  -2.63250969   0.51923251
| 25> H   -0.77003831  -2.79712149  -0.53995999
| 26> H   -2.03344867  -2.69313015   0.66473551
| 27> H   -0.49183171  -3.42524829   1.10097072
| 28> H   -1.21515097  -1.38156588   2.94920234
| 29> H    0.05200241   1.02411239   3.08226440
| 30> C    0.08422376   1.50265421  -2.87465308
| 31> H   -0.56054659   1.51880136  -3.80339775
| 32> H    0.75428942   2.36479490  -3.03705911
| 33> H   -0.64379564   1.83227691  -2.11695182
| 34> H   -0.50666269  -0.87205283  -3.09733880
| 35> *
| 36>
| 37>                          ****END OF INPUT****

CARTESIAN COORDINATES (ANGSTROEM)
---------------------------------
  Sc     0.745070   -0.495608   -2.176384
  C      0.265846   -0.481289    0.211835
  N     -0.451339   -1.346010    0.951075
  C     -0.674775   -0.861401    2.212005
  C     -0.053032    0.351006    2.277195
  N      0.534478    0.545724    1.051686
  C      1.328706    1.731893    0.705468
  H      1.158327    2.528244    1.430076
  H      1.061867    2.114950   -0.276545
  H      2.374358    1.472728    0.771780
  C     -0.958418   -2.632510    0.519233
  H     -0.770038   -2.797121   -0.539960
  H     -2.033449   -2.693130    0.664736
  H     -0.491832   -3.425248    1.100971
  H     -1.215151   -1.381566    2.949202
  H      0.052002    1.024112    3.082264
  C      0.084224    1.502654   -2.874653
  H     -0.560547    1.518801   -3.803398
  H      0.754289    2.364795   -3.037059
  H     -0.643796    1.832277   -2.116952
  H     -0.506663   -0.872053   -3.097339

 Total Charge           Charge          ....    1
 Multiplicity           Mult            ....    1
 Number of Electrons    NEL             ....   82
 Basis Dimension        Dim             ....  175

ORBITAL ENERGIES
----------------

  NO   OCC          E(Eh)            E(eV)
   0   2.0000    -162.887372     -4432.3907
   1   2.0000     -18.199861      -495.2434
   2   2.0000     -15.037441      -409.1896
   3   2.0000     -15.034468      -409.1087
   4   2.0000     -15.033485      -409.0819
   5   2.0000     -14.867913      -404.5765
   6   2.0000     -14.866016      -404.5249
   7   2.0000     -10.650456      -289.8136
   8   2.0000     -10.630040      -289.2581
   9   2.0000     -10.627272      -289.1828
  10   2.0000     -10.626266      -289.1554
  11   2.0000     -10.624366      -289.1037
  12   2.0000     -10.519432      -286.2483
  13   2.0000      -2.412199       -65.6393
  14   2.0000      -1.561376       -42.4872
  15   2.0000      -1.554673       -42.3048
  16   2.0000      -1.549908       -42.1752
  17   2.0000      -1.311440       -35.6861
  18   2.0000      -1.189572       -32.3699
  19   2.0000      -1.025049       -27.8930
  20   2.0000      -0.984880       -26.7999
  21   2.0000      -0.930453       -25.3189
  22   2.0000      -0.847873       -23.0718
  23   2.0000      -0.846915       -23.0457
  24   2.0000      -0.806044       -21.9336
  25   2.0000      -0.755837       -20.5674
  26   2.0000      -0.705223       -19.1901
  27   2.0000      -0.681346       -18.5404
  28   2.0000      -0.663508       -18.0550
  29   2.0000      -0.659903       -17.9569
  30   2.0000      -0.653325       -17.7779
  31   2.0000      -0.607164       -16.5218
  32   2.0000      -0.602532       -16.3957
  33   2.0000      -0.593956       -16.1624
  34   2.0000      -0.543980       -14.8024
  35   2.0000      -0.527455       -14.3528
  36   2.0000      -0.516683       -14.0596
  37   2.0000      -0.489998       -13.3335
  38   2.0000      -0.462475       -12.5846
  39   2.0000      -0.435424       -11.8485
  40   2.0000      -0.426500       -11.6056
  41   0.0000      -0.186353        -5.0709
  42   0.0000      -0.173676        -4.7260
  43   0.0000      -0.168943        -4.5972
  44   0.0000      -0.162069        -4.4101
  45   0.0000      -0.147561        -4.0153

MULLIKEN ATOMIC CHARGES
-----------------------
   0 Sc:    0.786873
   1 C :    0.202105
   2 N :   -0.414892
   3 C :   -0.065785
   4 C :   -0.062302
   5 N :   -0.425068
   6 C :   -0.537274
   7 H :    0.281708
   8 H :    0.284227
   9 H :    0.267641
  10 C :   -0.521310
  11 H :    0.245219
  12 H :    0.284886
  13 H :    0.277720
  14 H :    0.305596
  15 H :    0.304571
  16 C :   -1.009765
  17 H :    0.276762
  18 H :    0.242938
  19 H :    0.235603
  20 H :    0.040548
Sum of atomic charges:    1.0000000

LOEWDIN ATOMIC CHARGES
----------------------
   0 Sc:    0.555021
   1 C :   -0.047113
   2 N :    0.003020
   3 C :   -0.083011
   4 C :   -0.074951
   5 N :   -0.004158
   6 C :   -0.239749
   7 H :    0.160040
   8 H :    0.159200
   9 H :    0.147857
  10 C :   -0.234481
  11 H :    0.144533
  12 H :    0.157936
  13 H :    0.153831
  14 H :    0.166088
  15 H :    0.165700
  16 C :   -0.591032
  17 H :    0.169014
  18 H :    0.145504
  19 H :    0.152144
  20 H :   -0.005392

  Mayer bond orders larger than 0.100000
B(  0-Sc,  1-C ) :   0.6293 B(  0-Sc, 16-C ) :   0.9771 B(  0-Sc, 20-H ) :   0.9732
B(  1-C ,  2-N ) :   1.2323 B(  1-C ,  5-N ) :   1.2310 B(  2-N ,  3-C ) :   1.1530
B(  2-N , 10-C ) :   0.9152 B(  3-C ,  4-C ) :   1.6360 B(  3-C , 14-H ) :   0.8767
B(  4-C ,  5-N ) :   1.1478 B(  4-C , 15-H ) :   0.8778 B(  5-N ,  6-C ) :   0.8994
B(  6-C ,  7-H ) :   0.9037 B(  6-C ,  8-H ) :   0.8864 B(  6-C ,  9-H ) :   0.8977
B( 10-C , 11-H ) :   0.9125 B( 10-C , 12-H ) :   0.8930 B( 10-C , 13-H ) :   0.8938
B( 16-C , 17-H ) :   0.8898 B( 16-C , 18-H ) :   0.8965 B( 16-C , 19-H ) :   0.8805

Dispersion correction           -0.011010651
FINAL SINGLE POINT ENERGY     -1104.460616535249
Dispersion correction            ... done

DIPOLE MOMENT
-------------
                                X             Y             Z
Electronic contribution:      6.00981      -5.90094      -4.81681
Nuclear contribution   :     -4.65212       4.92043       5.27104
                        -----------------------------------------
Total Dipole Moment    :      1.35769      -0.98051       0.45423
                        -----------------------------------------
Magnitude (a.u.)       :      1.73524
Magnitude (Debye)      :      4.41062

Rotational constants in cm-1:     0.056652     0.028643     0.020690
Rotational constants in MHz :  1698.370040   858.704064   620.256470

                             ****ORCA TERMINATED NORMALLY****
TOTAL RUN TIME: 0 days 0 hours 2 minutes 3 seconds 394 msec
