                         Program Version 5.0.3 -  RELEASE  -
|  1> ! EnGrad PBEh-3c
|  2> %output
|  3> xyzfile=True
|  4> end
|  5> %scf
|  6> maxiter 250
|  7> end
|  8> %output
|  9> Print[P_Hirshfeld] = 1
| 10> end
| 11> % maxcore
| 12> 4000
| 13> *xyz 1 1
| 14> Sc   0.75950300  -0.45111412  -2.18391015
| 15> C    0.29298220  -0.49642237   0.21154429
| 16> N   -0.45126664  -1.34490772   0.94720426
| 17> C   -0.68587843  -0.83654985   2.19609886
| 18> C   -0.07069073   0.34718216   2.25388828
| 19> N    0.54294092   0.54235380   1.04332659
| 20> C    1.34387444   1.70977031   0.70327826
| 21> H    1.21270749   2.49825691   1.44268652
| 22> H    1.05369323   2.11951710  -0.27654540
| 23> H    2.39831422   1.44014094   0.72699385
| 24> C   -0.95771090  -2.63860139   0.52510915
| 25> H   -0.73559144  -2.81904509  -0.52944419
| 26> H   -2.03722286  -2.68486849   0.63667294
| 27> H   -0.51426563  -3.42531308   1.13288614
| 28> H   -1.26184836  -1.36303924   2.94270183
| 29> H    0.01914425   1.05839689   3.06887787
| 30> C    0.05002005   1.50564491  -2.87090271
| 31> H   -0.58640756   1.51305743  -3.76552619
| 32> H    0.71338505   2.37790974  -3.01348282
| 33> H   -0.66286219   1.79832922  -2.08379837
| 34> H   -0.42305457  -0.84882324  -3.10224957
| 35> *
| 36>
| 37>                          ****END OF INPUT****

CARTESIAN COORDINATES (ANGSTROEM)
---------------------------------
  Sc     0.759503   -0.451114   -2.183910
  C      0.292982   -0.496422    0.211544
  N     -0.451267   -1.344908    0.947204
  C     -0.685878   -0.836550    2.196099
  C     -0.070691    0.347182    2.253888
  N      0.542941    0.542354    1.043327
  C      1.343874    1.709770    0.703278
  H      1.212707    2.498257    1.442687
  H      1.053693    2.119517   -0.276545
  H      2.398314    1.440141    0.726994
  C     -0.957711   -2.638601    0.525109
  H     -0.735591   -2.819045   -0.529444
  H     -2.037223   -2.684868    0.636673
  H     -0.514266   -3.425313    1.132886
  H     -1.261848   -1.363039    2.942702
  H      0.019144    1.058397    3.068878
  C      0.050020    1.505645   -2.870903
  H     -0.586408    1.513057   -3.765526
  H      0.713385    2.377910   -3.013483
  H     -0.662862    1.798329   -2.083798
  H     -0.423055   -0.848823   -3.102250

 Total Charge           Charge          ....    1
 Multiplicity           Mult            ....    1
 Number of Electrons    NEL             ....   82
 Basis Dimension        Dim             ....  175

ORBITAL ENERGIES
----------------

  NO   OCC          E(Eh)            E(eV)
   0   2.0000    -162.877389     -4432.1191
   1   2.0000     -18.190387      -494.9856
   2   2.0000     -15.027939      -408.9310
   3   2.0000     -15.024924      -408.8490
   4   2.0000     -15.023839      -408.8194
   5   2.0000     -14.866251      -404.5313
   6   2.0000     -14.864599      -404.4863
   7   2.0000     -10.650170      -289.8058
   8   2.0000     -10.628756      -289.2232
   9   2.0000     -10.626196      -289.1535
  10   2.0000     -10.625862      -289.1444
  11   2.0000     -10.625790      -289.1425
  12   2.0000     -10.516435      -286.1667
  13   2.0000      -2.406496       -65.4841
  14   2.0000      -1.556251       -42.3477
  15   2.0000      -1.550474       -42.1906
  16   2.0000      -1.544527       -42.0287
  17   2.0000      -1.312804       -35.7232
  18   2.0000      -1.189404       -32.3653
  19   2.0000      -1.028403       -27.9843
  20   2.0000      -0.983588       -26.7648
  21   2.0000      -0.928720       -25.2718
  22   2.0000      -0.851424       -23.1684
  23   2.0000      -0.843738       -22.9593
  24   2.0000      -0.807191       -21.9648
  25   2.0000      -0.752921       -20.4880
  26   2.0000      -0.705486       -19.1973
  27   2.0000      -0.675264       -18.3749
  28   2.0000      -0.660103       -17.9623
  29   2.0000      -0.658346       -17.9145
  30   2.0000      -0.654354       -17.8059
  31   2.0000      -0.606234       -16.4965
  32   2.0000      -0.600539       -16.3415
  33   2.0000      -0.594064       -16.1653
  34   2.0000      -0.546356       -14.8671
  35   2.0000      -0.536700       -14.6043
  36   2.0000      -0.515620       -14.0307
  37   2.0000      -0.488474       -13.2920
  38   2.0000      -0.466658       -12.6984
  39   2.0000      -0.438172       -11.9233
  40   2.0000      -0.426284       -11.5998
  41   0.0000      -0.184700        -5.0259
  42   0.0000      -0.171611        -4.6698
  43   0.0000      -0.165436        -4.5017
  44   0.0000      -0.159066        -4.3284
  45   0.0000      -0.143234        -3.8976

MULLIKEN ATOMIC CHARGES
-----------------------
   0 Sc:    0.796205
   1 C :    0.199697
   2 N :   -0.417445
   3 C :   -0.061744
   4 C :   -0.061417
   5 N :   -0.417027
   6 C :   -0.539504
   7 H :    0.283416
   8 H :    0.279162
   9 H :    0.265276
  10 C :   -0.518273
  11 H :    0.243727
  12 H :    0.283355
  13 H :    0.277846
  14 H :    0.303384
  15 H :    0.301539
  16 C :   -1.015607
  17 H :    0.286793
  18 H :    0.241928
  19 H :    0.232530
  20 H :    0.036159
Sum of atomic charges:    1.0000000

LOEWDIN ATOMIC CHARGES
----------------------
   0 Sc:    0.552393
   1 C :   -0.044995
   2 N :    0.000552
   3 C :   -0.086098
   4 C :   -0.078215
   5 N :   -0.005418
   6 C :   -0.242493
   7 H :    0.160283
   8 H :    0.158077
   9 H :    0.147446
  10 C :   -0.233818
  11 H :    0.144533
  12 H :    0.156981
  13 H :    0.153973
  14 H :    0.169530
  15 H :    0.168512
  16 C :   -0.587199
  17 H :    0.169592
  18 H :    0.147051
  19 H :    0.153828
  20 H :   -0.004515

  Mayer bond orders larger than 0.100000
B(  0-Sc,  1-C ) :   0.6230 B(  0-Sc, 16-C ) :   0.9769 B(  0-Sc, 20-H ) :   0.9682
B(  1-C ,  2-N ) :   1.2383 B(  1-C ,  5-N ) :   1.2324 B(  2-N ,  3-C ) :   1.1424
B(  2-N , 10-C ) :   0.9140 B(  3-C ,  4-C ) :   1.6466 B(  3-C , 14-H ) :   0.8778
B(  4-C ,  5-N ) :   1.1371 B(  4-C , 15-H ) :   0.8791 B(  5-N ,  6-C ) :   0.9044
B(  6-C ,  7-H ) :   0.9027 B(  6-C ,  8-H ) :   0.8872 B(  6-C ,  9-H ) :   0.8979
B( 10-C , 11-H ) :   0.9141 B( 10-C , 12-H ) :   0.8933 B( 10-C , 13-H ) :   0.8940
B( 16-C , 17-H ) :   0.8855 B( 16-C , 18-H ) :   0.8965 B( 16-C , 19-H ) :   0.8782

Dispersion correction           -0.011012648
FINAL SINGLE POINT ENERGY     -1104.459112055909
Dispersion correction            ... done

DIPOLE MOMENT
-------------
                                X             Y             Z
Electronic contribution:      6.04943      -5.60186      -4.96138
Nuclear contribution   :     -4.72350       4.68397       5.38614
                        -----------------------------------------
Total Dipole Moment    :      1.32593      -0.91789       0.42476
                        -----------------------------------------
Magnitude (a.u.)       :      1.66764
Magnitude (Debye)      :      4.23881

Rotational constants in cm-1:     0.057121     0.028574     0.020795
Rotational constants in MHz :  1712.455436   856.619480   623.432465

                             ****ORCA TERMINATED NORMALLY****
TOTAL RUN TIME: 0 days 0 hours 2 minutes 1 seconds 906 msec
