                         Program Version 5.0.3 -  RELEASE  -
|  1> ! EnGrad PBEh-3c
|  2> %output
|  3> xyzfile=True
|  4> end
|  5> %scf
|  6> maxiter 250
|  7> end
|  8> %output
|  9> Print[P_Hirshfeld] = 1
| 10> end
| 11> % maxcore
| 12> 4000
| 13> *xyz 1 1
| 14> Sc   0.79693591  -0.37036470  -2.19549226
| 15> C    0.34307502  -0.52714745   0.21135902
| 16> N   -0.44814454  -1.34629953   0.93951452
| 17> C   -0.72743004  -0.81128096   2.17378994
| 18> C   -0.09823648   0.37178401   2.22552248
| 19> N    0.56152861   0.52643491   1.02960710
| 20> C    1.38089063   1.67271932   0.68730821
| 21> H    1.32363345   2.43779919   1.46850323
| 22> H    1.03855713   2.12735515  -0.26944720
| 23> H    2.43991527   1.37407470   0.63713627
| 24> C   -0.95436339  -2.64873814   0.53265296
| 25> H   -0.66724416  -2.86367075  -0.50491740
| 26> H   -2.04482263  -2.66866404   0.57993275
| 27> H   -0.56046798  -3.42463690   1.19823724
| 28> H   -1.34696421  -1.31599682   2.91739160
| 29> H   -0.04907622   1.11556500   3.02771726
| 30> C   -0.00759886   1.51043381  -2.84767250
| 31> H   -0.65228257   1.50475970  -3.70491326
| 32> H    0.62837913   2.40493664  -2.96760473
| 33> H   -0.70322479   1.73021285  -2.01721163
| 34> H   -0.25378030  -0.79608741  -3.11550258
| 35> *
| 36>
| 37>                          ****END OF INPUT****

CARTESIAN COORDINATES (ANGSTROEM)
---------------------------------
  Sc     0.796936   -0.370365   -2.195492
  C      0.343075   -0.527147    0.211359
  N     -0.448145   -1.346300    0.939515
  C     -0.727430   -0.811281    2.173790
  C     -0.098236    0.371784    2.225522
  N      0.561529    0.526435    1.029607
  C      1.380891    1.672719    0.687308
  H      1.323633    2.437799    1.468503
  H      1.038557    2.127355   -0.269447
  H      2.439915    1.374075    0.637136
  C     -0.954363   -2.648738    0.532653
  H     -0.667244   -2.863671   -0.504917
  H     -2.044823   -2.668664    0.579933
  H     -0.560468   -3.424637    1.198237
  H     -1.346964   -1.315997    2.917392
  H     -0.049076    1.115565    3.027717
  C     -0.007599    1.510434   -2.847672
  H     -0.652283    1.504760   -3.704913
  H      0.628379    2.404937   -2.967605
  H     -0.703225    1.730213   -2.017212
  H     -0.253780   -0.796087   -3.115503

 Total Charge           Charge          ....    1
 Multiplicity           Mult            ....    1
 Number of Electrons    NEL             ....   82
 Basis Dimension        Dim             ....  175

ORBITAL ENERGIES
----------------

  NO   OCC          E(Eh)            E(eV)
   0   2.0000    -162.858890     -4431.6157
   1   2.0000     -18.172637      -494.5026
   2   2.0000     -15.010092      -408.4454
   3   2.0000     -15.007080      -408.3634
   4   2.0000     -15.005775      -408.3279
   5   2.0000     -14.864528      -404.4844
   6   2.0000     -14.863698      -404.4618
   7   2.0000     -10.648583      -289.7627
   8   2.0000     -10.629798      -289.2515
   9   2.0000     -10.629753      -289.2503
  10   2.0000     -10.627005      -289.1755
  11   2.0000     -10.624887      -289.1179
  12   2.0000     -10.514266      -286.1077
  13   2.0000      -2.396400       -65.2094
  14   2.0000      -1.547716       -42.1155
  15   2.0000      -1.543173       -41.9919
  16   2.0000      -1.534943       -41.7679
  17   2.0000      -1.309887       -35.6438
  18   2.0000      -1.187055       -32.3014
  19   2.0000      -1.025961       -27.9178
  20   2.0000      -0.981544       -26.7092
  21   2.0000      -0.924614       -25.1600
  22   2.0000      -0.856595       -23.3091
  23   2.0000      -0.840979       -22.8842
  24   2.0000      -0.804194       -21.8832
  25   2.0000      -0.749424       -20.3929
  26   2.0000      -0.703425       -19.1412
  27   2.0000      -0.672453       -18.2984
  28   2.0000      -0.657899       -17.9023
  29   2.0000      -0.655898       -17.8479
  30   2.0000      -0.651492       -17.7280
  31   2.0000      -0.602420       -16.3927
  32   2.0000      -0.598664       -16.2905
  33   2.0000      -0.591504       -16.0956
  34   2.0000      -0.551888       -15.0176
  35   2.0000      -0.546531       -14.8719
  36   2.0000      -0.514089       -13.9891
  37   2.0000      -0.486179       -13.2296
  38   2.0000      -0.472857       -12.8671
  39   2.0000      -0.436720       -11.8837
  40   2.0000      -0.426632       -11.6092
  41   0.0000      -0.182002        -4.9525
  42   0.0000      -0.167764        -4.5651
  43   0.0000      -0.159186        -4.3317
  44   0.0000      -0.153896        -4.1877
  45   0.0000      -0.135725        -3.6933

MULLIKEN ATOMIC CHARGES
-----------------------
   0 Sc:    0.828499
   1 C :    0.194899
   2 N :   -0.420244
   3 C :   -0.060790
   4 C :   -0.063419
   5 N :   -0.408062
   6 C :   -0.539841
   7 H :    0.284661
   8 H :    0.273564
   9 H :    0.261979
  10 C :   -0.514245
  11 H :    0.242243
  12 H :    0.279649
  13 H :    0.276751
  14 H :    0.303588
  15 H :    0.301475
  16 C :   -1.025527
  17 H :    0.296016
  18 H :    0.243174
  19 H :    0.227981
  20 H :    0.017650
Sum of atomic charges:    1.0000000

LOEWDIN ATOMIC CHARGES
----------------------
   0 Sc:    0.548440
   1 C :   -0.048192
   2 N :   -0.003061
   3 C :   -0.086296
   4 C :   -0.080281
   5 N :   -0.007156
   6 C :   -0.243756
   7 H :    0.160982
   8 H :    0.156050
   9 H :    0.147442
  10 C :   -0.234194
  11 H :    0.144346
  12 H :    0.155326
  13 H :    0.154371
  14 H :    0.171293
  15 H :    0.169452
  16 C :   -0.580384
  17 H :    0.170834
  18 H :    0.150282
  19 H :    0.157148
  20 H :   -0.002645

  Mayer bond orders larger than 0.100000
B(  0-Sc,  1-C ) :   0.6095 B(  0-Sc, 16-C ) :   0.9697 B(  0-Sc, 20-H ) :   0.9578
B(  1-C ,  2-N ) :   1.2374 B(  1-C ,  5-N ) :   1.2326 B(  2-N ,  3-C ) :   1.1391
B(  2-N , 10-C ) :   0.9119 B(  3-C ,  4-C ) :   1.6463 B(  3-C , 14-H ) :   0.8774
B(  4-C ,  5-N ) :   1.1314 B(  4-C , 15-H ) :   0.8784 B(  5-N ,  6-C ) :   0.9063
B(  6-C ,  7-H ) :   0.9025 B(  6-C ,  8-H ) :   0.8867 B(  6-C ,  9-H ) :   0.8987
B( 10-C , 11-H ) :   0.9161 B( 10-C , 12-H ) :   0.8940 B( 10-C , 13-H ) :   0.8949
B( 16-C , 17-H ) :   0.8814 B( 16-C , 18-H ) :   0.8943 B( 16-C , 19-H ) :   0.8727

Dispersion correction           -0.011053936
FINAL SINGLE POINT ENERGY     -1104.445550360836
Dispersion correction            ... done

DIPOLE MOMENT
-------------
                                X             Y             Z
Electronic contribution:      6.20125      -5.04746      -5.19821
Nuclear contribution   :     -4.93130       4.25844       5.54732
                        -----------------------------------------
Total Dipole Moment    :      1.26994      -0.78901       0.34911
                        -----------------------------------------
Magnitude (a.u.)       :      1.53531
Magnitude (Debye)      :      3.90245

Rotational constants in cm-1:     0.057663     0.028392     0.020959
Rotational constants in MHz :  1728.681432   851.157379   628.326387

                             ****ORCA TERMINATED NORMALLY****
TOTAL RUN TIME: 0 days 0 hours 2 minutes 5 seconds 734 msec
