                         Program Version 5.0.3 -  RELEASE  -
|  1> ! EnGrad PBEh-3c
|  2> %output
|  3> xyzfile=True
|  4> end
|  5> %scf
|  6> maxiter 250
|  7> end
|  8> %output
|  9> Print[P_Hirshfeld] = 1
| 10> end
| 11> % maxcore
| 12> 4000
| 13> *xyz 1 1
| 14> Sc   0.76905599  -0.43050663  -2.18686594
| 15> C    0.30576603  -0.50426350   0.21149700
| 16> N   -0.45046987  -1.34526292   0.94524181
| 17> C   -0.69648252  -0.83010115   2.19040556
| 18> C   -0.07772048   0.35346062   2.24664924
| 19> N    0.54768455   0.53829125   1.03982533
| 20> C    1.35332108   1.70031479   0.69920266
| 21> H    1.24101612   2.48282792   1.44927502
| 22> H    1.04983045   2.12151739  -0.27473392
| 23> H    2.40893093   1.42328065   0.70406193
| 24> C   -0.95685661  -2.64118832   0.52703435
| 25> H   -0.71814902  -2.83043369  -0.52318488
| 26> H   -2.03916234  -2.68073307   0.62219268
| 27> H   -0.52605660  -3.42514051   1.14956393
| 28> H   -1.28357017  -1.35103387   2.93624259
| 29> H    0.00173419   1.07298636   3.05837356
| 30> C    0.03531554   1.50686705  -2.86497429
| 31> H   -0.60321906   1.51093983  -3.75005759
| 32> H    0.69169129   2.38480708  -3.00177460
| 33> H   -0.67316284   1.78094573  -2.06680524
| 34> H   -0.37985528  -0.83536490  -3.10563178
| 35> *
| 36>
| 37>                          ****END OF INPUT****

CARTESIAN COORDINATES (ANGSTROEM)
---------------------------------
  Sc     0.769056   -0.430507   -2.186866
  C      0.305766   -0.504263    0.211497
  N     -0.450470   -1.345263    0.945242
  C     -0.696483   -0.830101    2.190406
  C     -0.077720    0.353461    2.246649
  N      0.547685    0.538291    1.039825
  C      1.353321    1.700315    0.699203
  H      1.241016    2.482828    1.449275
  H      1.049830    2.121517   -0.274734
  H      2.408931    1.423281    0.704062
  C     -0.956857   -2.641188    0.527034
  H     -0.718149   -2.830434   -0.523185
  H     -2.039162   -2.680733    0.622193
  H     -0.526057   -3.425141    1.149564
  H     -1.283570   -1.351034    2.936243
  H      0.001734    1.072986    3.058374
  C      0.035316    1.506867   -2.864974
  H     -0.603219    1.510940   -3.750058
  H      0.691691    2.384807   -3.001775
  H     -0.673163    1.780946   -2.066805
  H     -0.379855   -0.835365   -3.105632

 Total Charge           Charge          ....    1
 Multiplicity           Mult            ....    1
 Number of Electrons    NEL             ....   82
 Basis Dimension        Dim             ....  175

ORBITAL ENERGIES
----------------

  NO   OCC          E(Eh)            E(eV)
   0   2.0000    -162.872612     -4431.9891
   1   2.0000     -18.185825      -494.8615
   2   2.0000     -15.023358      -408.8064
   3   2.0000     -15.020335      -408.7241
   4   2.0000     -15.019193      -408.6930
   5   2.0000     -14.865842      -404.5201
   6   2.0000     -14.864375      -404.4802
   7   2.0000     -10.649726      -289.7938
   8   2.0000     -10.628978      -289.2292
   9   2.0000     -10.626972      -289.1746
  10   2.0000     -10.626111      -289.1512
  11   2.0000     -10.625438      -289.1329
  12   2.0000     -10.515754      -286.1482
  13   2.0000      -2.403826       -65.4114
  14   2.0000      -1.553879       -42.2832
  15   2.0000      -1.548557       -42.1384
  16   2.0000      -1.542018       -41.9604
  17   2.0000      -1.312189       -35.7065
  18   2.0000      -1.188918       -32.3521
  19   2.0000      -1.027852       -27.9693
  20   2.0000      -0.983164       -26.7533
  21   2.0000      -0.927861       -25.2484
  22   2.0000      -0.852809       -23.2061
  23   2.0000      -0.843162       -22.9436
  24   2.0000      -0.806521       -21.9466
  25   2.0000      -0.752147       -20.4670
  26   2.0000      -0.705038       -19.1851
  27   2.0000      -0.674616       -18.3572
  28   2.0000      -0.659611       -17.9489
  29   2.0000      -0.657812       -17.9000
  30   2.0000      -0.653792       -17.7906
  31   2.0000      -0.605350       -16.4724
  32   2.0000      -0.600222       -16.3329
  33   2.0000      -0.593526       -16.1507
  34   2.0000      -0.547805       -14.9065
  35   2.0000      -0.539303       -14.6752
  36   2.0000      -0.515247       -14.0206
  37   2.0000      -0.487983       -13.2787
  38   2.0000      -0.468317       -12.7435
  39   2.0000      -0.437793       -11.9130
  40   2.0000      -0.426402       -11.6030
  41   0.0000      -0.183942        -5.0053
  42   0.0000      -0.170552        -4.6410
  43   0.0000      -0.163795        -4.4571
  44   0.0000      -0.157702        -4.2913
  45   0.0000      -0.141268        -3.8441

MULLIKEN ATOMIC CHARGES
-----------------------
   0 Sc:    0.803096
   1 C :    0.198515
   2 N :   -0.418203
   3 C :   -0.061656
   4 C :   -0.061990
   5 N :   -0.414738
   6 C :   -0.539632
   7 H :    0.283768
   8 H :    0.277803
   9 H :    0.264538
  10 C :   -0.517242
  11 H :    0.243320
  12 H :    0.282459
  13 H :    0.277668
  14 H :    0.303422
  15 H :    0.301545
  16 C :   -1.018468
  17 H :    0.289268
  18 H :    0.242242
  19 H :    0.231548
  20 H :    0.032737
Sum of atomic charges:    1.0000000

LOEWDIN ATOMIC CHARGES
----------------------
   0 Sc:    0.551179
   1 C :   -0.045852
   2 N :   -0.000182
   3 C :   -0.086183
   4 C :   -0.078723
   5 N :   -0.005715
   6 C :   -0.242825
   7 H :    0.160432
   8 H :    0.157557
   9 H :    0.147437
  10 C :   -0.233867
  11 H :    0.144444
  12 H :    0.156557
  13 H :    0.154082
  14 H :    0.169940
  15 H :    0.168709
  16 C :   -0.585604
  17 H :    0.170014
  18 H :    0.147847
  19 H :    0.154677
  20 H :   -0.003925

  Mayer bond orders larger than 0.100000
B(  0-Sc,  1-C ) :   0.6198 B(  0-Sc, 16-C ) :   0.9754 B(  0-Sc, 20-H ) :   0.9656
B(  1-C ,  2-N ) :   1.2382 B(  1-C ,  5-N ) :   1.2324 B(  2-N ,  3-C ) :   1.1418
B(  2-N , 10-C ) :   0.9135 B(  3-C ,  4-C ) :   1.6464 B(  3-C , 14-H ) :   0.8777
B(  4-C ,  5-N ) :   1.1359 B(  4-C , 15-H ) :   0.8789 B(  5-N ,  6-C ) :   0.9050
B(  6-C ,  7-H ) :   0.9026 B(  6-C ,  8-H ) :   0.8871 B(  6-C ,  9-H ) :   0.8981
B( 10-C , 11-H ) :   0.9147 B( 10-C , 12-H ) :   0.8935 B( 10-C , 13-H ) :   0.8942
B( 16-C , 17-H ) :   0.8844 B( 16-C , 18-H ) :   0.8960 B( 16-C , 19-H ) :   0.8768

Dispersion correction           -0.011023794
FINAL SINGLE POINT ENERGY     -1104.456599339552
Dispersion correction            ... done

DIPOLE MOMENT
-------------
                                X             Y             Z
Electronic contribution:      6.08860      -5.46038      -5.02070
Nuclear contribution   :     -4.77653       4.57537       5.42727
                        -----------------------------------------
Total Dipole Moment    :      1.31207      -0.88500       0.40657
                        -----------------------------------------
Magnitude (a.u.)       :      1.63403
Magnitude (Debye)      :      4.15338

Rotational constants in cm-1:     0.057271     0.028531     0.020839
Rotational constants in MHz :  1716.939726   855.351070   624.732396

                             ****ORCA TERMINATED NORMALLY****
TOTAL RUN TIME: 0 days 0 hours 2 minutes 0 seconds 887 msec
