                         Program Version 5.0.4 -  RELEASE  -
|  1> %pal nprocs 8 end
|  2>
|  3>  *xyzfile 1 1 cineb-10-peak.xyz
|  4>
|  5>
|  6>                          ****END OF INPUT****
|  1>
|  2>
|  3>   ! PBEh-3c OptTS Freq pal8
|  4>
|  5>   %geom
|  6>    calc_hess true
|  7>    recalc_hess 20
|  8>    maxiter 600
|  9>   end
| 10>
| 11>
| 12>                          ****END OF INPUT****
 Total Charge           Charge          ....    1
 Multiplicity           Mult            ....    1
 Number of Electrons    NEL             ....   82
Dispersion correction           -0.011142279
FINAL SINGLE POINT ENERGY     -1104.400632074002
Dispersion correction            ... done
Dispersion correction in the Hessian             ... done   (      0.6 sec)
Dispersion correction           -0.011082163
FINAL SINGLE POINT ENERGY     -1104.405707507902
Dispersion correction            ... done
Dispersion correction           -0.011054074
FINAL SINGLE POINT ENERGY     -1104.411835067667
FINAL SINGLE POINT ENERGY     -1104.418114409315
FINAL SINGLE POINT ENERGY     -1104.423161247214
FINAL SINGLE POINT ENERGY     -1104.428089775620
FINAL SINGLE POINT ENERGY     -1104.430514008651
FINAL SINGLE POINT ENERGY     -1104.430729247672
FINAL SINGLE POINT ENERGY     -1104.430734561018
FINAL SINGLE POINT ENERGY     -1104.430915403776
FINAL SINGLE POINT ENERGY     -1104.433154617656
FINAL SINGLE POINT ENERGY     -1104.433277547221
FINAL SINGLE POINT ENERGY     -1104.433318062454
FINAL SINGLE POINT ENERGY     -1104.433375393208
FINAL SINGLE POINT ENERGY     -1104.433407223084
FINAL SINGLE POINT ENERGY     -1104.433415675821
FINAL SINGLE POINT ENERGY     -1104.433416562000
Dispersion correction           -0.010726363
FINAL SINGLE POINT ENERGY     -1104.433420152883
Dispersion correction            ... done
                    ***********************HURRAY********************
Dispersion correction           -0.010726231
FINAL SINGLE POINT ENERGY     -1104.433419529128
Dispersion correction in the Hessian             ... done   (      0.6 sec)

VIBRATIONAL FREQUENCIES
-----------------------

Scaling factor for frequencies =  1.000000000  (already applied!)

   0:         0.00 cm**-1
   1:         0.00 cm**-1
   2:         0.00 cm**-1
   3:         0.00 cm**-1
   4:         0.00 cm**-1
   5:         0.00 cm**-1
   6:     -1140.30 cm**-1 ***imaginary mode***
   7:        36.66 cm**-1
   8:        58.44 cm**-1
   9:        80.67 cm**-1
  10:        95.52 cm**-1
  11:       105.99 cm**-1
  12:       121.96 cm**-1
  13:       141.98 cm**-1
  14:       218.64 cm**-1
  15:       232.61 cm**-1
  16:       256.21 cm**-1
  17:       286.34 cm**-1
  18:       333.45 cm**-1
  19:       465.51 cm**-1
  20:       478.23 cm**-1
  21:       639.15 cm**-1
  22:       654.64 cm**-1
  23:       697.40 cm**-1
  24:       776.66 cm**-1
  25:       797.57 cm**-1
  26:       855.28 cm**-1
  27:       913.31 cm**-1
  28:       917.35 cm**-1
  29:      1066.34 cm**-1
  30:      1088.88 cm**-1
  31:      1134.20 cm**-1
  32:      1138.53 cm**-1
  33:      1178.14 cm**-1
  34:      1182.14 cm**-1
  35:      1184.49 cm**-1
  36:      1287.37 cm**-1
  37:      1321.15 cm**-1
  38:      1425.19 cm**-1
  39:      1435.27 cm**-1
  40:      1452.54 cm**-1
  41:      1472.08 cm**-1
  42:      1498.54 cm**-1
  43:      1502.66 cm**-1
  44:      1517.22 cm**-1
  45:      1535.57 cm**-1
  46:      1539.75 cm**-1
  47:      1556.67 cm**-1
  48:      1561.63 cm**-1
  49:      1565.73 cm**-1
  50:      1610.04 cm**-1
  51:      1678.73 cm**-1
  52:      2463.22 cm**-1
  53:      3106.49 cm**-1
  54:      3130.30 cm**-1
  55:      3133.93 cm**-1
  56:      3222.11 cm**-1
  57:      3223.30 cm**-1
  58:      3234.70 cm**-1
  59:      3235.92 cm**-1
  60:      3257.00 cm**-1
  61:      3354.44 cm**-1
  62:      3373.41 cm**-1

IR SPECTRUM
-----------

 Mode   freq       eps      Int      T**2         TX        TY        TZ
       cm**-1   L/(mol*cm) km/mol    a.u.
----------------------------------------------------------------------------
  7:     36.66   0.000803    4.06  0.006838  ( 0.008227 -0.081715 -0.009629)
  8:     58.44   0.000068    0.35  0.000365  (-0.006118  0.000491  0.018092)
  9:     80.67   0.000498    2.52  0.001925  (-0.019453 -0.038276 -0.009051)
 10:     95.52   0.000350    1.77  0.001142  (-0.017153 -0.024259 -0.016101)
 11:    105.99   0.000131    0.66  0.000385  ( 0.010174  0.009161  0.014050)
 12:    121.96   0.001325    6.70  0.003391  ( 0.011895 -0.052558 -0.022071)
 13:    141.98   0.000334    1.69  0.000735  ( 0.017632  0.014477  0.014637)
 14:    218.64   0.001294    6.54  0.001846  ( 0.012854 -0.020859  0.035298)
 15:    232.61   0.001748    8.83  0.002344  (-0.031669  0.019697 -0.030881)
 16:    256.21   0.007916   40.00  0.009642  (-0.062062  0.051305  0.056192)
 17:    286.34   0.000232    1.17  0.000252  ( 0.010989 -0.008097 -0.008125)
 18:    333.45   0.002564   12.96  0.002400  ( 0.013844  0.000485 -0.046988)
 19:    465.51   0.003316   16.76  0.002223  (-0.027417 -0.017606 -0.034076)
 20:    478.23   0.006136   31.01  0.004004  ( 0.022546 -0.006008  0.058818)
 21:    639.15   0.000504    2.54  0.000246  ( 0.002602  0.001013 -0.015429)
 22:    654.64   0.000024    0.12  0.000012  ( 0.001512  0.002585  0.001613)
 23:    697.40   0.000411    2.08  0.000184  (-0.010976  0.006554 -0.004546)
 24:    776.66   0.002843   14.37  0.001142  ( 0.018431  0.027175  0.008015)
 25:    797.57   0.011966   60.47  0.004682  ( 0.057063 -0.037242  0.006232)
 26:    855.28   0.007967   40.26  0.002907  (-0.038333  0.022822  0.030278)
 27:    913.31   0.005220   26.38  0.001784  ( 0.009192  0.022765  0.034364)
 28:    917.35   0.000010    0.05  0.000003  ( 0.000134  0.001386  0.001143)
 29:   1066.34   0.000113    0.57  0.000033  (-0.002500 -0.005158 -0.000337)
 30:   1088.88   0.000028    0.14  0.000008  (-0.000724 -0.000800 -0.002639)
 31:   1134.20   0.000384    1.94  0.000106  (-0.005253 -0.005549  0.006881)
 32:   1138.53   0.000373    1.89  0.000102  (-0.003675 -0.005628 -0.007562)
 33:   1178.14   0.000374    1.89  0.000099  ( 0.004771  0.008690  0.000921)
 34:   1182.14   0.001448    7.32  0.000382  (-0.001591 -0.001206  0.019450)
 35:   1184.49   0.000502    2.54  0.000132  (-0.005208 -0.000886  0.010215)
 36:   1287.37   0.009351   47.25  0.002267  (-0.024073 -0.039992 -0.009367)
 37:   1321.15   0.008018   40.52  0.001894  ( 0.021268  0.031517  0.021169)
 38:   1425.19   0.001156    5.84  0.000253  (-0.008844 -0.011889  0.005799)
 39:   1435.27   0.000186    0.94  0.000040  (-0.000356  0.000569  0.006320)
 40:   1452.54   0.000683    3.45  0.000147  ( 0.006972  0.009510  0.002775)
 41:   1472.08   0.004093   20.68  0.000868  (-0.003529 -0.002832  0.029105)
 42:   1498.54   0.011312   57.17  0.002356  (-0.047076 -0.003916 -0.011142)
 43:   1502.66   0.001247    6.30  0.000259  (-0.011812 -0.009337 -0.005688)
 44:   1517.22   0.000423    2.14  0.000087  (-0.001719  0.003593 -0.008439)
 45:   1535.57   0.002703   13.66  0.000549  ( 0.004332 -0.022177 -0.006224)
 46:   1539.75   0.002865   14.48  0.000581  ( 0.023777 -0.003704 -0.001269)
 47:   1556.67   0.006434   32.51  0.001290  (-0.017555 -0.030737 -0.006070)
 48:   1561.63   0.002065   10.44  0.000413  (-0.007169  0.000145 -0.019009)
 49:   1565.73   0.004312   21.79  0.000859  ( 0.016333  0.023497  0.006372)
 50:   1610.04   0.011013   55.66  0.002135  (-0.023260 -0.000951 -0.039908)
 51:   1678.73   0.002964   14.98  0.000551  (-0.003680 -0.003196  0.022961)
 52:   2463.22   0.022834  115.40  0.002893  (-0.019757 -0.044839  0.022181)
 53:   3106.49   0.000469    2.37  0.000047  ( 0.003275 -0.004437  0.004087)
 54:   3130.30   0.002631   13.29  0.000262  (-0.009008 -0.013446 -0.000535)
 55:   3133.93   0.002287   11.56  0.000228  ( 0.008003  0.012716 -0.001419)
 56:   3222.11   0.000208    1.05  0.000020  ( 0.004069 -0.001891  0.000034)
 57:   3223.30   0.000588    2.97  0.000057  (-0.003090  0.000944 -0.006816)
 58:   3234.70   0.000127    0.64  0.000012  ( 0.003261 -0.001063 -0.000704)
 59:   3235.92   0.000173    0.88  0.000017  ( 0.001600 -0.002060 -0.003147)
 60:   3257.00   0.001500    7.58  0.000144  (-0.000527  0.000828  0.011946)
 61:   3354.44   0.002181   11.02  0.000203  (-0.007275 -0.011855 -0.003075)
 62:   3373.41   0.002120   10.71  0.000196  ( 0.002805  0.001835 -0.013596)

--------------------------
THERMOCHEMISTRY AT 298.15K
--------------------------

Temperature         ... 298.15 K
Pressure            ... 1.00 atm
Total Mass          ... 157.14 AMU

Throughout the following assumptions are being made:
  (1) The electronic state is orbitally nondegenerate
  (2) There are no thermally accessible electronically excited states
  (3) Hindered rotations indicated by low frequency modes are not
      treated as such but are treated as vibrations and this may
      cause some error
  (4) All equations used are the standard statistical mechanics
      equations for an ideal gas
  (5) All vibrations are strictly harmonic

freq.      36.66  E(vib)   ...       0.54
freq.      58.44  E(vib)   ...       0.51
freq.      80.67  E(vib)   ...       0.48
freq.      95.52  E(vib)   ...       0.47
freq.     105.99  E(vib)   ...       0.45
freq.     121.96  E(vib)   ...       0.44
freq.     141.98  E(vib)   ...       0.41
freq.     218.64  E(vib)   ...       0.33
freq.     232.61  E(vib)   ...       0.32
freq.     256.21  E(vib)   ...       0.30
freq.     286.34  E(vib)   ...       0.27
freq.     333.45  E(vib)   ...       0.24
freq.     465.51  E(vib)   ...       0.16
freq.     478.23  E(vib)   ...       0.15
freq.     639.15  E(vib)   ...       0.09
freq.     654.64  E(vib)   ...       0.08
freq.     697.40  E(vib)   ...       0.07
freq.     776.66  E(vib)   ...       0.05
freq.     797.57  E(vib)   ...       0.05
freq.     855.28  E(vib)   ...       0.04
freq.     913.31  E(vib)   ...       0.03
freq.     917.35  E(vib)   ...       0.03
freq.    1066.34  E(vib)   ...       0.02
freq.    1088.88  E(vib)   ...       0.02
freq.    1134.20  E(vib)   ...       0.01
freq.    1138.53  E(vib)   ...       0.01
freq.    1178.14  E(vib)   ...       0.01
freq.    1182.14  E(vib)   ...       0.01
freq.    1184.49  E(vib)   ...       0.01
freq.    1287.37  E(vib)   ...       0.01
freq.    1321.15  E(vib)   ...       0.01
freq.    1425.19  E(vib)   ...       0.00
freq.    1435.27  E(vib)   ...       0.00
freq.    1452.54  E(vib)   ...       0.00
freq.    1472.08  E(vib)   ...       0.00
freq.    1498.54  E(vib)   ...       0.00
freq.    1502.66  E(vib)   ...       0.00
freq.    1517.22  E(vib)   ...       0.00
freq.    1535.57  E(vib)   ...       0.00
freq.    1539.75  E(vib)   ...       0.00
freq.    1556.67  E(vib)   ...       0.00
freq.    1561.63  E(vib)   ...       0.00
freq.    1565.73  E(vib)   ...       0.00
freq.    1610.04  E(vib)   ...       0.00
freq.    1678.73  E(vib)   ...       0.00
freq.    2463.22  E(vib)   ...       0.00
freq.    3106.49  E(vib)   ...       0.00
freq.    3130.30  E(vib)   ...       0.00
freq.    3133.93  E(vib)   ...       0.00
freq.    3222.11  E(vib)   ...       0.00
freq.    3223.30  E(vib)   ...       0.00
freq.    3234.70  E(vib)   ...       0.00
freq.    3235.92  E(vib)   ...       0.00
freq.    3257.00  E(vib)   ...       0.00
freq.    3354.44  E(vib)   ...       0.00
freq.    3373.41  E(vib)   ...       0.00

------------
INNER ENERGY
------------

The inner energy is: U= E(el) + E(ZPE) + E(vib) + E(rot) + E(trans)
    E(el)   - is the total energy from the electronic structure calculation
              = E(kin-el) + E(nuc-el) + E(el-el) + E(nuc-nuc)
    E(ZPE)  - the the zero temperature vibrational energy from the frequency calculation
    E(vib)  - the the finite temperature correction to E(ZPE) due to population
              of excited vibrational states
    E(rot)  - is the rotational thermal energy
    E(trans)- is the translational thermal energy

Summary of contributions to the inner energy U:
Electronic energy                ...  -1104.43341953 Eh
Zero point energy                ...      0.17275628 Eh     108.41 kcal/mol
Thermal vibrational correction   ...      0.00905493 Eh       5.68 kcal/mol
Thermal rotational correction    ...      0.00141627 Eh       0.89 kcal/mol
Thermal translational correction ...      0.00141627 Eh       0.89 kcal/mol
-----------------------------------------------------------------------
Total thermal energy                  -1104.24877578 Eh

Summary of corrections to the electronic energy:
(perhaps to be used in another calculation)
Total thermal correction                  0.01188747 Eh       7.46 kcal/mol
Non-thermal (ZPE) correction              0.17275628 Eh     108.41 kcal/mol
-----------------------------------------------------------------------
Total correction                          0.18464375 Eh     115.87 kcal/mol

--------
ENTHALPY
--------

The enthalpy is H = U + kB*T
                kB is Boltzmann's constant
Total free energy                 ...  -1104.24877578 Eh
Thermal Enthalpy correction       ...      0.00094421 Eh       0.59 kcal/mol
-----------------------------------------------------------------------
Total Enthalpy                    ...  -1104.24783157 Eh

Note: Only C1 symmetry has been detected, increase convergence thresholds
      if your molecule has a higher symmetry. Symmetry factor of 1.0 is
      used for the rotational entropy correction.

Note: Rotational entropy computed according to Herzberg
Infrared and Raman Spectra, Chapter V,1, Van Nostrand Reinhold, 1945
Point Group:  C1, Symmetry Number:   1
Rotational constants in cm-1:     0.062910     0.026748     0.019910

Vibrational entropy computed according to the QRRHO of S. Grimme
Chem.Eur.J. 2012 18 9955

-------
ENTROPY
-------

The entropy contributions are T*S = T*(S(el)+S(vib)+S(rot)+S(trans))
     S(el)   - electronic entropy
     S(vib)  - vibrational entropy
     S(rot)  - rotational entropy
     S(trans)- translational entropy
The entropies will be listed as multiplied by the temperature to get
units of energy

Electronic entropy                ...      0.00000000 Eh      0.00 kcal/mol
Vibrational entropy               ...      0.01658853 Eh     10.41 kcal/mol
Rotational entropy                ...      0.01437517 Eh      9.02 kcal/mol
Translational entropy             ...      0.01951131 Eh     12.24 kcal/mol
-----------------------------------------------------------------------
Final entropy term                ...      0.05047501 Eh     31.67 kcal/mol

In case the symmetry of your molecule has not been determined correctly
or in case you have a reason to use a different symmetry number we print
out the resulting rotational entropy values for sn=1,12 :
 --------------------------------------------------------
|  sn= 1 | S(rot)=       0.01437517 Eh      9.02 kcal/mol|
|  sn= 2 | S(rot)=       0.01372071 Eh      8.61 kcal/mol|
|  sn= 3 | S(rot)=       0.01333788 Eh      8.37 kcal/mol|
|  sn= 4 | S(rot)=       0.01306626 Eh      8.20 kcal/mol|
|  sn= 5 | S(rot)=       0.01285557 Eh      8.07 kcal/mol|
|  sn= 6 | S(rot)=       0.01268343 Eh      7.96 kcal/mol|
|  sn= 7 | S(rot)=       0.01253788 Eh      7.87 kcal/mol|

|  1>
|  2>
|  3>   ! PBEh-3c IRC pal8
|  4>   %irc
|  5>     maxiter 600
|  6>     inithess read
|  7>     hess_filename "reaction-5-cineb10_optts_Compound_1.hess"
|  8>   end
|  9>
| 10>
| 11>                          ****END OF INPUT****

CARTESIAN COORDINATES (ANGSTROEM)
---------------------------------
  Sc     0.759738    0.099319   -1.908670
  C      0.266055   -0.143067    0.367851
  N     -0.444042   -1.135664    0.935830
  C     -0.508419   -0.985397    2.295109
  C      0.181247    0.137516    2.591148
  N      0.642184    0.634686    1.401382
  C      1.450279    1.833425    1.296795
  H      1.037564    2.617658    1.927171
  H      1.445255    2.194268    0.269897
  H      2.477554    1.638743    1.599153
  C     -1.065787   -2.239342    0.226643
  H     -1.061101   -2.039452   -0.843614
  H     -2.098363   -2.353682    0.548918
  H     -0.528631   -3.166819    0.414874
  H     -1.033420   -1.672364    2.936711
  H      0.370342    0.611815    3.539020
  C     -0.311583    0.862426   -3.489769
  H     -0.475864    0.763412   -4.559419
  H      0.527782    1.649428   -3.373237
  H     -1.222802    1.297628   -3.055278
  H     -0.400939   -0.594637   -3.123115

 Multiplicity           Mult            ....    1
 Number of Electrons    NEL             ....   82
 Basis Dimension        Dim             ....  175

ORBITAL ENERGIES
----------------

  NO   OCC          E(Eh)            E(eV)
   0   2.0000    -162.824694     -4430.6852
   1   2.0000     -18.133786      -493.4454
   2   2.0000     -14.976107      -407.5206
   3   2.0000     -14.968293      -407.3080
   4   2.0000     -14.963043      -407.1651
   5   2.0000     -14.859451      -404.3462
   6   2.0000     -14.858117      -404.3099
   7   2.0000     -10.638252      -289.4816
   8   2.0000     -10.624048      -289.0950
   9   2.0000     -10.622910      -289.0641
  10   2.0000     -10.622662      -289.0573
  11   2.0000     -10.613824      -288.8168
  12   2.0000     -10.584721      -288.0249
  13   2.0000      -2.361234       -64.2524
  14   2.0000      -1.519732       -41.3540
  15   2.0000      -1.504617       -40.9427
  16   2.0000      -1.501316       -40.8529
  17   2.0000      -1.307867       -35.5889
  18   2.0000      -1.185102       -32.2483
  19   2.0000      -1.022286       -27.8178
  20   2.0000      -0.978463       -26.6253
  21   2.0000      -0.923569       -25.1316
  22   2.0000      -0.914591       -24.8873
  23   2.0000      -0.839518       -22.8445
  24   2.0000      -0.801463       -21.8089
  25   2.0000      -0.747974       -20.3534
  26   2.0000      -0.700549       -19.0629
  27   2.0000      -0.672952       -18.3120
  28   2.0000      -0.655132       -17.8271
  29   2.0000      -0.653932       -17.7944
  30   2.0000      -0.647056       -17.6073
  31   2.0000      -0.617845       -16.8124
  32   2.0000      -0.605897       -16.4873
  33   2.0000      -0.602293       -16.3892
  34   2.0000      -0.594301       -16.1718
  35   2.0000      -0.588318       -16.0089
  36   2.0000      -0.555331       -15.1113
  37   2.0000      -0.504174       -13.7193
  38   2.0000      -0.482822       -13.1383
  39   2.0000      -0.433183       -11.7875
  40   2.0000      -0.333588        -9.0774
  41   0.0000      -0.165037        -4.4909
  42   0.0000      -0.157354        -4.2818
  43   0.0000      -0.144331        -3.9274
  44   0.0000      -0.125679        -3.4199
  45   0.0000      -0.120199        -3.2708

MULLIKEN ATOMIC CHARGES
-----------------------
   0 Sc:    0.580909
   1 C :    0.175719
   2 N :   -0.412647
   3 C :   -0.064109
   4 C :   -0.066991
   5 N :   -0.416457
   6 C :   -0.518449
   7 H :    0.279679
   8 H :    0.241314
   9 H :    0.274472
  10 C :   -0.528554
  11 H :    0.262970
  12 H :    0.275530
  13 H :    0.272629
  14 H :    0.301037
  15 H :    0.300432
  16 C :   -0.934434
  17 H :    0.326607
  18 H :    0.215689
  19 H :    0.299006
  20 H :    0.135647
Sum of atomic charges:    1.0000000

LOEWDIN ATOMIC CHARGES
----------------------
   0 Sc:    0.170352
   1 C :   -0.047164
   2 N :    0.001067
   3 C :   -0.081887
   4 C :   -0.083422
   5 N :   -0.003965
   6 C :   -0.236325
   7 H :    0.156441
   8 H :    0.144107
   9 H :    0.150621
  10 C :   -0.240975
  11 H :    0.154637
  12 H :    0.154203
  13 H :    0.150570
  14 H :    0.167895
  15 H :    0.167375
  16 C :   -0.409457
  17 H :    0.177759
  18 H :    0.175916
  19 H :    0.188028
  20 H :    0.144224

  Mayer bond orders larger than 0.100000
B(  0-Sc,  1-C ) :   0.6279 B(  0-Sc, 16-C ) :   0.8052 B(  0-Sc, 18-H ) :   0.1942
B(  0-Sc, 20-H ) :   0.6511 B(  1-C ,  2-N ) :   1.2313 B(  1-C ,  5-N ) :   1.2204
B(  2-N ,  3-C ) :   1.1474 B(  2-N , 10-C ) :   0.9120 B(  3-C ,  4-C ) :   1.6419
B(  3-C , 14-H ) :   0.8797 B(  4-C ,  5-N ) :   1.1436 B(  4-C , 15-H ) :   0.8798
B(  5-N ,  6-C ) :   0.9189 B(  6-C ,  7-H ) :   0.8984 B(  6-C ,  8-H ) :   0.9038
B(  6-C ,  9-H ) :   0.8938 B( 10-C , 11-H ) :   0.8848 B( 10-C , 12-H ) :   0.8987
B( 10-C , 13-H ) :   0.8955 B( 16-C , 17-H ) :   0.8819 B( 16-C , 18-H ) :   0.7409
B( 16-C , 19-H ) :   0.8523 B( 16-C , 20-H ) :   0.3080

Dispersion correction           -0.010726231
FINAL SINGLE POINT ENERGY     -1104.433419561849
Dispersion correction            ... done

DIPOLE MOMENT
-------------
                                X             Y             Z
Electronic contribution:      5.63273      -0.90060      -2.72694
Nuclear contribution   :     -4.95289       1.04511       2.72675
                        -----------------------------------------
Total Dipole Moment    :      0.67984       0.14451      -0.00018
                        -----------------------------------------
Magnitude (a.u.)       :      0.69503
Magnitude (Debye)      :      1.76662

Rotational constants in cm-1:     0.062910     0.026748     0.019910
Rotational constants in MHz :  1885.997161   801.870490   596.899497

                      ***********************HURRAY********************
                             ****ORCA TERMINATED NORMALLY****
TOTAL RUN TIME: 0 days 1 hours 46 minutes 15 seconds 70 msec
