                         Program Version 5.0.4 -  RELEASE  -
|  1> ! PBEh-3c OPT pal4
|  2>
|  3> %geom
|  4>  maxiter 600
|  5> end
|  6>
|  7> *xyzfile 0 1 reaction-7-prod-xtb.xyz
|  8>
|  9>                          ****END OF INPUT****
 Total Charge           Charge          ....    0
 Multiplicity           Mult            ....    1
 Number of Electrons    NEL             ....  132
Dispersion correction           -0.017310900
FINAL SINGLE POINT ENERGY     -1702.384160209436
Dispersion correction            ... done
Dispersion correction           -0.017394699
FINAL SINGLE POINT ENERGY     -1702.387480564234
Dispersion correction            ... done
Dispersion correction           -0.017427257
FINAL SINGLE POINT ENERGY     -1702.390217459276
Dispersion correction            ... done
FINAL SINGLE POINT ENERGY     -1702.392248673302
FINAL SINGLE POINT ENERGY     -1702.393610606601
FINAL SINGLE POINT ENERGY     -1702.394439192041
FINAL SINGLE POINT ENERGY     -1702.394921936256
FINAL SINGLE POINT ENERGY     -1702.395206142262
FINAL SINGLE POINT ENERGY     -1702.395448734251
FINAL SINGLE POINT ENERGY     -1702.395709996764
FINAL SINGLE POINT ENERGY     -1702.396500828670
FINAL SINGLE POINT ENERGY     -1702.396529421529
FINAL SINGLE POINT ENERGY     -1702.396543541388
FINAL SINGLE POINT ENERGY     -1702.396565185933
FINAL SINGLE POINT ENERGY     -1702.396581402217
FINAL SINGLE POINT ENERGY     -1702.396600479836
FINAL SINGLE POINT ENERGY     -1702.396617018683
Dispersion correction            ... done
Dispersion correction           -0.017874809
FINAL SINGLE POINT ENERGY     -1702.396630179667
Dispersion correction            ... done
Dispersion correction           -0.017877538
FINAL SINGLE POINT ENERGY     -1702.396639942582
Dispersion correction            ... done
                    ***********************HURRAY********************

CARTESIAN COORDINATES (ANGSTROEM)
---------------------------------
  Lu     0.120420    0.428746   -0.280003
  C      0.179629    1.156147    2.190536
  C      1.029041    0.030681    2.114385
  C      2.150133    0.383055    1.339726
  C      1.990699    1.721335    0.925541
  C      0.774495    2.200885    1.461184
  H      2.699093    2.291314    0.340867
  H      0.365427    3.191844    1.331247
  H     -0.760432    1.209844    2.719958
  H      0.867003   -0.922316    2.597626
  H      2.990308   -0.256471    1.114924
  C      1.141406   -0.044403   -2.595621
  C     -0.213702   -0.431359   -2.686040
  C      0.840225   -1.861203   -1.251707
  C      1.792398   -0.935634   -1.718253
  H      1.609580    0.763230   -3.140976
  C     -0.399005   -1.549241   -1.853161
  H     -0.975449    0.046878   -3.282379
  H      2.840524   -0.919251   -1.459568
  H      1.033331   -2.685345   -0.579460
  H     -1.327167   -2.083879   -1.709002
  C     -2.045706   -1.765303    1.421809
  H     -2.180707   -1.685638    2.496988
  H     -2.697491   -2.538541    1.024228
  H     -2.307398   -0.813499    0.959363
  C     -1.858702    1.603314   -0.614712
  H     -1.012190   -2.038300    1.215281
  H     -1.696584    2.463228   -1.280402
  H     -2.299735    2.022445    0.296413
  H     -2.649412    1.017458   -1.098803

 Multiplicity           Mult            ....    1
 Number of Electrons    NEL             ....  132
 Basis Dimension        Dim             ....  295

ORBITAL ENERGIES
----------------

  NO   OCC          E(Eh)            E(eV)
   0   2.0000     -19.242266      -523.6087
   1   2.0000     -12.614846      -343.2674
   2   2.0000     -12.612197      -343.1953
   3   2.0000     -12.611591      -343.1788
   4   2.0000     -10.447198      -284.2827
   5   2.0000     -10.447132      -284.2809
   6   2.0000     -10.446162      -284.2545
   7   2.0000     -10.445865      -284.2464
   8   2.0000     -10.445528      -284.2373
   9   2.0000     -10.445424      -284.2344
  10   2.0000     -10.445100      -284.2256
  11   2.0000     -10.444290      -284.2036
  12   2.0000     -10.443655      -284.1863
  13   2.0000     -10.443563      -284.1838
  14   2.0000     -10.435575      -283.9664
  15   2.0000     -10.359827      -281.9052
  16   2.0000      -5.883781      -160.1058
  17   2.0000      -5.883492      -160.0980
  18   2.0000      -5.882842      -160.0803
  19   2.0000      -5.881323      -160.0389
  20   2.0000      -5.881100      -160.0329
  21   2.0000      -2.426397       -66.0256
  22   2.0000      -1.267130       -34.4804
  23   2.0000      -1.265847       -34.4454
  24   2.0000      -1.254588       -34.1391
  25   2.0000      -0.981791       -26.7159
  26   2.0000      -0.971347       -26.4317
  27   2.0000      -0.799333       -21.7510
  28   2.0000      -0.795787       -21.6545
  29   2.0000      -0.794892       -21.6301
  30   2.0000      -0.792681       -21.5699
  31   2.0000      -0.792074       -21.5534
  32   2.0000      -0.701722       -19.0948
  33   2.0000      -0.615936       -16.7605
  34   2.0000      -0.613647       -16.6982
  35   2.0000      -0.611322       -16.6349
  36   2.0000      -0.610943       -16.6246
  37   2.0000      -0.598001       -16.2724
  38   2.0000      -0.593110       -16.1393
  39   2.0000      -0.551886       -15.0176
  40   2.0000      -0.550247       -14.9730
  41   2.0000      -0.550129       -14.9698
  42   2.0000      -0.548955       -14.9378
  43   2.0000      -0.548501       -14.9255
  44   2.0000      -0.547116       -14.8878
  45   2.0000      -0.545405       -14.8412
  46   2.0000      -0.475251       -12.9322
  47   2.0000      -0.470834       -12.8120
  48   2.0000      -0.467035       -12.7087
  49   2.0000      -0.460071       -12.5192
  50   2.0000      -0.454018       -12.3544
  51   2.0000      -0.452183       -12.3045
  52   2.0000      -0.450691       -12.2639
  53   2.0000      -0.450384       -12.2556
  54   2.0000      -0.434557       -11.8249
  55   2.0000      -0.433372       -11.7927
  56   2.0000      -0.432178       -11.7602
  57   2.0000      -0.431409       -11.7392
  58   2.0000      -0.430011       -11.7012
  59   2.0000      -0.396157       -10.7800
  60   2.0000      -0.393972       -10.7205
  61   2.0000      -0.291872        -7.9422
  62   2.0000      -0.289182        -7.8690
  63   2.0000      -0.279620        -7.6088
  64   2.0000      -0.267960        -7.2916
  65   2.0000      -0.258995        -7.0476
  66   0.0000      -0.017239        -0.4691
  67   0.0000       0.008213         0.2235
  68   0.0000       0.044444         1.2094
  69   0.0000       0.052088         1.4174
  70   0.0000       0.053768         1.4631

MULLIKEN ATOMIC CHARGES
-----------------------
   0 Lu:    0.832336
   1 C :   -0.279665
   2 C :   -0.306177
   3 C :   -0.256364
   4 C :   -0.322666
   5 C :   -0.267083
   6 H :    0.240730
   7 H :    0.248748
   8 H :    0.244915
   9 H :    0.236940
  10 H :    0.233903
  11 C :   -0.323244
  12 C :   -0.257971
  13 C :   -0.304288
  14 C :   -0.263311
  15 H :    0.241076
  16 C :   -0.285652
  17 H :    0.248621
  18 H :    0.235123
  19 H :    0.237997
  20 H :    0.243159
  21 C :   -0.936632
  22 H :    0.246257
  23 H :    0.247587
  24 H :    0.265181
  25 C :   -1.084611
  26 H :    0.227904
  27 H :    0.218958
  28 H :    0.219572
  29 H :    0.218657
Sum of atomic charges:   -0.0000000

LOEWDIN ATOMIC CHARGES
----------------------
   0 Lu:   -0.022248
   1 C :   -0.133843
   2 C :   -0.149450
   3 C :   -0.128083
   4 C :   -0.151023
   5 C :   -0.128257
   6 H :    0.155301
   7 H :    0.160110
   8 H :    0.157878
   9 H :    0.152787
  10 H :    0.152314
  11 C :   -0.149716
  12 C :   -0.125060
  13 C :   -0.148310
  14 C :   -0.130300
  15 H :    0.155610
  16 C :   -0.139081
  17 H :    0.160596
  18 H :    0.152748
  19 H :    0.153469
  20 H :    0.156399
  21 C :   -0.500034
  22 H :    0.140081
  23 H :    0.140175
  24 H :    0.160367
  25 C :   -0.648249
  26 H :    0.142164
  27 H :    0.143241
  28 H :    0.134685
  29 H :    0.135730

  Mayer bond orders larger than 0.100000
B(  0-Lu,  1-C ) :   0.2535 B(  0-Lu,  2-C ) :   0.2702 B(  0-Lu,  3-C ) :   0.2534
B(  0-Lu,  4-C ) :   0.2784 B(  0-Lu,  5-C ) :   0.2465 B(  0-Lu, 11-C ) :   0.2782
B(  0-Lu, 12-C ) :   0.2353 B(  0-Lu, 13-C ) :   0.2686 B(  0-Lu, 14-C ) :   0.2531
B(  0-Lu, 16-C ) :   0.2645 B(  0-Lu, 25-C ) :   0.8216 B(  1-C ,  2-C ) :   1.2732
B(  1-C ,  5-C ) :   1.3136 B(  1-C ,  8-H ) :   0.9120 B(  2-C ,  3-C ) :   1.2992
B(  2-C ,  9-H ) :   0.9154 B(  3-C ,  4-C ) :   1.2872 B(  3-C , 10-H ) :   0.9174
B(  4-C ,  5-C ) :   1.2754 B(  4-C ,  6-H ) :   0.9148 B(  5-C ,  7-H ) :   0.9111
B( 11-C , 12-C ) :   1.2815 B( 11-C , 14-C ) :   1.2886 B( 11-C , 15-H ) :   0.9149
B( 12-C , 16-C ) :   1.3114 B( 12-C , 17-H ) :   0.9119 B( 13-C , 14-C ) :   1.2974
B( 13-C , 16-C ) :   1.2714 B( 13-C , 19-H ) :   0.9145 B( 14-C , 18-H ) :   0.9166
B( 16-C , 20-H ) :   0.9118 B( 21-C , 22-H ) :   0.9176 B( 21-C , 23-H ) :   0.9179
B( 21-C , 24-H ) :   0.8839 B( 21-C , 26-H ) :   0.9027 B( 25-C , 27-H ) :   0.8983
B( 25-C , 28-H ) :   0.9043 B( 25-C , 29-H ) :   0.9028

Dispersion correction           -0.017877999
FINAL SINGLE POINT ENERGY     -1702.396647739472

DIPOLE MOMENT
-------------
                                X             Y             Z
Electronic contribution:     -0.62440      20.18954     -12.07879
Nuclear contribution   :      0.93545     -20.64956      12.28431
                        -----------------------------------------
Total Dipole Moment    :      0.31106      -0.46002       0.20552
                        -----------------------------------------
Magnitude (a.u.)       :      0.59213
Magnitude (Debye)      :      1.50507

Rotational constants in cm-1:     0.028889     0.020044     0.017949
Rotational constants in MHz :   866.064261   600.895693   538.097570

                             ****ORCA TERMINATED NORMALLY****
TOTAL RUN TIME: 0 days 0 hours 56 minutes 57 seconds 565 msec
