                         Program Version 5.0.3 -  RELEASE  -
|  1> ! EnGrad PBEh-3c
|  2> %output
|  3> xyzfile=True
|  4> end
|  5> %scf
|  6> maxiter 250
|  7> end
|  8> %output
|  9> Print[P_Hirshfeld] = 1
| 10> end
| 11> % maxcore
| 12> 4000
| 13> *xyz 1 1
| 14> Sc   1.69058828  -1.29189481  -1.48782311
| 15> C    0.35302645  -0.59290994   0.20898051
| 16> N   -0.47610630  -1.36812110   0.92664603
| 17> C   -0.79062384  -0.76734202   2.10957549
| 18> C   -0.13604140   0.41350437   2.13150177
| 19> N    0.56826543   0.49838735   0.96832033
| 20> C    1.42729771   1.61337184   0.63517684
| 21> H    1.55209286   2.34321698   1.43182146
| 22> H    0.99198125   2.15394074  -0.20070779
| 23> H    2.42903084   1.28840110   0.36518077
| 24> C   -0.98719322  -2.67517797   0.55556860
| 25> H   -0.58957589  -2.97041989  -0.41149661
| 26> H   -2.07280046  -2.63951234   0.49045916
| 27> H   -0.69296737  -3.41915928   1.29194573
| 28> H   -1.44046795  -1.21385248   2.84268488
| 29> H   -0.14070817   1.16705300   2.89981638
| 30> C   -0.26073124   1.68538491  -2.86524271
| 31> H   -0.95206853   1.70313944  -3.72418994
| 32> H    0.22259474   2.66445668  -2.93365632
| 33> H   -0.86739359   1.66819526  -1.95761001
| 34> H    0.17182445  -0.26064996  -3.27695738
| 35> *
| 36>
| 37>                          ****END OF INPUT****

CARTESIAN COORDINATES (ANGSTROEM)
---------------------------------
  Sc     1.690588   -1.291895   -1.487823
  C      0.353026   -0.592910    0.208981
  N     -0.476106   -1.368121    0.926646
  C     -0.790624   -0.767342    2.109575
  C     -0.136041    0.413504    2.131502
  N      0.568265    0.498387    0.968320
  C      1.427298    1.613372    0.635177
  H      1.552093    2.343217    1.431821
  H      0.991981    2.153941   -0.200708
  H      2.429031    1.288401    0.365181
  C     -0.987193   -2.675178    0.555569
  H     -0.589576   -2.970420   -0.411497
  H     -2.072800   -2.639512    0.490459
  H     -0.692967   -3.419159    1.291946
  H     -1.440468   -1.213852    2.842685
  H     -0.140708    1.167053    2.899816
  C     -0.260731    1.685385   -2.865243
  H     -0.952069    1.703139   -3.724190
  H      0.222595    2.664457   -2.933656
  H     -0.867394    1.668195   -1.957610
  H      0.171824   -0.260650   -3.276957

 Total Charge           Charge          ....    1
 Multiplicity           Mult            ....    1
 Number of Electrons    NEL             ....   82
 Basis Dimension        Dim             ....  175

ORBITAL ENERGIES
----------------

  NO   OCC          E(Eh)            E(eV)
   0   2.0000    -162.908761     -4432.9727
   1   2.0000     -18.217208      -495.7154
   2   2.0000     -15.058785      -409.7704
   3   2.0000     -15.054654      -409.6580
   4   2.0000     -15.043389      -409.3514
   5   2.0000     -14.865977      -404.5238
   6   2.0000     -14.865184      -404.5022
   7   2.0000     -10.646440      -289.7044
   8   2.0000     -10.627755      -289.1959
   9   2.0000     -10.624924      -289.1189
  10   2.0000     -10.622566      -289.0547
  11   2.0000     -10.620832      -289.0075
  12   2.0000     -10.587579      -288.1027
  13   2.0000      -2.425008       -65.9878
  14   2.0000      -1.575135       -42.8616
  15   2.0000      -1.563162       -42.5358
  16   2.0000      -1.557518       -42.3822
  17   2.0000      -1.315547       -35.7979
  18   2.0000      -1.192903       -32.4605
  19   2.0000      -1.026593       -27.9350
  20   2.0000      -0.984088       -26.7784
  21   2.0000      -0.929526       -25.2937
  22   2.0000      -0.872796       -23.7500
  23   2.0000      -0.846054       -23.0223
  24   2.0000      -0.807500       -21.9732
  25   2.0000      -0.754607       -20.5339
  26   2.0000      -0.706650       -19.2289
  27   2.0000      -0.677268       -18.4294
  28   2.0000      -0.662847       -18.0370
  29   2.0000      -0.659226       -17.9385
  30   2.0000      -0.651309       -17.7230
  31   2.0000      -0.602598       -16.3975
  32   2.0000      -0.599108       -16.3026
  33   2.0000      -0.592586       -16.1251
  34   2.0000      -0.572814       -15.5871
  35   2.0000      -0.558031       -15.1848
  36   2.0000      -0.517168       -14.0729
  37   2.0000      -0.489193       -13.3116
  38   2.0000      -0.455751       -12.4016
  39   2.0000      -0.435783       -11.8583
  40   2.0000      -0.319663        -8.6985
  41   0.0000      -0.206580        -5.6213
  42   0.0000      -0.187492        -5.1019
  43   0.0000      -0.183424        -4.9912
  44   0.0000      -0.175397        -4.7728
  45   0.0000      -0.164096        -4.4653

MULLIKEN ATOMIC CHARGES
-----------------------
   0 Sc:    0.533896
   1 C :    0.227197
   2 N :   -0.411179
   3 C :   -0.067619
   4 C :   -0.066423
   5 N :   -0.416917
   6 C :   -0.539635
   7 H :    0.287935
   8 H :    0.278673
   9 H :    0.258356
  10 C :   -0.517084
  11 H :    0.250729
  12 H :    0.284106
  13 H :    0.274581
  14 H :    0.303716
  15 H :    0.304485
  16 C :   -0.781574
  17 H :    0.270417
  18 H :    0.254601
  19 H :    0.231636
  20 H :    0.040102
Sum of atomic charges:    1.0000000

LOEWDIN ATOMIC CHARGES
----------------------
   0 Sc:    0.364568
   1 C :   -0.038201
   2 N :    0.008937
   3 C :   -0.085277
   4 C :   -0.078464
   5 N :    0.006070
   6 C :   -0.244212
   7 H :    0.161933
   8 H :    0.152337
   9 H :    0.148506
  10 C :   -0.236546
  11 H :    0.148512
  12 H :    0.157866
  13 H :    0.153432
  14 H :    0.168556
  15 H :    0.168277
  16 C :   -0.467950
  17 H :    0.151043
  18 H :    0.149666
  19 H :    0.132571
  20 H :    0.078378

  Mayer bond orders larger than 0.100000
B(  0-Sc,  1-C ) :   0.7165 B(  0-Sc, 16-C ) :   0.3254 B(  0-Sc, 20-H ) :   0.3582
B(  1-C ,  2-N ) :   1.2285 B(  1-C ,  5-N ) :   1.2166 B(  2-N ,  3-C ) :   1.1563
B(  2-N , 10-C ) :   0.9110 B(  3-C ,  4-C ) :   1.6324 B(  3-C , 14-H ) :   0.8780
B(  4-C ,  5-N ) :   1.1505 B(  4-C , 15-H ) :   0.8776 B(  5-N ,  6-C ) :   0.9133
B(  6-C ,  7-H ) :   0.9006 B(  6-C ,  8-H ) :   0.8883 B(  6-C ,  9-H ) :   0.8937
B( 10-C , 11-H ) :   0.8971 B( 10-C , 12-H ) :   0.8928 B( 10-C , 13-H ) :   0.8955
B( 16-C , 17-H ) :   0.9065 B( 16-C , 18-H ) :   0.9069 B( 16-C , 19-H ) :   0.9088
B( 16-C , 20-H ) :   0.6266

Dispersion correction           -0.011196822
FINAL SINGLE POINT ENERGY     -1104.299749747738
Dispersion correction            ... done

DIPOLE MOMENT
-------------
                                X             Y             Z
Electronic contribution:     10.38260     -10.11690      -1.49665
Nuclear contribution   :     -9.81918       9.76982       1.68134
                        -----------------------------------------
Total Dipole Moment    :      0.56341      -0.34708       0.18469
                        -----------------------------------------
Magnitude (a.u.)       :      0.68703
Magnitude (Debye)      :      1.74628

Rotational constants in cm-1:     0.041359     0.029543     0.022802
Rotational constants in MHz :  1239.903369   885.667936   683.577179

                             ****ORCA TERMINATED NORMALLY****
TOTAL RUN TIME: 0 days 0 hours 4 minutes 38 seconds 134 msec
