                         Program Version 5.0.3 -  RELEASE  -
|  1> ! EnGrad PBEh-3c
|  2> %output
|  3> xyzfile=True
|  4> end
|  5> %scf
|  6> maxiter 250
|  7> end
|  8> %output
|  9> Print[P_Hirshfeld] = 1
| 10> end
| 11> % maxcore
| 12> 4000
| 13> *xyz 1 1
| 14> Sc   1.23609889  -0.73574124  -1.93282909
| 15> C    0.38406646  -0.58370673   0.21827122
| 16> N   -0.44719788  -1.36164032   0.94461937
| 17> C   -0.77545057  -0.77227936   2.13676273
| 18> C   -0.11996830   0.40656466   2.18096660
| 19> N    0.58590576   0.49416435   1.01226972
| 20> C    1.41147947   1.61813269   0.63584087
| 21> H    1.41497518   2.35119918   1.44331195
| 22> H    1.02332864   2.10929555  -0.25023911
| 23> H    2.43901510   1.30411158   0.45747693
| 24> C   -0.96332537  -2.65187705   0.54557339
| 25> H   -0.61147307  -2.90354660  -0.44878706
| 26> H   -2.05059642  -2.63534701   0.51742592
| 27> H   -0.63326637  -3.42276078   1.24070539
| 28> H   -1.44235091  -1.22958469   2.85316762
| 29> H   -0.09446271   1.16916788   2.94862044
| 30> C   -0.24894542   1.38050342  -2.85611072
| 31> H   -0.83100020   1.50701277  -3.73778631
| 32> H    0.53378903   2.12876621  -2.91711750
| 33> H   -0.87738979   1.59593621  -2.01317379
| 34> H    0.07456733   0.24192795  -2.98146221
| 35> *
| 36>
| 37>                          ****END OF INPUT****

CARTESIAN COORDINATES (ANGSTROEM)
---------------------------------
  Sc     1.236099   -0.735741   -1.932829
  C      0.384066   -0.583707    0.218271
  N     -0.447198   -1.361640    0.944619
  C     -0.775451   -0.772279    2.136763
  C     -0.119968    0.406565    2.180967
  N      0.585906    0.494164    1.012270
  C      1.411479    1.618133    0.635841
  H      1.414975    2.351199    1.443312
  H      1.023329    2.109296   -0.250239
  H      2.439015    1.304112    0.457477
  C     -0.963325   -2.651877    0.545573
  H     -0.611473   -2.903547   -0.448787
  H     -2.050596   -2.635347    0.517426
  H     -0.633266   -3.422761    1.240705
  H     -1.442351   -1.229585    2.853168
  H     -0.094463    1.169168    2.948620
  C     -0.248945    1.380503   -2.856111
  H     -0.831000    1.507013   -3.737786
  H      0.533789    2.128766   -2.917117
  H     -0.877390    1.595936   -2.013174
  H      0.074567    0.241928   -2.981462

 Total Charge           Charge          ....    1
 Multiplicity           Mult            ....    1
 Number of Electrons    NEL             ....   82
 Basis Dimension        Dim             ....  175

ORBITAL ENERGIES
----------------

  NO   OCC          E(Eh)            E(eV)
   0   2.0000    -162.844524     -4431.2248
   1   2.0000     -18.150515      -493.9006
   2   2.0000     -14.993666      -407.9984
   3   2.0000     -14.985071      -407.7645
   4   2.0000     -14.978548      -407.5870
   5   2.0000     -14.854182      -404.2028
   6   2.0000     -14.853295      -404.1787
   7   2.0000     -10.635401      -289.4040
   8   2.0000     -10.621907      -289.0368
   9   2.0000     -10.619317      -288.9663
  10   2.0000     -10.618108      -288.9334
  11   2.0000     -10.611990      -288.7669
  12   2.0000     -10.592814      -288.2451
  13   2.0000      -2.374996       -64.6269
  14   2.0000      -1.533939       -41.7406
  15   2.0000      -1.514275       -41.2055
  16   2.0000      -1.510312       -41.0977
  17   2.0000      -1.302568       -35.4447
  18   2.0000      -1.181232       -32.1430
  19   2.0000      -1.019891       -27.7526
  20   2.0000      -0.974424       -26.5154
  21   2.0000      -0.949405       -25.8346
  22   2.0000      -0.920508       -25.0483
  23   2.0000      -0.834640       -22.7117
  24   2.0000      -0.798344       -21.7241
  25   2.0000      -0.744486       -20.2585
  26   2.0000      -0.697363       -18.9762
  27   2.0000      -0.668719       -18.1968
  28   2.0000      -0.654105       -17.7991
  29   2.0000      -0.650197       -17.6928
  30   2.0000      -0.644778       -17.5453
  31   2.0000      -0.642898       -17.4941
  32   2.0000      -0.617085       -16.7917
  33   2.0000      -0.608220       -16.5505
  34   2.0000      -0.596089       -16.2204
  35   2.0000      -0.591272       -16.0893
  36   2.0000      -0.585083       -15.9209
  37   2.0000      -0.506456       -13.7814
  38   2.0000      -0.479221       -13.0403
  39   2.0000      -0.428248       -11.6532
  40   2.0000      -0.299890        -8.1604
  41   0.0000      -0.178249        -4.8504
  42   0.0000      -0.157726        -4.2919
  43   0.0000      -0.154024        -4.1912
  44   0.0000      -0.143183        -3.8962
  45   0.0000      -0.132285        -3.5997

MULLIKEN ATOMIC CHARGES
-----------------------
   0 Sc:    0.466835
   1 C :    0.210811
   2 N :   -0.421299
   3 C :   -0.068690
   4 C :   -0.069329
   5 N :   -0.414772
   6 C :   -0.529759
   7 H :    0.278863
   8 H :    0.249102
   9 H :    0.274319
  10 C :   -0.515177
  11 H :    0.245149
  12 H :    0.272720
  13 H :    0.273445
  14 H :    0.299202
  15 H :    0.299209
  16 C :   -0.883573
  17 H :    0.318501
  18 H :    0.274253
  19 H :    0.283915
  20 H :    0.156277
Sum of atomic charges:    1.0000000

LOEWDIN ATOMIC CHARGES
----------------------
   0 Sc:    0.241048
   1 C :   -0.032551
   2 N :   -0.001355
   3 C :   -0.089236
   4 C :   -0.083205
   5 N :   -0.006975
   6 C :   -0.240533
   7 H :    0.158194
   8 H :    0.137964
   9 H :    0.154622
  10 C :   -0.237922
  11 H :    0.145560
  12 H :    0.151806
  13 H :    0.152150
  14 H :    0.167358
  15 H :    0.166780
  16 C :   -0.445671
  17 H :    0.173607
  18 H :    0.162590
  19 H :    0.162458
  20 H :    0.163312

  Mayer bond orders larger than 0.100000
B(  0-Sc,  1-C ) :   0.6928 B(  0-Sc, 16-C ) :   0.2421 B(  0-Sc, 20-H ) :   0.2487
B(  1-C ,  2-N ) :   1.2256 B(  1-C ,  5-N ) :   1.2119 B(  2-N ,  3-C ) :   1.1462
B(  2-N , 10-C ) :   0.9208 B(  3-C ,  4-C ) :   1.6420 B(  3-C , 14-H ) :   0.8801
B(  4-C ,  5-N ) :   1.1381 B(  4-C , 15-H ) :   0.8795 B(  5-N ,  6-C ) :   0.9194
B(  6-C ,  7-H ) :   0.9057 B(  6-C ,  8-H ) :   0.8995 B(  6-C ,  9-H ) :   0.8892
B( 10-C , 11-H ) :   0.9062 B( 10-C , 12-H ) :   0.8979 B( 10-C , 13-H ) :   0.8962
B( 16-C , 17-H ) :   0.8808 B( 16-C , 18-H ) :   0.8881 B( 16-C , 19-H ) :   0.8909
B( 16-C , 20-H ) :   0.7164

Dispersion correction           -0.011120621
FINAL SINGLE POINT ENERGY     -1104.419793035581
Dispersion correction            ... done

DIPOLE MOMENT
-------------
                                X             Y             Z
Electronic contribution:      7.39498      -6.62451      -4.68917
Nuclear contribution   :     -7.25269       6.82442       4.15042
                        -----------------------------------------
Total Dipole Moment    :      0.14230       0.19991      -0.53874
                        -----------------------------------------
Magnitude (a.u.)       :      0.59199
Magnitude (Debye)      :      1.50472

Rotational constants in cm-1:     0.052201     0.029037     0.022367
Rotational constants in MHz :  1564.950515   870.493625   670.542549

                             ****ORCA TERMINATED NORMALLY****
TOTAL RUN TIME: 0 days 0 hours 4 minutes 29 seconds 548 msec
