                         Program Version 5.0.3 -  RELEASE  -
|  1> ! EnGrad PBEh-3c
|  2> %output
|  3> xyzfile=True
|  4> end
|  5> %scf
|  6> maxiter 250
|  7> end
|  8> %output
|  9> Print[P_Hirshfeld] = 1
| 10> end
| 11> % maxcore
| 12> 4000
| 13> *xyz 1 1
| 14> Sc   1.66320929  -1.26675759  -1.51085630
| 15> C    0.40505566  -0.61756100   0.19438297
| 16> N   -0.48322095  -1.36308235   0.92810784
| 17> C   -0.80041831  -0.76373933   2.11897620
| 18> C   -0.15128132   0.41082669   2.15141962
| 19> N    0.56136628   0.50353792   0.99217491
| 20> C    1.42976305   1.63395645   0.59104155
| 21> H    1.54337344   2.31637120   1.45097324
| 22> H    0.99478000   2.15943513  -0.20732890
| 23> H    2.42983661   1.27147805   0.35200168
| 24> C   -0.99023410  -2.67149292   0.55384362
| 25> H   -0.58994544  -2.97279665  -0.41113376
| 26> H   -2.07268015  -2.64192627   0.48466057
| 27> H   -0.69726532  -3.41774310   1.29890720
| 28> H   -1.44411837  -1.21137360   2.84028649
| 29> H   -0.13715796   1.17583382   2.89074585
| 30> C   -0.38072080   1.63408944  -2.92413149
| 31> H   -0.94166197   1.66996680  -3.69766553
| 32> H    0.29697997   2.61202931  -2.93009967
| 33> H   -0.84663690   1.62277271  -1.95621041
| 34> H    0.21185104  -0.08225173  -3.21161073
| 35> *
| 36>
| 37>                          ****END OF INPUT****

CARTESIAN COORDINATES (ANGSTROEM)
---------------------------------
  Sc     1.663209   -1.266758   -1.510856
  C      0.405056   -0.617561    0.194383
  N     -0.483221   -1.363082    0.928108
  C     -0.800418   -0.763739    2.118976
  C     -0.151281    0.410827    2.151420
  N      0.561366    0.503538    0.992175
  C      1.429763    1.633956    0.591042
  H      1.543373    2.316371    1.450973
  H      0.994780    2.159435   -0.207329
  H      2.429837    1.271478    0.352002
  C     -0.990234   -2.671493    0.553844
  H     -0.589945   -2.972797   -0.411134
  H     -2.072680   -2.641926    0.484661
  H     -0.697265   -3.417743    1.298907
  H     -1.444118   -1.211374    2.840286
  H     -0.137158    1.175834    2.890746
  C     -0.380721    1.634089   -2.924131
  H     -0.941662    1.669967   -3.697666
  H      0.296980    2.612029   -2.930100
  H     -0.846637    1.622773   -1.956210
  H      0.211851   -0.082252   -3.211611

 Total Charge           Charge          ....    1
 Multiplicity           Mult            ....    1
 Number of Electrons    NEL             ....   82
 Basis Dimension        Dim             ....  175

ORBITAL ENERGIES
----------------

  NO   OCC          E(Eh)            E(eV)
   0   2.0000    -162.901273     -4432.7690
   1   2.0000     -18.210926      -495.5445
   2   2.0000     -15.052182      -409.5907
   3   2.0000     -15.049098      -409.5068
   4   2.0000     -15.036288      -409.1582
   5   2.0000     -14.865980      -404.5239
   6   2.0000     -14.865217      -404.5031
   7   2.0000     -10.651155      -289.8327
   8   2.0000     -10.629413      -289.2410
   9   2.0000     -10.625933      -289.1463
  10   2.0000     -10.623880      -289.0905
  11   2.0000     -10.618194      -288.9358
  12   2.0000     -10.594945      -288.3031
  13   2.0000      -2.419968       -65.8507
  14   2.0000      -1.568544       -42.6823
  15   2.0000      -1.560048       -42.4511
  16   2.0000      -1.552451       -42.2443
  17   2.0000      -1.302598       -35.4455
  18   2.0000      -1.181646       -32.1542
  19   2.0000      -1.025638       -27.9090
  20   2.0000      -0.976999       -26.5855
  21   2.0000      -0.927773       -25.2460
  22   2.0000      -0.894698       -24.3460
  23   2.0000      -0.837428       -22.7876
  24   2.0000      -0.807217       -21.9655
  25   2.0000      -0.752149       -20.4670
  26   2.0000      -0.700861       -19.0714
  27   2.0000      -0.672932       -18.3114
  28   2.0000      -0.660363       -17.9694
  29   2.0000      -0.655405       -17.8345
  30   2.0000      -0.649347       -17.6696
  31   2.0000      -0.619692       -16.8627
  32   2.0000      -0.603160       -16.4128
  33   2.0000      -0.595113       -16.1938
  34   2.0000      -0.593556       -16.1515
  35   2.0000      -0.561150       -15.2697
  36   2.0000      -0.530129       -14.4255
  37   2.0000      -0.487607       -13.2684
  38   2.0000      -0.480796       -13.0831
  39   2.0000      -0.436600       -11.8805
  40   2.0000      -0.318400        -8.6641
  41   0.0000      -0.193051        -5.2532
  42   0.0000      -0.187612        -5.1052
  43   0.0000      -0.177969        -4.8428
  44   0.0000      -0.170522        -4.6401
  45   0.0000      -0.160178        -4.3587

MULLIKEN ATOMIC CHARGES
-----------------------
   0 Sc:    0.515654
   1 C :    0.204043
   2 N :   -0.422944
   3 C :   -0.054933
   4 C :   -0.054080
   5 N :   -0.442702
   6 C :   -0.518304
   7 H :    0.274930
   8 H :    0.279030
   9 H :    0.261782
  10 C :   -0.517779
  11 H :    0.251847
  12 H :    0.281768
  13 H :    0.272679
  14 H :    0.305189
  15 H :    0.303324
  16 C :   -0.747776
  17 H :    0.310222
  18 H :    0.224637
  19 H :    0.240217
  20 H :    0.033197
Sum of atomic charges:    1.0000000

LOEWDIN ATOMIC CHARGES
----------------------
   0 Sc:    0.323983
   1 C :   -0.031244
   2 N :    0.005285
   3 C :   -0.081402
   4 C :   -0.073357
   5 N :   -0.007183
   6 C :   -0.234650
   7 H :    0.158564
   8 H :    0.147812
   9 H :    0.152304
  10 C :   -0.239421
  11 H :    0.149068
  12 H :    0.155942
  13 H :    0.153222
  14 H :    0.168571
  15 H :    0.166809
  16 C :   -0.416465
  17 H :    0.141258
  18 H :    0.150511
  19 H :    0.136924
  20 H :    0.073467

  Mayer bond orders larger than 0.100000
B(  0-Sc,  1-C ) :   0.7088 B(  0-Sc, 16-C ) :   0.2280 B(  0-Sc, 20-H ) :   0.2571
B(  1-C ,  2-N ) :   1.2180 B(  1-C ,  5-N ) :   1.1966 B(  2-N ,  3-C ) :   1.1549
B(  2-N , 10-C ) :   0.9129 B(  3-C ,  4-C ) :   1.6150 B(  3-C , 14-H ) :   0.8774
B(  4-C ,  5-N ) :   1.1579 B(  4-C , 15-H ) :   0.8787 B(  5-N ,  6-C ) :   0.9039
B(  6-C ,  7-H ) :   0.9076 B(  6-C ,  8-H ) :   0.8887 B(  6-C ,  9-H ) :   0.8926
B( 10-C , 11-H ) :   0.8962 B( 10-C , 12-H ) :   0.8928 B( 10-C , 13-H ) :   0.8965
B( 16-C , 17-H ) :   0.8803 B( 16-C , 18-H ) :   0.9297 B( 16-C , 19-H ) :   0.9093
B( 16-C , 20-H ) :   0.7324

Dispersion correction           -0.011285078
FINAL SINGLE POINT ENERGY     -1104.314418848412
Dispersion correction            ... done

DIPOLE MOMENT
-------------
                                X             Y             Z
Electronic contribution:      9.84221      -9.74528      -1.87855
Nuclear contribution   :     -9.48557       9.67964       1.91666
                        -----------------------------------------
Total Dipole Moment    :      0.35664      -0.06565       0.03811
                        -----------------------------------------
Magnitude (a.u.)       :      0.36463
Magnitude (Debye)      :      0.92681

Rotational constants in cm-1:     0.041477     0.029162     0.022796
Rotational constants in MHz :  1243.454370   874.255793   683.413051

                             ****ORCA TERMINATED NORMALLY****
TOTAL RUN TIME: 0 days 0 hours 4 minutes 18 seconds 421 msec
