                         Program Version 5.0.3 -  RELEASE  -
|  1> ! EnGrad PBEh-3c
|  2> %output
|  3> xyzfile=True
|  4> end
|  5> %scf
|  6> maxiter 250
|  7> end
|  8> %output
|  9> Print[P_Hirshfeld] = 1
| 10> end
| 11> % maxcore
| 12> 4000
| 13> *xyz 1 1
| 14> Sc   1.64430041  -1.24764098  -1.53295834
| 15> C    0.41175352  -0.61716207   0.21821758
| 16> N   -0.47708294  -1.35859252   0.92247662
| 17> C   -0.80282345  -0.76684912   2.11597504
| 18> C   -0.15101634   0.41166327   2.15364381
| 19> N    0.56807603   0.50081621   0.98415720
| 20> C    1.43163775   1.63156573   0.60171421
| 21> H    1.53480204   2.30568308   1.45249756
| 22> H    0.99127499   2.16811943  -0.22470895
| 23> H    2.42970902   1.26663211   0.35001439
| 24> C   -0.98938670  -2.67119216   0.55559837
| 25> H   -0.59118661  -2.97101480  -0.41270702
| 26> H   -2.07314665  -2.64331330   0.48340741
| 27> H   -0.69722018  -3.41584905   1.29799353
| 28> H   -1.44851577  -1.21378100   2.84291082
| 29> H   -0.13467728   1.18181766   2.89400295
| 30> C   -0.35063331   1.61904213  -2.88727727
| 31> H   -0.98397560   1.65568412  -3.75234980
| 32> H    0.32135895   2.55851393  -2.93111011
| 33> H   -0.84452992   1.60278129  -1.95617632
| 34> H    0.21278652   0.00547938  -3.17746459
| 35> *
| 36>
| 37>                          ****END OF INPUT****

CARTESIAN COORDINATES (ANGSTROEM)
---------------------------------
  Sc     1.644300   -1.247641   -1.532958
  C      0.411754   -0.617162    0.218218
  N     -0.477083   -1.358593    0.922477
  C     -0.802823   -0.766849    2.115975
  C     -0.151016    0.411663    2.153644
  N      0.568076    0.500816    0.984157
  C      1.431638    1.631566    0.601714
  H      1.534802    2.305683    1.452498
  H      0.991275    2.168119   -0.224709
  H      2.429709    1.266632    0.350014
  C     -0.989387   -2.671192    0.555598
  H     -0.591187   -2.971015   -0.412707
  H     -2.073147   -2.643313    0.483407
  H     -0.697220   -3.415849    1.297994
  H     -1.448516   -1.213781    2.842911
  H     -0.134677    1.181818    2.894003
  C     -0.350633    1.619042   -2.887277
  H     -0.983976    1.655684   -3.752350
  H      0.321359    2.558514   -2.931110
  H     -0.844530    1.602781   -1.956176
  H      0.212787    0.005479   -3.177465

 Total Charge           Charge          ....    1
 Multiplicity           Mult            ....    1
 Number of Electrons    NEL             ....   82
 Basis Dimension        Dim             ....  175

ORBITAL ENERGIES
----------------

  NO   OCC          E(Eh)            E(eV)
   0   2.0000    -162.899201     -4432.7126
   1   2.0000     -18.208749      -495.4852
   2   2.0000     -15.050102      -409.5341
   3   2.0000     -15.046918      -409.4475
   4   2.0000     -15.034001      -409.0960
   5   2.0000     -14.864575      -404.4857
   6   2.0000     -14.863850      -404.4659
   7   2.0000     -10.647878      -289.7435
   8   2.0000     -10.629313      -289.2383
   9   2.0000     -10.625988      -289.1478
  10   2.0000     -10.624620      -289.1106
  11   2.0000     -10.618522      -288.9447
  12   2.0000     -10.600024      -288.4413
  13   2.0000      -2.418127       -65.8006
  14   2.0000      -1.567011       -42.6405
  15   2.0000      -1.558210       -42.4011
  16   2.0000      -1.550350       -42.1872
  17   2.0000      -1.305856       -35.5341
  18   2.0000      -1.182751       -32.1843
  19   2.0000      -1.023804       -27.8591
  20   2.0000      -0.979720       -26.6595
  21   2.0000      -0.925327       -25.1794
  22   2.0000      -0.887502       -24.1502
  23   2.0000      -0.840804       -22.8794
  24   2.0000      -0.804463       -21.8905
  25   2.0000      -0.750909       -20.4333
  26   2.0000      -0.701025       -19.0759
  27   2.0000      -0.673919       -18.3383
  28   2.0000      -0.657464       -17.8905
  29   2.0000      -0.654535       -17.8108
  30   2.0000      -0.650403       -17.6984
  31   2.0000      -0.604763       -16.4564
  32   2.0000      -0.601133       -16.3577
  33   2.0000      -0.597397       -16.2560
  34   2.0000      -0.592424       -16.1207
  35   2.0000      -0.570915       -15.5354
  36   2.0000      -0.525788       -14.3074
  37   2.0000      -0.493234       -13.4216
  38   2.0000      -0.486467       -13.2374
  39   2.0000      -0.436986       -11.8910
  40   2.0000      -0.318250        -8.6600
  41   0.0000      -0.188426        -5.1273
  42   0.0000      -0.184988        -5.0338
  43   0.0000      -0.176755        -4.8098
  44   0.0000      -0.167372        -4.5544
  45   0.0000      -0.158996        -4.3265

MULLIKEN ATOMIC CHARGES
-----------------------
   0 Sc:    0.505000
   1 C :    0.212446
   2 N :   -0.421360
   3 C :   -0.057872
   4 C :   -0.063017
   5 N :   -0.436564
   6 C :   -0.516917
   7 H :    0.277746
   8 H :    0.272095
   9 H :    0.261959
  10 C :   -0.517798
  11 H :    0.251573
  12 H :    0.281281
  13 H :    0.274205
  14 H :    0.305053
  15 H :    0.302509
  16 C :   -0.766153
  17 H :    0.291002
  18 H :    0.240365
  19 H :    0.251439
  20 H :    0.053009
Sum of atomic charges:    1.0000000

LOEWDIN ATOMIC CHARGES
----------------------
   0 Sc:    0.319300
   1 C :   -0.036359
   2 N :    0.005521
   3 C :   -0.081981
   4 C :   -0.074139
   5 N :   -0.006371
   6 C :   -0.235079
   7 H :    0.158063
   8 H :    0.148386
   9 H :    0.152213
  10 C :   -0.238274
  11 H :    0.148943
  12 H :    0.155924
  13 H :    0.153524
  14 H :    0.169256
  15 H :    0.166768
  16 C :   -0.438831
  17 H :    0.157156
  18 H :    0.152261
  19 H :    0.135837
  20 H :    0.087881

  Mayer bond orders larger than 0.100000
B(  0-Sc,  1-C ) :   0.7096 B(  0-Sc, 16-C ) :   0.2006 B(  0-Sc, 20-H ) :   0.2253
B(  1-C ,  2-N ) :   1.2249 B(  1-C ,  5-N ) :   1.2095 B(  2-N ,  3-C ) :   1.1492
B(  2-N , 10-C ) :   0.9113 B(  3-C ,  4-C ) :   1.6317 B(  3-C , 14-H ) :   0.8773
B(  4-C ,  5-N ) :   1.1465 B(  4-C , 15-H ) :   0.8788 B(  5-N ,  6-C ) :   0.9044
B(  6-C ,  7-H ) :   0.9051 B(  6-C ,  8-H ) :   0.8921 B(  6-C ,  9-H ) :   0.8921
B( 10-C , 11-H ) :   0.8964 B( 10-C , 12-H ) :   0.8932 B( 10-C , 13-H ) :   0.8959
B( 16-C , 17-H ) :   0.8927 B( 16-C , 18-H ) :   0.9182 B( 16-C , 19-H ) :   0.8996
B( 16-C , 20-H ) :   0.7613

Dispersion correction           -0.011302948
FINAL SINGLE POINT ENERGY     -1104.351000510662
Dispersion correction            ... done

DIPOLE MOMENT
-------------
                                X             Y             Z
Electronic contribution:      9.74659      -9.63418      -2.02077
Nuclear contribution   :     -9.44847       9.59048       1.96177
                        -----------------------------------------
Total Dipole Moment    :      0.29813      -0.04371      -0.05901
                        -----------------------------------------
Magnitude (a.u.)       :      0.30703
Magnitude (Debye)      :      0.78042

Rotational constants in cm-1:     0.042052     0.029297     0.022846
Rotational constants in MHz :  1260.691449   878.295157   684.914293

                             ****ORCA TERMINATED NORMALLY****
TOTAL RUN TIME: 0 days 0 hours 4 minutes 19 seconds 834 msec
