                         Program Version 5.0.3 -  RELEASE  -
|  1> ! EnGrad PBEh-3c
|  2> %output
|  3> xyzfile=True
|  4> end
|  5> %scf
|  6> maxiter 250
|  7> end
|  8> %output
|  9> Print[P_Hirshfeld] = 1
| 10> end
| 11> % maxcore
| 12> 4000
| 13> *xyz 1 1
| 14> Sc   1.61654636  -1.21944969  -1.56453286
| 15> C    0.40820364  -0.60885570   0.24213348
| 16> N   -0.47167393  -1.35930719   0.92156102
| 17> C   -0.80031306  -0.76802727   2.11219160
| 18> C   -0.14415966   0.41140437   2.14917977
| 19> N    0.57592553   0.49909192   0.97919585
| 20> C    1.42789924   1.62484121   0.61555719
| 21> H    1.52181043   2.30600887   1.45168897
| 22> H    0.99252111   2.17022474  -0.23752656
| 23> H    2.42966805   1.26869758   0.35833940
| 24> C   -0.98544992  -2.66966965   0.55491296
| 25> H   -0.59439875  -2.96548711  -0.41609839
| 26> H   -2.07250418  -2.64422208   0.48566797
| 27> H   -0.69234840  -3.41443934   1.29289304
| 28> H   -1.45144391  -1.21898253   2.84641594
| 29> H   -0.13079820   1.18416761   2.90323366
| 30> C   -0.30884811   1.60798360  -2.89669643
| 31> H   -0.99288863   1.64425093  -3.77470261
| 32> H    0.33840110   2.50497535  -2.93088636
| 33> H   -0.85396280   1.59571550  -1.94580015
| 34> H    0.18982704   0.05411701  -3.14898680
| 35> *
| 36>
| 37>                          ****END OF INPUT****

CARTESIAN COORDINATES (ANGSTROEM)
---------------------------------
  Sc     1.616546   -1.219450   -1.564533
  C      0.408204   -0.608856    0.242133
  N     -0.471674   -1.359307    0.921561
  C     -0.800313   -0.768027    2.112192
  C     -0.144160    0.411404    2.149180
  N      0.575926    0.499092    0.979196
  C      1.427899    1.624841    0.615557
  H      1.521810    2.306009    1.451689
  H      0.992521    2.170225   -0.237527
  H      2.429668    1.268698    0.358339
  C     -0.985450   -2.669670    0.554913
  H     -0.594399   -2.965487   -0.416098
  H     -2.072504   -2.644222    0.485668
  H     -0.692348   -3.414439    1.292893
  H     -1.451444   -1.218983    2.846416
  H     -0.130798    1.184168    2.903234
  C     -0.308848    1.607984   -2.896696
  H     -0.992889    1.644251   -3.774703
  H      0.338401    2.504975   -2.930886
  H     -0.853963    1.595716   -1.945800
  H      0.189827    0.054117   -3.148987

 Total Charge           Charge          ....    1
 Multiplicity           Mult            ....    1
 Number of Electrons    NEL             ....   82
 Basis Dimension        Dim             ....  175

ORBITAL ENERGIES
----------------

  NO   OCC          E(Eh)            E(eV)
   0   2.0000    -162.898280     -4432.6876
   1   2.0000     -18.207629      -495.4548
   2   2.0000     -15.049124      -409.5075
   3   2.0000     -15.045645      -409.4128
   4   2.0000     -15.032912      -409.0663
   5   2.0000     -14.863784      -404.4641
   6   2.0000     -14.863692      -404.4616
   7   2.0000     -10.644747      -289.6583
   8   2.0000     -10.629025      -289.2305
   9   2.0000     -10.626071      -289.1501
  10   2.0000     -10.625473      -289.1338
  11   2.0000     -10.618897      -288.9549
  12   2.0000     -10.601372      -288.4780
  13   2.0000      -2.417111       -65.7729
  14   2.0000      -1.566562       -42.6283
  15   2.0000      -1.556760       -42.3616
  16   2.0000      -1.549115       -42.1536
  17   2.0000      -1.312268       -35.7086
  18   2.0000      -1.188189       -32.3323
  19   2.0000      -1.024077       -27.8666
  20   2.0000      -0.982701       -26.7407
  21   2.0000      -0.925597       -25.1868
  22   2.0000      -0.885720       -24.1017
  23   2.0000      -0.844792       -22.9880
  24   2.0000      -0.803655       -21.8686
  25   2.0000      -0.750834       -20.4312
  26   2.0000      -0.703718       -19.1491
  27   2.0000      -0.675242       -18.3743
  28   2.0000      -0.657404       -17.8889
  29   2.0000      -0.656116       -17.8538
  30   2.0000      -0.651341       -17.7239
  31   2.0000      -0.602899       -16.4057
  32   2.0000      -0.599544       -16.3144
  33   2.0000      -0.592646       -16.1267
  34   2.0000      -0.586891       -15.9701
  35   2.0000      -0.581141       -15.8137
  36   2.0000      -0.520826       -14.1724
  37   2.0000      -0.503083       -13.6896
  38   2.0000      -0.486951       -13.2506
  39   2.0000      -0.436894       -11.8885
  40   2.0000      -0.318055        -8.6547
  41   0.0000      -0.186207        -5.0669
  42   0.0000      -0.182603        -4.9689
  43   0.0000      -0.176243        -4.7958
  44   0.0000      -0.165058        -4.4914
  45   0.0000      -0.158747        -4.3197

MULLIKEN ATOMIC CHARGES
-----------------------
   0 Sc:    0.494324
   1 C :    0.219958
   2 N :   -0.416707
   3 C :   -0.062801
   4 C :   -0.072586
   5 N :   -0.421529
   6 C :   -0.521185
   7 H :    0.281120
   8 H :    0.266279
   9 H :    0.263402
  10 C :   -0.518620
  11 H :    0.252730
  12 H :    0.280543
  13 H :    0.275499
  14 H :    0.304278
  15 H :    0.301933
  16 C :   -0.783196
  17 H :    0.284048
  18 H :    0.256862
  19 H :    0.242950
  20 H :    0.072697
Sum of atomic charges:    1.0000000

LOEWDIN ATOMIC CHARGES
----------------------
   0 Sc:    0.317561
   1 C :   -0.042059
   2 N :    0.006981
   3 C :   -0.083114
   4 C :   -0.077668
   5 N :   -0.000222
   6 C :   -0.237386
   7 H :    0.158489
   8 H :    0.148307
   9 H :    0.152466
  10 C :   -0.237783
  11 H :    0.149247
  12 H :    0.156121
  13 H :    0.153858
  14 H :    0.170089
  15 H :    0.167642
  16 C :   -0.453975
  17 H :    0.160137
  18 H :    0.152367
  19 H :    0.137323
  20 H :    0.101618

  Mayer bond orders larger than 0.100000
B(  0-Sc,  1-C ) :   0.7103 B(  0-Sc, 16-C ) :   0.1862 B(  0-Sc, 20-H ) :   0.2077
B(  1-C ,  2-N ) :   1.2296 B(  1-C ,  5-N ) :   1.2243 B(  2-N ,  3-C ) :   1.1488
B(  2-N , 10-C ) :   0.9110 B(  3-C ,  4-C ) :   1.6427 B(  3-C , 14-H ) :   0.8776
B(  4-C ,  5-N ) :   1.1417 B(  4-C , 15-H ) :   0.8787 B(  5-N ,  6-C ) :   0.9077
B(  6-C ,  7-H ) :   0.9026 B(  6-C ,  8-H ) :   0.8946 B(  6-C ,  9-H ) :   0.8915
B( 10-C , 11-H ) :   0.8960 B( 10-C , 12-H ) :   0.8937 B( 10-C , 13-H ) :   0.8954
B( 16-C , 17-H ) :   0.8964 B( 16-C , 18-H ) :   0.9068 B( 16-C , 19-H ) :   0.9046
B( 16-C , 20-H ) :   0.7751

Dispersion correction           -0.011276348
FINAL SINGLE POINT ENERGY     -1104.366846755370
Dispersion correction            ... done

DIPOLE MOMENT
-------------
                                X             Y             Z
Electronic contribution:      9.64086      -9.47284      -2.24173
Nuclear contribution   :     -9.37440       9.43813       2.13338
                        -----------------------------------------
Total Dipole Moment    :      0.26646      -0.03471      -0.10835
                        -----------------------------------------
Magnitude (a.u.)       :      0.28974
Magnitude (Debye)      :      0.73645

Rotational constants in cm-1:     0.042801     0.029299     0.022813
Rotational constants in MHz :  1283.132640   878.347806   683.913575

                             ****ORCA TERMINATED NORMALLY****
TOTAL RUN TIME: 0 days 0 hours 3 minutes 58 seconds 44 msec
