                         Program Version 5.0.3 -  RELEASE  -
|  1> ! EnGrad PBEh-3c
|  2> %output
|  3> xyzfile=True
|  4> end
|  5> %scf
|  6> maxiter 250
|  7> end
|  8> %output
|  9> Print[P_Hirshfeld] = 1
| 10> end
| 11> % maxcore
| 12> 4000
| 13> *xyz 1 1
| 14> Sc   1.56817196  -1.17139968  -1.61408320
| 15> C    0.41569755  -0.60687648   0.25132933
| 16> N   -0.46877847  -1.36067147   0.92672982
| 17> C   -0.79957664  -0.76833296   2.11480141
| 18> C   -0.13836403   0.41319358   2.15273930
| 19> N    0.58108494   0.50132224   0.98840640
| 20> C    1.42277531   1.62372438   0.61490392
| 21> H    1.50100383   2.30750263   1.45541318
| 22> H    0.99902897   2.16710903  -0.24759336
| 23> H    2.42942548   1.27165555   0.37266145
| 24> C   -0.98151523  -2.66648658   0.55171267
| 25> H   -0.59922051  -2.95717103  -0.42199207
| 26> H   -2.06972925  -2.64543571   0.48940002
| 27> H   -0.68399901  -3.41318631   1.28601929
| 28> H   -1.45209312  -1.22424173   2.84798263
| 29> H   -0.12416587   1.18315891   2.91212307
| 30> C   -0.29732139   1.56972568  -2.90832427
| 31> H   -0.98648193   1.62560911  -3.78906748
| 32> H    0.38146183   2.44116697  -2.93140119
| 33> H   -0.85507090   1.58666857  -1.94951937
| 34> H    0.16036293   0.12699249  -3.10452304
| 35> *
| 36>
| 37>                          ****END OF INPUT****

CARTESIAN COORDINATES (ANGSTROEM)
---------------------------------
  Sc     1.568172   -1.171400   -1.614083
  C      0.415698   -0.606876    0.251329
  N     -0.468778   -1.360671    0.926730
  C     -0.799577   -0.768333    2.114801
  C     -0.138364    0.413194    2.152739
  N      0.581085    0.501322    0.988406
  C      1.422775    1.623724    0.614904
  H      1.501004    2.307503    1.455413
  H      0.999029    2.167109   -0.247593
  H      2.429425    1.271656    0.372661
  C     -0.981515   -2.666487    0.551713
  H     -0.599221   -2.957171   -0.421992
  H     -2.069729   -2.645436    0.489400
  H     -0.683999   -3.413186    1.286019
  H     -1.452093   -1.224242    2.847983
  H     -0.124166    1.183159    2.912123
  C     -0.297321    1.569726   -2.908324
  H     -0.986482    1.625609   -3.789067
  H      0.381462    2.441167   -2.931401
  H     -0.855071    1.586669   -1.949519
  H      0.160363    0.126992   -3.104523

 Total Charge           Charge          ....    1
 Multiplicity           Mult            ....    1
 Number of Electrons    NEL             ....   82
 Basis Dimension        Dim             ....  175

ORBITAL ENERGIES
----------------

  NO   OCC          E(Eh)            E(eV)
   0   2.0000    -162.894833     -4432.5938
   1   2.0000     -18.204001      -495.3561
   2   2.0000     -15.045646      -409.4128
   3   2.0000     -15.041903      -409.3110
   4   2.0000     -15.029265      -408.9671
   5   2.0000     -14.863587      -404.4588
   6   2.0000     -14.863475      -404.4557
   7   2.0000     -10.644058      -289.6395
   8   2.0000     -10.629066      -289.2316
   9   2.0000     -10.626236      -289.1546
  10   2.0000     -10.625486      -289.1342
  11   2.0000     -10.618166      -288.9350
  12   2.0000     -10.600475      -288.4536
  13   2.0000      -2.414409       -65.6994
  14   2.0000      -1.564529       -42.5730
  15   2.0000      -1.553836       -42.2820
  16   2.0000      -1.546531       -42.0833
  17   2.0000      -1.312359       -35.7111
  18   2.0000      -1.189689       -32.3731
  19   2.0000      -1.024066       -27.8663
  20   2.0000      -0.981809       -26.7164
  21   2.0000      -0.926090       -25.2002
  22   2.0000      -0.889430       -24.2026
  23   2.0000      -0.844507       -22.9802
  24   2.0000      -0.803402       -21.8617
  25   2.0000      -0.750238       -20.4150
  26   2.0000      -0.703799       -19.1513
  27   2.0000      -0.675501       -18.3813
  28   2.0000      -0.657967       -17.9042
  29   2.0000      -0.656497       -17.8642
  30   2.0000      -0.650230       -17.6937
  31   2.0000      -0.602725       -16.4010
  32   2.0000      -0.598924       -16.2975
  33   2.0000      -0.592313       -16.1177
  34   2.0000      -0.586594       -15.9620
  35   2.0000      -0.583780       -15.8855
  36   2.0000      -0.530021       -14.4226
  37   2.0000      -0.513067       -13.9613
  38   2.0000      -0.487130       -13.2555
  39   2.0000      -0.435427       -11.8486
  40   2.0000      -0.317330        -8.6350
  41   0.0000      -0.184119        -5.0101
  42   0.0000      -0.180295        -4.9061
  43   0.0000      -0.174768        -4.7557
  44   0.0000      -0.162423        -4.4197
  45   0.0000      -0.157405        -4.2832

MULLIKEN ATOMIC CHARGES
-----------------------
   0 Sc:    0.489710
   1 C :    0.217901
   2 N :   -0.415805
   3 C :   -0.064668
   4 C :   -0.073800
   5 N :   -0.416373
   6 C :   -0.522427
   7 H :    0.279459
   8 H :    0.264232
   9 H :    0.265906
  10 C :   -0.519368
  11 H :    0.253745
  12 H :    0.279475
  13 H :    0.275538
  14 H :    0.303912
  15 H :    0.301801
  16 C :   -0.803873
  17 H :    0.286217
  18 H :    0.259819
  19 H :    0.242740
  20 H :    0.095860
Sum of atomic charges:    1.0000000

LOEWDIN ATOMIC CHARGES
----------------------
   0 Sc:    0.313539
   1 C :   -0.042431
   2 N :    0.007078
   3 C :   -0.083560
   4 C :   -0.079101
   5 N :    0.001316
   6 C :   -0.238440
   7 H :    0.158384
   8 H :    0.147369
   9 H :    0.153361
  10 C :   -0.238441
  11 H :    0.149484
  12 H :    0.155751
  13 H :    0.153877
  14 H :    0.170082
  15 H :    0.167695
  16 C :   -0.464310
  17 H :    0.162099
  18 H :    0.152805
  19 H :    0.138427
  20 H :    0.115017

  Mayer bond orders larger than 0.100000
B(  0-Sc,  1-C ) :   0.7122 B(  0-Sc, 16-C ) :   0.1645 B(  0-Sc, 20-H ) :   0.1833
B(  1-C ,  2-N ) :   1.2278 B(  1-C ,  5-N ) :   1.2239 B(  2-N ,  3-C ) :   1.1528
B(  2-N , 10-C ) :   0.9120 B(  3-C ,  4-C ) :   1.6377 B(  3-C , 14-H ) :   0.8779
B(  4-C ,  5-N ) :   1.1463 B(  4-C , 15-H ) :   0.8787 B(  5-N ,  6-C ) :   0.9097
B(  6-C ,  7-H ) :   0.9034 B(  6-C ,  8-H ) :   0.8951 B(  6-C ,  9-H ) :   0.8907
B( 10-C , 11-H ) :   0.8956 B( 10-C , 12-H ) :   0.8941 B( 10-C , 13-H ) :   0.8954
B( 16-C , 17-H ) :   0.8951 B( 16-C , 18-H ) :   0.9047 B( 16-C , 19-H ) :   0.9057
B( 16-C , 20-H ) :   0.7949

Dispersion correction           -0.011193986
FINAL SINGLE POINT ENERGY     -1104.387415100378
Dispersion correction            ... done

DIPOLE MOMENT
-------------
                                X             Y             Z
Electronic contribution:      9.35431      -9.19748      -2.59536
Nuclear contribution   :     -9.13040       9.19581       2.41111
                        -----------------------------------------
Total Dipole Moment    :      0.22391      -0.00167      -0.18425
                        -----------------------------------------
Magnitude (a.u.)       :      0.28998
Magnitude (Debye)      :      0.73707

Rotational constants in cm-1:     0.043860     0.029232     0.022763
Rotational constants in MHz :  1314.886709   876.364609   682.419105

                             ****ORCA TERMINATED NORMALLY****
TOTAL RUN TIME: 0 days 0 hours 4 minutes 15 seconds 150 msec
