                         Program Version 5.0.3 -  RELEASE  -
|  1> ! EnGrad PBEh-3c
|  2> %output
|  3> xyzfile=True
|  4> end
|  5> %scf
|  6> maxiter 250
|  7> end
|  8> %output
|  9> Print[P_Hirshfeld] = 1
| 10> end
| 11> % maxcore
| 12> 4000
| 13> *xyz 1 1
| 14> Sc   1.45300909  -1.05545302  -1.72756236
| 15> C    0.41156546  -0.60033280   0.25108451
| 16> N   -0.45686517  -1.36019653   0.94136050
| 17> C   -0.79282082  -0.76559191   2.12715017
| 18> C   -0.12779603   0.41630414   2.16737028
| 19> N    0.58870552   0.50057847   1.00608744
| 20> C    1.41391601   1.62642538   0.62345818
| 21> H    1.45598981   2.32683311   1.45247665
| 22> H    1.01645476   2.14735125  -0.25597044
| 23> H    2.42844912   1.28861366   0.41687340
| 24> C   -0.97482784  -2.66159183   0.54665685
| 25> H   -0.60939367  -2.93581393  -0.43899908
| 26> H   -2.06069242  -2.64637133   0.50206052
| 27> H   -0.66023552  -3.41244209   1.26532233
| 28> H   -1.44582956  -1.23384693   2.84867908
| 29> H   -0.10948421   1.17012317   2.93256971
| 30> C   -0.26307311   1.48400666  -2.89470701
| 31> H   -0.94414978   1.59783306  -3.80670706
| 32> H    0.45625911   2.34311741  -2.93562936
| 33> H   -0.85619650   1.59714109  -1.98349758
| 34> H    0.08057265   0.17897864  -3.03912700
| 35> *
| 36>
| 37>                          ****END OF INPUT****

CARTESIAN COORDINATES (ANGSTROEM)
---------------------------------
  Sc     1.453009   -1.055453   -1.727562
  C      0.411565   -0.600333    0.251085
  N     -0.456865   -1.360197    0.941360
  C     -0.792821   -0.765592    2.127150
  C     -0.127796    0.416304    2.167370
  N      0.588706    0.500578    1.006087
  C      1.413916    1.626425    0.623458
  H      1.455990    2.326833    1.452477
  H      1.016455    2.147351   -0.255970
  H      2.428449    1.288614    0.416873
  C     -0.974828   -2.661592    0.546657
  H     -0.609394   -2.935814   -0.438999
  H     -2.060692   -2.646371    0.502061
  H     -0.660236   -3.412442    1.265322
  H     -1.445830   -1.233847    2.848679
  H     -0.109484    1.170123    2.932570
  C     -0.263073    1.484007   -2.894707
  H     -0.944150    1.597833   -3.806707
  H      0.456259    2.343117   -2.935629
  H     -0.856197    1.597141   -1.983498
  H      0.080573    0.178979   -3.039127

 Total Charge           Charge          ....    1
 Multiplicity           Mult            ....    1
 Number of Electrons    NEL             ....   82
 Basis Dimension        Dim             ....  175

ORBITAL ENERGIES
----------------

  NO   OCC          E(Eh)            E(eV)
   0   2.0000    -162.883789     -4432.2932
   1   2.0000     -18.191981      -495.0290
   2   2.0000     -15.034144      -409.0999
   3   2.0000     -15.029195      -408.9652
   4   2.0000     -15.017653      -408.6511
   5   2.0000     -14.860429      -404.3728
   6   2.0000     -14.860140      -404.3650
   7   2.0000     -10.641080      -289.5585
   8   2.0000     -10.626321      -289.1569
   9   2.0000     -10.623528      -289.0809
  10   2.0000     -10.622336      -289.0485
  11   2.0000     -10.615782      -288.8701
  12   2.0000     -10.600241      -288.4472
  13   2.0000      -2.405380       -65.4537
  14   2.0000      -1.557899       -42.3926
  15   2.0000      -1.543634       -42.0044
  16   2.0000      -1.538643       -41.8686
  17   2.0000      -1.309057       -35.6213
  18   2.0000      -1.186864       -32.2962
  19   2.0000      -1.022079       -27.8122
  20   2.0000      -0.979112       -26.6430
  21   2.0000      -0.924904       -25.1679
  22   2.0000      -0.903023       -24.5725
  23   2.0000      -0.841819       -22.9071
  24   2.0000      -0.801461       -21.8089
  25   2.0000      -0.748692       -20.3729
  26   2.0000      -0.701371       -19.0853
  27   2.0000      -0.673529       -18.3277
  28   2.0000      -0.656836       -17.8734
  29   2.0000      -0.654704       -17.8154
  30   2.0000      -0.647972       -17.6322
  31   2.0000      -0.602482       -16.3944
  32   2.0000      -0.598545       -16.2873
  33   2.0000      -0.596480       -16.2310
  34   2.0000      -0.590856       -16.0780
  35   2.0000      -0.587161       -15.9775
  36   2.0000      -0.558919       -15.2090
  37   2.0000      -0.511997       -13.9321
  38   2.0000      -0.485038       -13.1986
  39   2.0000      -0.432424       -11.7669
  40   2.0000      -0.313525        -8.5315
  41   0.0000      -0.182511        -4.9664
  42   0.0000      -0.174163        -4.7392
  43   0.0000      -0.170336        -4.6351
  44   0.0000      -0.155739        -4.2379
  45   0.0000      -0.152405        -4.1472

MULLIKEN ATOMIC CHARGES
-----------------------
   0 Sc:    0.483186
   1 C :    0.216638
   2 N :   -0.416491
   3 C :   -0.069347
   4 C :   -0.070748
   5 N :   -0.417002
   6 C :   -0.525777
   7 H :    0.278474
   8 H :    0.259810
   9 H :    0.269755
  10 C :   -0.518248
  11 H :    0.252776
  12 H :    0.277729
  13 H :    0.275319
  14 H :    0.301834
  15 H :    0.301635
  16 C :   -0.852139
  17 H :    0.288676
  18 H :    0.263896
  19 H :    0.259119
  20 H :    0.140906
Sum of atomic charges:    1.0000000

LOEWDIN ATOMIC CHARGES
----------------------
   0 Sc:    0.302379
   1 C :   -0.040433
   2 N :    0.005272
   3 C :   -0.085354
   4 C :   -0.080329
   5 N :   -0.000751
   6 C :   -0.239894
   7 H :    0.158153
   8 H :    0.144171
   9 H :    0.153762
  10 C :   -0.238039
  11 H :    0.149306
  12 H :    0.154475
  13 H :    0.153313
  14 H :    0.168580
  15 H :    0.166788
  16 C :   -0.482194
  17 H :    0.167496
  18 H :    0.158113
  19 H :    0.143828
  20 H :    0.141356

  Mayer bond orders larger than 0.100000
B(  0-Sc,  1-C ) :   0.7155 B(  0-Sc, 16-C ) :   0.1624 B(  0-Sc, 20-H ) :   0.1774
B(  1-C ,  2-N ) :   1.2295 B(  1-C ,  5-N ) :   1.2169 B(  2-N ,  3-C ) :   1.1550
B(  2-N , 10-C ) :   0.9123 B(  3-C ,  4-C ) :   1.6355 B(  3-C , 14-H ) :   0.8790
B(  4-C ,  5-N ) :   1.1474 B(  4-C , 15-H ) :   0.8788 B(  5-N ,  6-C ) :   0.9139
B(  6-C ,  7-H ) :   0.9048 B(  6-C ,  8-H ) :   0.8967 B(  6-C ,  9-H ) :   0.8905
B( 10-C , 11-H ) :   0.8966 B( 10-C , 12-H ) :   0.8953 B( 10-C , 13-H ) :   0.8958
B( 16-C , 17-H ) :   0.8954 B( 16-C , 18-H ) :   0.9026 B( 16-C , 19-H ) :   0.8983
B( 16-C , 20-H ) :   0.7885

Dispersion correction           -0.010974687
FINAL SINGLE POINT ENERGY     -1104.409894911268
Dispersion correction            ... done

DIPOLE MOMENT
-------------
                                X             Y             Z
Electronic contribution:      8.70318      -8.51269      -3.34336
Nuclear contribution   :     -8.53125       8.59396       2.98162
                        -----------------------------------------
Total Dipole Moment    :      0.17194       0.08127      -0.36174
                        -----------------------------------------
Magnitude (a.u.)       :      0.40869
Magnitude (Debye)      :      1.03880

Rotational constants in cm-1:     0.046419     0.029201     0.022612
Rotational constants in MHz :  1391.600532   875.435183   677.886655

                             ****ORCA TERMINATED NORMALLY****
TOTAL RUN TIME: 0 days 0 hours 4 minutes 29 seconds 475 msec
