                         Program Version 5.0.3 -  RELEASE  -
|  1> ! EnGrad PBEh-3c
|  2> %output
|  3> xyzfile=True
|  4> end
|  5> %scf
|  6> maxiter 250
|  7> end
|  8> %output
|  9> Print[P_Hirshfeld] = 1
| 10> end
| 11> % maxcore
| 12> 4000
| 13> *xyz 1 1
| 14> Sc   1.31719357  -0.90925170  -1.85971688
| 15> C    0.40503856  -0.59122034   0.24679188
| 16> N   -0.44387094  -1.35991376   0.95205380
| 17> C   -0.78288627  -0.75970385   2.14058287
| 18> C   -0.12420869   0.40844077   2.18317506
| 19> N    0.59545397   0.49452049   1.01557772
| 20> C    1.40885787   1.63130726   0.63673085
| 21> H    1.41183970   2.34574546   1.44657366
| 22> H    1.03079400   2.12543103  -0.26364911
| 23> H    2.42929432   1.30451180   0.46026265
| 24> C   -0.96583685  -2.65346169   0.54418317
| 25> H   -0.61857914  -2.91322841  -0.45573142
| 26> H   -2.05333064  -2.64601475   0.51457004
| 27> H   -0.63597503  -3.41386304   1.24462927
| 28> H   -1.43925123  -1.24094456   2.85003673
| 29> H   -0.09433336   1.16225141   2.95542219
| 30> C   -0.24400634   1.40656938  -2.90564672
| 31> H   -0.88133342   1.56031160  -3.79785161
| 32> H    0.52908788   2.22994755  -2.93549258
| 33> H   -0.86703385   1.60763587  -2.00456189
| 34> H    0.02808752   0.21868712  -2.96910186
| 35> *
| 36>
| 37>                          ****END OF INPUT****

CARTESIAN COORDINATES (ANGSTROEM)
---------------------------------
  Sc     1.317194   -0.909252   -1.859717
  C      0.405039   -0.591220    0.246792
  N     -0.443871   -1.359914    0.952054
  C     -0.782886   -0.759704    2.140583
  C     -0.124209    0.408441    2.183175
  N      0.595454    0.494520    1.015578
  C      1.408858    1.631307    0.636731
  H      1.411840    2.345745    1.446574
  H      1.030794    2.125431   -0.263649
  H      2.429294    1.304512    0.460263
  C     -0.965837   -2.653462    0.544183
  H     -0.618579   -2.913228   -0.455731
  H     -2.053331   -2.646015    0.514570
  H     -0.635975   -3.413863    1.244629
  H     -1.439251   -1.240945    2.850037
  H     -0.094333    1.162251    2.955422
  C     -0.244006    1.406569   -2.905647
  H     -0.881333    1.560312   -3.797852
  H      0.529088    2.229948   -2.935493
  H     -0.867034    1.607636   -2.004562
  H      0.028088    0.218687   -2.969102

 Total Charge           Charge          ....    1
 Multiplicity           Mult            ....    1
 Number of Electrons    NEL             ....   82
 Basis Dimension        Dim             ....  175

ORBITAL ENERGIES
----------------

  NO   OCC          E(Eh)            E(eV)
   0   2.0000    -162.866667     -4431.8273
   1   2.0000     -18.173500      -494.5261
   2   2.0000     -15.016285      -408.6139
   3   2.0000     -15.009238      -408.4221
   4   2.0000     -15.000408      -408.1819
   5   2.0000     -14.855424      -404.2366
   6   2.0000     -14.855253      -404.2320
   7   2.0000     -10.637578      -289.4632
   8   2.0000     -10.622692      -289.0581
   9   2.0000     -10.619614      -288.9744
  10   2.0000     -10.619491      -288.9710
  11   2.0000     -10.613080      -288.7966
  12   2.0000     -10.602199      -288.5005
  13   2.0000      -2.391707       -65.0817
  14   2.0000      -1.547830       -42.1186
  15   2.0000      -1.527906       -41.5764
  16   2.0000      -1.527341       -41.5611
  17   2.0000      -1.305095       -35.5134
  18   2.0000      -1.181421       -32.1481
  19   2.0000      -1.021019       -27.7833
  20   2.0000      -0.976708       -26.5776
  21   2.0000      -0.927087       -25.2273
  22   2.0000      -0.920703       -25.0536
  23   2.0000      -0.837603       -22.7923
  24   2.0000      -0.798909       -21.7394
  25   2.0000      -0.745750       -20.2929
  26   2.0000      -0.698174       -18.9983
  27   2.0000      -0.669972       -18.2309
  28   2.0000      -0.653608       -17.7856
  29   2.0000      -0.649764       -17.6810
  30   2.0000      -0.647382       -17.6162
  31   2.0000      -0.629313       -17.1245
  32   2.0000      -0.602963       -16.4075
  33   2.0000      -0.596650       -16.2357
  34   2.0000      -0.592963       -16.1353
  35   2.0000      -0.587581       -15.9889
  36   2.0000      -0.584522       -15.9056
  37   2.0000      -0.507086       -13.7985
  38   2.0000      -0.480076       -13.0635
  39   2.0000      -0.432039       -11.7564
  40   2.0000      -0.306941        -8.3523
  41   0.0000      -0.180060        -4.8997
  42   0.0000      -0.165144        -4.4938
  43   0.0000      -0.164044        -4.4639
  44   0.0000      -0.148339        -4.0365
  45   0.0000      -0.144188        -3.9235

MULLIKEN ATOMIC CHARGES
-----------------------
   0 Sc:    0.467874
   1 C :    0.220329
   2 N :   -0.420117
   3 C :   -0.066727
   4 C :   -0.070134
   5 N :   -0.419935
   6 C :   -0.523661
   7 H :    0.278514
   8 H :    0.250401
   9 H :    0.273460
  10 C :   -0.517805
  11 H :    0.250249
  12 H :    0.274462
  13 H :    0.274161
  14 H :    0.299060
  15 H :    0.299347
  16 C :   -0.876000
  17 H :    0.308369
  18 H :    0.268243
  19 H :    0.266583
  20 H :    0.163326
Sum of atomic charges:    1.0000000

LOEWDIN ATOMIC CHARGES
----------------------
   0 Sc:    0.276610
   1 C :   -0.035576
   2 N :   -0.000538
   3 C :   -0.085466
   4 C :   -0.082140
   5 N :   -0.005916
   6 C :   -0.238972
   7 H :    0.157533
   8 H :    0.139801
   9 H :    0.154211
  10 C :   -0.238995
  11 H :    0.148523
  12 H :    0.152621
  13 H :    0.152039
  14 H :    0.167602
  15 H :    0.166824
  16 C :   -0.472130
  17 H :    0.172872
  18 H :    0.164111
  19 H :    0.153334
  20 H :    0.153651

  Mayer bond orders larger than 0.100000
B(  0-Sc,  1-C ) :   0.7048 B(  0-Sc, 16-C ) :   0.1816 B(  0-Sc, 20-H ) :   0.1920
B(  1-C ,  2-N ) :   1.2305 B(  1-C ,  5-N ) :   1.2218 B(  2-N ,  3-C ) :   1.1430
B(  2-N , 10-C ) :   0.9157 B(  3-C ,  4-C ) :   1.6524 B(  3-C , 14-H ) :   0.8803
B(  4-C ,  5-N ) :   1.1311 B(  4-C , 15-H ) :   0.8798 B(  5-N ,  6-C ) :   0.9155
B(  6-C ,  7-H ) :   0.9053 B(  6-C ,  8-H ) :   0.9008 B(  6-C ,  9-H ) :   0.8909
B( 10-C , 11-H ) :   0.8993 B( 10-C , 12-H ) :   0.8969 B( 10-C , 13-H ) :   0.8961
B( 16-C , 17-H ) :   0.8864 B( 16-C , 18-H ) :   0.8975 B( 16-C , 19-H ) :   0.8981
B( 16-C , 20-H ) :   0.7648

Dispersion correction           -0.011028321
FINAL SINGLE POINT ENERGY     -1104.422324565521
Dispersion correction            ... done

DIPOLE MOMENT
-------------
                                X             Y             Z
Electronic contribution:      7.89485      -7.59764      -4.24298
Nuclear contribution   :     -7.78299       7.80472       3.71349
                        -----------------------------------------
Total Dipole Moment    :      0.11186       0.20708      -0.52948
                        -----------------------------------------
Magnitude (a.u.)       :      0.57944
Magnitude (Debye)      :      1.47282

Rotational constants in cm-1:     0.049422     0.028974     0.022325
Rotational constants in MHz :  1481.631523   868.632081   669.272753

                             ****ORCA TERMINATED NORMALLY****
TOTAL RUN TIME: 0 days 0 hours 4 minutes 20 seconds 328 msec
