                         Program Version 5.0.3 -  RELEASE  -
|  1> ! EnGrad PBEh-3c
|  2> %output
|  3> xyzfile=True
|  4> end
|  5> %scf
|  6> maxiter 250
|  7> end
|  8> %output
|  9> Print[P_Hirshfeld] = 1
| 10> end
| 11> % maxcore
| 12> 4000
| 13> *xyz 1 1
| 14> Sc   1.26927442  -0.83704040  -1.90466319
| 15> C    0.39682938  -0.58827329   0.23340116
| 16> N   -0.44272501  -1.36073924   0.95185807
| 17> C   -0.78616266  -0.77490514   2.14244619
| 18> C   -0.11621377   0.41831439   2.18586776
| 19> N    0.59300600   0.49457021   1.01789594
| 20> C    1.40847728   1.62495034   0.63635498
| 21> H    1.40582038   2.35361438   1.44601304
| 22> H    1.03130955   2.11628879  -0.25859509
| 23> H    2.43223271   1.30810738   0.46714537
| 24> C   -0.96272220  -2.65041870   0.54356801
| 25> H   -0.61842874  -2.90622348  -0.45536436
| 26> H   -2.05162249  -2.64265373   0.51773893
| 27> H   -0.63076541  -3.41735911   1.24032868
| 28> H   -1.43659362  -1.23672643   2.84965532
| 29> H   -0.09221136   1.16097994   2.95625976
| 30> C   -0.24833914   1.40703235  -2.88748267
| 31> H   -0.85411951   1.53963099  -3.77574196
| 32> H    0.53433860   2.17486723  -2.93104283
| 33> H   -0.86886691   1.60558442  -2.01734097
| 34> H    0.04356478   0.21903687  -2.96008612
| 35> *
| 36>
| 37>                          ****END OF INPUT****

CARTESIAN COORDINATES (ANGSTROEM)
---------------------------------
  Sc     1.269274   -0.837040   -1.904663
  C      0.396829   -0.588273    0.233401
  N     -0.442725   -1.360739    0.951858
  C     -0.786163   -0.774905    2.142446
  C     -0.116214    0.418314    2.185868
  N      0.593006    0.494570    1.017896
  C      1.408477    1.624950    0.636355
  H      1.405820    2.353614    1.446013
  H      1.031310    2.116289   -0.258595
  H      2.432233    1.308107    0.467145
  C     -0.962722   -2.650419    0.543568
  H     -0.618429   -2.906223   -0.455364
  H     -2.051622   -2.642654    0.517739
  H     -0.630765   -3.417359    1.240329
  H     -1.436594   -1.236726    2.849655
  H     -0.092211    1.160980    2.956260
  C     -0.248339    1.407032   -2.887483
  H     -0.854120    1.539631   -3.775742
  H      0.534339    2.174867   -2.931043
  H     -0.868867    1.605584   -2.017341
  H      0.043565    0.219037   -2.960086

 Total Charge           Charge          ....    1
 Multiplicity           Mult            ....    1
 Number of Electrons    NEL             ....   82
 Basis Dimension        Dim             ....  175

ORBITAL ENERGIES
----------------

  NO   OCC          E(Eh)            E(eV)
   0   2.0000    -162.856430     -4431.5488
   1   2.0000     -18.162854      -494.2364
   2   2.0000     -15.005815      -408.3290
   3   2.0000     -14.998019      -408.1168
   4   2.0000     -14.990313      -407.9072
   5   2.0000     -14.855834      -404.2478
   6   2.0000     -14.855306      -404.2334
   7   2.0000     -10.636443      -289.4323
   8   2.0000     -10.624002      -289.0938
   9   2.0000     -10.620071      -288.9868
  10   2.0000     -10.619261      -288.9648
  11   2.0000     -10.612475      -288.7801
  12   2.0000     -10.598341      -288.3955
  13   2.0000      -2.383872       -64.8685
  14   2.0000      -1.541353       -41.9424
  15   2.0000      -1.521417       -41.3999
  16   2.0000      -1.519292       -41.3420
  17   2.0000      -1.302767       -35.4501
  18   2.0000      -1.182303       -32.1721
  19   2.0000      -1.017709       -27.6933
  20   2.0000      -0.975499       -26.5447
  21   2.0000      -0.938335       -25.5334
  22   2.0000      -0.921050       -25.0630
  23   2.0000      -0.837701       -22.7950
  24   2.0000      -0.797416       -21.6988
  25   2.0000      -0.745948       -20.2983
  26   2.0000      -0.697368       -18.9763
  27   2.0000      -0.672200       -18.2915
  28   2.0000      -0.655125       -17.8269
  29   2.0000      -0.651340       -17.7239
  30   2.0000      -0.644271       -17.5315
  31   2.0000      -0.633201       -17.2303
  32   2.0000      -0.609975       -16.5983
  33   2.0000      -0.602104       -16.3841
  34   2.0000      -0.595048       -16.1921
  35   2.0000      -0.592149       -16.1132
  36   2.0000      -0.584369       -15.9015
  37   2.0000      -0.507118       -13.7994
  38   2.0000      -0.480606       -13.0780
  39   2.0000      -0.426935       -11.6175
  40   2.0000      -0.303314        -8.2536
  41   0.0000      -0.179052        -4.8722
  42   0.0000      -0.161304        -4.3893
  43   0.0000      -0.160048        -4.3551
  44   0.0000      -0.145661        -3.9637
  45   0.0000      -0.139036        -3.7834

MULLIKEN ATOMIC CHARGES
-----------------------
   0 Sc:    0.465073
   1 C :    0.215237
   2 N :   -0.417961
   3 C :   -0.071400
   4 C :   -0.071587
   5 N :   -0.416505
   6 C :   -0.527240
   7 H :    0.277669
   8 H :    0.249921
   9 H :    0.274776
  10 C :   -0.517667
  11 H :    0.248091
  12 H :    0.273705
  13 H :    0.273716
  14 H :    0.301094
  15 H :    0.301399
  16 C :   -0.871930
  17 H :    0.313190
  18 H :    0.272513
  19 H :    0.276528
  20 H :    0.151377
Sum of atomic charges:    1.0000000

LOEWDIN ATOMIC CHARGES
----------------------
   0 Sc:    0.258167
   1 C :   -0.036357
   2 N :    0.001322
   3 C :   -0.087139
   4 C :   -0.081928
   5 N :   -0.004918
   6 C :   -0.240149
   7 H :    0.158032
   8 H :    0.138740
   9 H :    0.154271
  10 C :   -0.239133
  11 H :    0.147021
  12 H :    0.152396
  13 H :    0.152116
  14 H :    0.166155
  15 H :    0.165987
  16 C :   -0.453034
  17 H :    0.172937
  18 H :    0.162273
  19 H :    0.156853
  20 H :    0.156389

  Mayer bond orders larger than 0.100000
B(  0-Sc,  1-C ) :   0.6982 B(  0-Sc, 16-C ) :   0.2141 B(  0-Sc, 20-H ) :   0.2261
B(  1-C ,  2-N ) :   1.2253 B(  1-C ,  5-N ) :   1.2109 B(  2-N ,  3-C ) :   1.1543
B(  2-N , 10-C ) :   0.9181 B(  3-C ,  4-C ) :   1.6334 B(  3-C , 14-H ) :   0.8791
B(  4-C ,  5-N ) :   1.1450 B(  4-C , 15-H ) :   0.8785 B(  5-N ,  6-C ) :   0.9182
B(  6-C ,  7-H ) :   0.9063 B(  6-C ,  8-H ) :   0.9001 B(  6-C ,  9-H ) :   0.8901
B( 10-C , 11-H ) :   0.9020 B( 10-C , 12-H ) :   0.8974 B( 10-C , 13-H ) :   0.8961
B( 16-C , 17-H ) :   0.8845 B( 16-C , 18-H ) :   0.8925 B( 16-C , 19-H ) :   0.8939
B( 16-C , 20-H ) :   0.7380

Dispersion correction           -0.011077606
FINAL SINGLE POINT ENERGY     -1104.420822410658
Dispersion correction            ... done

DIPOLE MOMENT
-------------
                                X             Y             Z
Electronic contribution:      7.60240      -7.16177      -4.51520
Nuclear contribution   :     -7.48090       7.37599       3.96981
                        -----------------------------------------
Total Dipole Moment    :      0.12150       0.21422      -0.54540
                        -----------------------------------------
Magnitude (a.u.)       :      0.59842
Magnitude (Debye)      :      1.52107

Rotational constants in cm-1:     0.050565     0.028933     0.022262
Rotational constants in MHz :  1515.896157   867.398437   667.411804

                             ****ORCA TERMINATED NORMALLY****
TOTAL RUN TIME: 0 days 0 hours 4 minutes 32 seconds 780 msec
