                         Program Version 5.0.3 -  RELEASE  -
|  1> ! EnGrad PBEh-3c
|  2> %output
|  3> xyzfile=True
|  4> end
|  5> %scf
|  6> maxiter 250
|  7> end
|  8> %output
|  9> Print[P_Hirshfeld] = 1
| 10> end
| 11> % maxcore
| 12> 4000
| 13> *xyz 1 1
| 14> Sc   1.24996191  -0.78407475  -1.92116288
| 15> C    0.39010743  -0.58620358   0.22411127
| 16> N   -0.44571478  -1.36172863   0.94888576
| 17> C   -0.77760955  -0.77054106   2.13748179
| 18> C   -0.11974701   0.40851399   2.18183271
| 19> N    0.58900400   0.49489096   1.01570596
| 20> C    1.41001225   1.62095347   0.63577488
| 21> H    1.41080644   2.35285454   1.44463206
| 22> H    1.02712956   2.11233970  -0.25352447
| 23> H    2.43595820   1.30619988   0.46204464
| 24> C   -0.96278320  -2.65087842   0.54447451
| 25> H   -0.61493398  -2.90474609  -0.45157324
| 26> H   -2.05108033  -2.63871397   0.51759291
| 27> H   -0.63199236  -3.42031325   1.24058865
| 28> H   -1.44052608  -1.23366174   2.85266914
| 29> H   -0.09325218   1.16644896   2.95333066
| 30> C   -0.25198230   1.39898526  -2.86955037
| 31> H   -0.84127430   1.52301660  -3.75446084
| 32> H    0.53198544   2.14976370  -2.92403842
| 33> H   -0.87271882   1.60088180  -2.01702216
| 34> H    0.06564103   0.22545301  -2.97001808
| 35> *
| 36>
| 37>                          ****END OF INPUT****

CARTESIAN COORDINATES (ANGSTROEM)
---------------------------------
  Sc     1.249962   -0.784075   -1.921163
  C      0.390107   -0.586204    0.224111
  N     -0.445715   -1.361729    0.948886
  C     -0.777610   -0.770541    2.137482
  C     -0.119747    0.408514    2.181833
  N      0.589004    0.494891    1.015706
  C      1.410012    1.620953    0.635775
  H      1.410806    2.352855    1.444632
  H      1.027130    2.112340   -0.253524
  H      2.435958    1.306200    0.462045
  C     -0.962783   -2.650878    0.544475
  H     -0.614934   -2.904746   -0.451573
  H     -2.051080   -2.638714    0.517593
  H     -0.631992   -3.420313    1.240589
  H     -1.440526   -1.233662    2.852669
  H     -0.093252    1.166449    2.953331
  C     -0.251982    1.398985   -2.869550
  H     -0.841274    1.523017   -3.754461
  H      0.531985    2.149764   -2.924038
  H     -0.872719    1.600882   -2.017022
  H      0.065641    0.225453   -2.970018

 Total Charge           Charge          ....    1
 Multiplicity           Mult            ....    1
 Number of Electrons    NEL             ....   82
 Basis Dimension        Dim             ....  175

ORBITAL ENERGIES
----------------

  NO   OCC          E(Eh)            E(eV)
   0   2.0000    -162.849513     -4431.3605
   1   2.0000     -18.155689      -494.0414
   2   2.0000     -14.998784      -408.1377
   3   2.0000     -14.990605      -407.9151
   4   2.0000     -14.983352      -407.7177
   5   2.0000     -14.854438      -404.2098
   6   2.0000     -14.853627      -404.1877
   7   2.0000     -10.635913      -289.4179
   8   2.0000     -10.622095      -289.0419
   9   2.0000     -10.619152      -288.9618
  10   2.0000     -10.618267      -288.9377
  11   2.0000     -10.612181      -288.7721
  12   2.0000     -10.594975      -288.3039
  13   2.0000      -2.378726       -64.7284
  14   2.0000      -1.537012       -41.8242
  15   2.0000      -1.517084       -41.2820
  16   2.0000      -1.514335       -41.2072
  17   2.0000      -1.302663       -35.4473
  18   2.0000      -1.181466       -32.1493
  19   2.0000      -1.019758       -27.7490
  20   2.0000      -0.974220       -26.5099
  21   2.0000      -0.943738       -25.6804
  22   2.0000      -0.920805       -25.0564
  23   2.0000      -0.834766       -22.7151
  24   2.0000      -0.798456       -21.7271
  25   2.0000      -0.744615       -20.2620
  26   2.0000      -0.697266       -18.9736
  27   2.0000      -0.668890       -18.2014
  28   2.0000      -0.653944       -17.7947
  29   2.0000      -0.650350       -17.6969
  30   2.0000      -0.644509       -17.5380
  31   2.0000      -0.635611       -17.2959
  32   2.0000      -0.615302       -16.7432
  33   2.0000      -0.605850       -16.4860
  34   2.0000      -0.596122       -16.2213
  35   2.0000      -0.591191       -16.0871
  36   2.0000      -0.584847       -15.9145
  37   2.0000      -0.506605       -13.7854
  38   2.0000      -0.479541       -13.0490
  39   2.0000      -0.428029       -11.6473
  40   2.0000      -0.301448        -8.2028
  41   0.0000      -0.178826        -4.8661
  42   0.0000      -0.159280        -4.3342
  43   0.0000      -0.156887        -4.2691
  44   0.0000      -0.144182        -3.9234
  45   0.0000      -0.135288        -3.6814

MULLIKEN ATOMIC CHARGES
-----------------------
   0 Sc:    0.468894
   1 C :    0.212864
   2 N :   -0.419670
   3 C :   -0.068901
   4 C :   -0.069436
   5 N :   -0.416253
   6 C :   -0.528809
   7 H :    0.278094
   8 H :    0.249644
   9 H :    0.274174
  10 C :   -0.516128
  11 H :    0.246018
  12 H :    0.273055
  13 H :    0.273362
  14 H :    0.299265
  15 H :    0.299381
  16 C :   -0.874136
  17 H :    0.315565
  18 H :    0.273066
  19 H :    0.281320
  20 H :    0.148631
Sum of atomic charges:    1.0000000

LOEWDIN ATOMIC CHARGES
----------------------
   0 Sc:    0.250484
   1 C :   -0.032795
   2 N :   -0.000629
   3 C :   -0.089072
   4 C :   -0.083272
   5 N :   -0.006770
   6 C :   -0.240515
   7 H :    0.158131
   8 H :    0.138222
   9 H :    0.154241
  10 C :   -0.238460
  11 H :    0.145995
  12 H :    0.152016
  13 H :    0.152046
  14 H :    0.167233
  15 H :    0.166807
  16 C :   -0.446266
  17 H :    0.172654
  18 H :    0.161430
  19 H :    0.159220
  20 H :    0.159299

  Mayer bond orders larger than 0.100000
B(  0-Sc,  1-C ) :   0.6969 B(  0-Sc, 16-C ) :   0.2341 B(  0-Sc, 20-H ) :   0.2456
B(  1-C ,  2-N ) :   1.2250 B(  1-C ,  5-N ) :   1.2113 B(  2-N ,  3-C ) :   1.1486
B(  2-N , 10-C ) :   0.9201 B(  3-C ,  4-C ) :   1.6397 B(  3-C , 14-H ) :   0.8801
B(  4-C ,  5-N ) :   1.1395 B(  4-C , 15-H ) :   0.8795 B(  5-N ,  6-C ) :   0.9194
B(  6-C ,  7-H ) :   0.9062 B(  6-C ,  8-H ) :   0.8996 B(  6-C ,  9-H ) :   0.8897
B( 10-C , 11-H ) :   0.9045 B( 10-C , 12-H ) :   0.8977 B( 10-C , 13-H ) :   0.8963
B( 16-C , 17-H ) :   0.8829 B( 16-C , 18-H ) :   0.8904 B( 16-C , 19-H ) :   0.8918
B( 16-C , 20-H ) :   0.7213

Dispersion correction           -0.011095982
FINAL SINGLE POINT ENERGY     -1104.419572943792
Dispersion correction            ... done

DIPOLE MOMENT
-------------
                                X             Y             Z
Electronic contribution:      7.49140      -6.88447      -4.62920
Nuclear contribution   :     -7.34536       7.08028       4.07818
                        -----------------------------------------
Total Dipole Moment    :      0.14604       0.19581      -0.55102
                        -----------------------------------------
Magnitude (a.u.)       :      0.60274
Magnitude (Debye)      :      1.53204

Rotational constants in cm-1:     0.051410     0.028991     0.022322
Rotational constants in MHz :  1541.235312   869.142167   669.193515

                             ****ORCA TERMINATED NORMALLY****
TOTAL RUN TIME: 0 days 0 hours 4 minutes 18 seconds 406 msec
