                         Program Version 5.0.3 -  RELEASE  -
|  1> ! EnGrad PBEh-3c
|  2> %output
|  3> xyzfile=True
|  4> end
|  5> %scf
|  6> maxiter 250
|  7> end
|  8> %output
|  9> Print[P_Hirshfeld] = 1
| 10> end
| 11> % maxcore
| 12> 4000
| 13> *xyz 1 1
| 14> Sc   1.20279678  -0.61963324  -1.96085397
| 15> C    0.36955469  -0.57770875   0.20424212
| 16> N   -0.45076060  -1.36142817   0.93437051
| 17> C   -0.77026423  -0.77645515   2.13503540
| 18> C   -0.12049986   0.40188195   2.17888599
| 19> N    0.57846309   0.49241889   1.00401509
| 20> C    1.41500406   1.61135655   0.63599939
| 21> H    1.42498942   2.34722264   1.44014076
| 22> H    1.01419800   2.10198283  -0.24234695
| 23> H    2.44635847   1.29909503   0.44650426
| 24> C   -0.96462777  -2.65427598   0.54821316
| 25> H   -0.60315919  -2.90066515  -0.44209403
| 26> H   -2.04943398  -2.62725880   0.51702476
| 27> H   -0.63632682  -3.42864030   1.24098582
| 28> H   -1.44673458  -1.21979072   2.85436506
| 29> H   -0.09737067   1.17569934   2.93730543
| 30> C   -0.24165014   1.33610588  -2.82382564
| 31> H   -0.80631949   1.46856794  -3.69773032
| 32> H    0.53812167   2.07832550  -2.90049189
| 33> H   -0.88861051   1.58405579  -2.00392913
| 34> H    0.09601033   0.28150449  -3.00895360
| 35> *
| 36>
| 37>                          ****END OF INPUT****

CARTESIAN COORDINATES (ANGSTROEM)
---------------------------------
  Sc     1.202797   -0.619633   -1.960854
  C      0.369555   -0.577709    0.204242
  N     -0.450761   -1.361428    0.934371
  C     -0.770264   -0.776455    2.135035
  C     -0.120500    0.401882    2.178886
  N      0.578463    0.492419    1.004015
  C      1.415004    1.611357    0.635999
  H      1.424989    2.347223    1.440141
  H      1.014198    2.101983   -0.242347
  H      2.446358    1.299095    0.446504
  C     -0.964628   -2.654276    0.548213
  H     -0.603159   -2.900665   -0.442094
  H     -2.049434   -2.627259    0.517025
  H     -0.636327   -3.428640    1.240986
  H     -1.446735   -1.219791    2.854365
  H     -0.097371    1.175699    2.937305
  C     -0.241650    1.336106   -2.823826
  H     -0.806319    1.468568   -3.697730
  H      0.538122    2.078326   -2.900492
  H     -0.888611    1.584056   -2.003929
  H      0.096010    0.281504   -3.008954

 Total Charge           Charge          ....    1
 Multiplicity           Mult            ....    1
 Number of Electrons    NEL             ....   82
 Basis Dimension        Dim             ....  175

ORBITAL ENERGIES
----------------

  NO   OCC          E(Eh)            E(eV)
   0   2.0000    -162.824195     -4430.6716
   1   2.0000     -18.129835      -493.3379
   2   2.0000     -14.973010      -407.4363
   3   2.0000     -14.968274      -407.3075
   4   2.0000     -14.953990      -406.9188
   5   2.0000     -14.850603      -404.1054
   6   2.0000     -14.850513      -404.1030
   7   2.0000     -10.631476      -289.2972
   8   2.0000     -10.619365      -288.9676
   9   2.0000     -10.618721      -288.9501
  10   2.0000     -10.615981      -288.8755
  11   2.0000     -10.607882      -288.6551
  12   2.0000     -10.606856      -288.6272
  13   2.0000      -2.358092       -64.1670
  14   2.0000      -1.515049       -41.2266
  15   2.0000      -1.502145       -40.8754
  16   2.0000      -1.494547       -40.6687
  17   2.0000      -1.300030       -35.3756
  18   2.0000      -1.178366       -32.0650
  19   2.0000      -1.018027       -27.7019
  20   2.0000      -0.977761       -26.6062
  21   2.0000      -0.972626       -26.4665
  22   2.0000      -0.917447       -24.9650
  23   2.0000      -0.832045       -22.6411
  24   2.0000      -0.795676       -21.6515
  25   2.0000      -0.741929       -20.1889
  26   2.0000      -0.695976       -18.9385
  27   2.0000      -0.678679       -18.4678
  28   2.0000      -0.665713       -18.1150
  29   2.0000      -0.651841       -17.7375
  30   2.0000      -0.647256       -17.6127
  31   2.0000      -0.643263       -17.5041
  32   2.0000      -0.633151       -17.2289
  33   2.0000      -0.623582       -16.9685
  34   2.0000      -0.594399       -16.1744
  35   2.0000      -0.588154       -16.0045
  36   2.0000      -0.583568       -15.8797
  37   2.0000      -0.499950       -13.6043
  38   2.0000      -0.476378       -12.9629
  39   2.0000      -0.426895       -11.6164
  40   2.0000      -0.296514        -8.0686
  41   0.0000      -0.179108        -4.8738
  42   0.0000      -0.146522        -3.9871
  43   0.0000      -0.138330        -3.7642
  44   0.0000      -0.126264        -3.4358
  45   0.0000      -0.124196        -3.3795

MULLIKEN ATOMIC CHARGES
-----------------------
   0 Sc:    0.444814
   1 C :    0.197719
   2 N :   -0.424703
   3 C :   -0.067643
   4 C :   -0.071974
   5 N :   -0.411651
   6 C :   -0.527708
   7 H :    0.277981
   8 H :    0.250338
   9 H :    0.269088
  10 C :   -0.516390
  11 H :    0.250821
  12 H :    0.267923
  13 H :    0.273840
  14 H :    0.297854
  15 H :    0.297495
  16 C :   -0.897043
  17 H :    0.318671
  18 H :    0.296024
  19 H :    0.306357
  20 H :    0.168188
Sum of atomic charges:    1.0000000

LOEWDIN ATOMIC CHARGES
----------------------
   0 Sc:    0.198110
   1 C :   -0.033598
   2 N :   -0.003369
   3 C :   -0.088926
   4 C :   -0.086127
   5 N :   -0.010742
   6 C :   -0.241318
   7 H :    0.156482
   8 H :    0.140318
   9 H :    0.150062
  10 C :   -0.238113
  11 H :    0.147974
  12 H :    0.149572
  13 H :    0.152675
  14 H :    0.167248
  15 H :    0.165986
  16 C :   -0.424772
  17 H :    0.174309
  18 H :    0.176118
  19 H :    0.177021
  20 H :    0.171090

  Mayer bond orders larger than 0.100000
B(  0-Sc,  1-C ) :   0.6851 B(  0-Sc, 16-C ) :   0.2646 B(  0-Sc, 20-H ) :   0.1279
B(  1-C ,  2-N ) :   1.2258 B(  1-C ,  5-N ) :   1.2074 B(  2-N ,  3-C ) :   1.1415
B(  2-N , 10-C ) :   0.9208 B(  3-C ,  4-C ) :   1.6490 B(  3-C , 14-H ) :   0.8807
B(  4-C ,  5-N ) :   1.1309 B(  4-C , 15-H ) :   0.8802 B(  5-N ,  6-C ) :   0.9182
B(  6-C ,  7-H ) :   0.9027 B(  6-C ,  8-H ) :   0.8972 B(  6-C ,  9-H ) :   0.8988
B( 10-C , 11-H ) :   0.9068 B( 10-C , 12-H ) :   0.9001 B( 10-C , 13-H ) :   0.8970
B( 16-C , 17-H ) :   0.8698 B( 16-C , 18-H ) :   0.8762 B( 16-C , 19-H ) :   0.8804
B( 16-C , 20-H ) :   0.7804

Dispersion correction           -0.011178298
FINAL SINGLE POINT ENERGY     -1104.417477938787
Dispersion correction            ... done

DIPOLE MOMENT
-------------
                                X             Y             Z
Electronic contribution:      6.85202      -5.65752      -5.02094
Nuclear contribution   :     -7.03007       6.20977       4.32398
                        -----------------------------------------
Total Dipole Moment    :     -0.17805       0.55224      -0.69696
                        -----------------------------------------
Magnitude (a.u.)       :      0.90688
Magnitude (Debye)      :      2.30510

Rotational constants in cm-1:     0.054109     0.029130     0.022451
Rotational constants in MHz :  1622.156077   873.299154   673.055997

                             ****ORCA TERMINATED NORMALLY****
TOTAL RUN TIME: 0 days 0 hours 4 minutes 43 seconds 921 msec
