                         Program Version 5.0.3 -  RELEASE  -
|  1> ! EnGrad PBEh-3c
|  2> %output
|  3> xyzfile=True
|  4> end
|  5> %scf
|  6> maxiter 250
|  7> end
|  8> %output
|  9> Print[P_Hirshfeld] = 1
| 10> end
| 11> % maxcore
| 12> 4000
| 13> *xyz 1 1
| 14> Sc   0.93871347  -0.64406362  -1.95224223
| 15> C    0.23774904  -0.44702859   0.20479286
| 16> N   -0.46009375  -1.33135640   0.93630777
| 17> C   -0.62074968  -0.88319112   2.21515913
| 18> C    0.01165361   0.30764643   2.29077743
| 19> N    0.49621344   0.57452364   1.04410102
| 20> C    1.28217748   1.75625572   0.75038723
| 21> H    1.02217837   2.60405469   1.37799071
| 22> H    1.09446006   2.08174540  -0.27082387
| 23> H    2.34379120   1.54887677   0.86218886
| 24> C   -0.97202241  -2.61849372   0.50021562
| 25> H   -0.84634127  -2.72431541  -0.57385369
| 26> H   -2.03262760  -2.68936802   0.73041803
| 27> H   -0.43838320  -3.42751802   0.99367636
| 28> H   -1.14974401  -1.43211152   2.97558515
| 29> H    0.13275912   0.95497617   3.14227795
| 30> C    0.07336556   1.58672037  -2.92928630
| 31> H   -0.46059479   1.51901317  -3.88595012
| 32> H    0.82823891   2.36486217  -3.09253855
| 33> H   -0.63728620   1.96952317  -2.18992646
| 34> H   -0.84343016  -1.07074568  -3.12925973
| 35> *
| 36>
| 37>                          ****END OF INPUT****

CARTESIAN COORDINATES (ANGSTROEM)
---------------------------------
  Sc     0.938713   -0.644064   -1.952242
  C      0.237749   -0.447029    0.204793
  N     -0.460094   -1.331356    0.936308
  C     -0.620750   -0.883191    2.215159
  C      0.011654    0.307646    2.290777
  N      0.496213    0.574524    1.044101
  C      1.282177    1.756256    0.750387
  H      1.022178    2.604055    1.377991
  H      1.094460    2.081745   -0.270824
  H      2.343791    1.548877    0.862189
  C     -0.972022   -2.618494    0.500216
  H     -0.846341   -2.724315   -0.573854
  H     -2.032628   -2.689368    0.730418
  H     -0.438383   -3.427518    0.993676
  H     -1.149744   -1.432112    2.975585
  H      0.132759    0.954976    3.142278
  C      0.073366    1.586720   -2.929286
  H     -0.460595    1.519013   -3.885950
  H      0.828239    2.364862   -3.092539
  H     -0.637286    1.969523   -2.189926
  H     -0.843430   -1.070746   -3.129260

 Total Charge           Charge          ....    1
 Multiplicity           Mult            ....    1
 Number of Electrons    NEL             ....   82
 Basis Dimension        Dim             ....  175

ORBITAL ENERGIES
----------------

  NO   OCC          E(Eh)            E(eV)
   0   2.0000    -162.929638     -4433.5408
   1   2.0000     -18.237052      -496.2554
   2   2.0000     -15.075158      -410.2159
   3   2.0000     -15.072015      -410.1304
   4   2.0000     -15.071058      -410.1043
   5   2.0000     -14.878336      -404.8601
   6   2.0000     -14.877763      -404.8445
   7   2.0000     -10.658497      -290.0324
   8   2.0000     -10.638422      -289.4862
   9   2.0000     -10.636693      -289.4391
  10   2.0000     -10.631605      -289.3007
  11   2.0000     -10.629591      -289.2459
  12   2.0000     -10.521120      -286.2942
  13   2.0000      -2.436045       -66.2882
  14   2.0000      -1.584108       -43.1058
  15   2.0000      -1.574976       -42.8573
  16   2.0000      -1.569550       -42.7096
  17   2.0000      -1.327046       -36.1108
  18   2.0000      -1.203522       -32.7495
  19   2.0000      -1.036626       -28.2080
  20   2.0000      -0.995833       -27.0980
  21   2.0000      -0.938051       -25.5257
  22   2.0000      -0.857068       -23.3220
  23   2.0000      -0.831868       -22.6363
  24   2.0000      -0.817645       -22.2493
  25   2.0000      -0.764162       -20.7939
  26   2.0000      -0.716888       -19.5075
  27   2.0000      -0.687154       -18.6984
  28   2.0000      -0.671242       -18.2654
  29   2.0000      -0.668793       -18.1988
  30   2.0000      -0.660936       -17.9850
  31   2.0000      -0.612339       -16.6626
  32   2.0000      -0.606885       -16.5142
  33   2.0000      -0.602738       -16.4013
  34   2.0000      -0.538357       -14.6495
  35   2.0000      -0.528944       -14.3933
  36   2.0000      -0.521001       -14.1772
  37   2.0000      -0.499583       -13.5943
  38   2.0000      -0.447597       -12.1797
  39   2.0000      -0.411430       -11.1956
  40   2.0000      -0.378951       -10.3118
  41   0.0000      -0.197673        -5.3789
  42   0.0000      -0.194538        -5.2937
  43   0.0000      -0.186143        -5.0652
  44   0.0000      -0.178122        -4.8470
  45   0.0000      -0.174606        -4.7513

MULLIKEN ATOMIC CHARGES
-----------------------
   0 Sc:    0.799485
   1 C :    0.196032
   2 N :   -0.414582
   3 C :   -0.063918
   4 C :   -0.057949
   5 N :   -0.414235
   6 C :   -0.558577
   7 H :    0.292879
   8 H :    0.292786
   9 H :    0.265013
  10 C :   -0.529751
  11 H :    0.261756
  12 H :    0.292207
  13 H :    0.275873
  14 H :    0.309680
  15 H :    0.309832
  16 C :   -0.890112
  17 H :    0.262124
  18 H :    0.213110
  19 H :    0.218703
  20 H :   -0.060357
Sum of atomic charges:    1.0000000

LOEWDIN ATOMIC CHARGES
----------------------
   0 Sc:    0.561965
   1 C :   -0.035139
   2 N :    0.012133
   3 C :   -0.078298
   4 C :   -0.073310
   5 N :    0.010207
   6 C :   -0.246641
   7 H :    0.164791
   8 H :    0.163138
   9 H :    0.146509
  10 C :   -0.234233
  11 H :    0.152671
  12 H :    0.163588
  13 H :    0.152708
  14 H :    0.171504
  15 H :    0.171555
  16 C :   -0.564718
  17 H :    0.151840
  18 H :    0.124929
  19 H :    0.131499
  20 H :   -0.046699

  Mayer bond orders larger than 0.100000
B(  0-Sc,  1-C ) :   0.6627 B(  0-Sc, 16-C ) :   0.9793 B(  0-Sc, 20-H ) :   0.9849
B(  1-C ,  2-N ) :   1.2346 B(  1-C ,  5-N ) :   1.2283 B(  2-N ,  3-C ) :   1.1624
B(  2-N , 10-C ) :   0.9077 B(  3-C ,  4-C ) :   1.6231 B(  3-C , 14-H ) :   0.8749
B(  4-C ,  5-N ) :   1.1575 B(  4-C , 15-H ) :   0.8752 B(  5-N ,  6-C ) :   0.9055
B(  6-C ,  7-H ) :   0.8975 B(  6-C ,  8-H ) :   0.8811 B(  6-C ,  9-H ) :   0.8966
B( 10-C , 11-H ) :   0.8983 B( 10-C , 12-H ) :   0.8922 B( 10-C , 13-H ) :   0.8919
B( 16-C , 17-H ) :   0.9098 B( 16-C , 18-H ) :   0.9111 B( 16-C , 19-H ) :   0.9114

Dispersion correction           -0.011037796
FINAL SINGLE POINT ENERGY     -1104.416925894479
Dispersion correction            ... done

DIPOLE MOMENT
-------------
                                X             Y             Z
Electronic contribution:      7.56379      -6.70430      -2.84238
Nuclear contribution   :     -5.78207       5.60987       3.97015
                        -----------------------------------------
Total Dipole Moment    :      1.78172      -1.09444       1.12777
                        -----------------------------------------
Magnitude (a.u.)       :      2.37575
Magnitude (Debye)      :      6.03868

Rotational constants in cm-1:     0.054043     0.029563     0.021327
Rotational constants in MHz :  1620.175134   886.266696   639.366897

                             ****ORCA TERMINATED NORMALLY****
TOTAL RUN TIME: 0 days 0 hours 2 minutes 12 seconds 606 msec
