                         Program Version 5.0.3 -  RELEASE  -
|  1> ! EnGrad PBEh-3c
|  2> %output
|  3> xyzfile=True
|  4> end
|  5> %scf
|  6> maxiter 250
|  7> end
|  8> %output
|  9> Print[P_Hirshfeld] = 1
| 10> end
| 11> % maxcore
| 12> 4000
| 13> *xyz 1 1
| 14> Sc   0.89193927  -0.23993915  -2.03427391
| 15> C    0.33704568  -0.53011650   0.20764724
| 16> N   -0.45478219  -1.34821637   0.92542011
| 17> C   -0.72779728  -0.80375379   2.14319887
| 18> C   -0.08894692   0.38019410   2.20387485
| 19> N    0.56504510   0.52197744   1.02037345
| 20> C    1.39881551   1.64856722   0.65502624
| 21> H    1.33979929   2.39258478   1.44389623
| 22> H    1.04666638   2.11910617  -0.25704545
| 23> H    2.44066642   1.35582682   0.54592176
| 24> C   -0.96282546  -2.64670339   0.51737885
| 25> H   -0.64212295  -2.87393024  -0.49155409
| 26> H   -2.04993988  -2.64249301   0.55163059
| 27> H   -0.58868939  -3.41594646   1.19031319
| 28> H   -1.36176717  -1.28207950   2.86516865
| 29> H   -0.06513568   1.12824698   2.97522365
| 30> C   -0.04533736   1.59539656  -2.76522619
| 31> H   -0.60974303   1.42413619  -3.70566709
| 32> H    0.58354200   2.50415955  -2.88131827
| 33> H   -0.80020986   1.76210861  -1.96559845
| 34> H   -0.21041111  -1.04062117  -3.14352178
| 35> *
| 36>
| 37>                          ****END OF INPUT****

CARTESIAN COORDINATES (ANGSTROEM)
---------------------------------
  Sc     0.891939   -0.239939   -2.034274
  C      0.337046   -0.530116    0.207647
  N     -0.454782   -1.348216    0.925420
  C     -0.727797   -0.803754    2.143199
  C     -0.088947    0.380194    2.203875
  N      0.565045    0.521977    1.020373
  C      1.398816    1.648567    0.655026
  H      1.339799    2.392585    1.443896
  H      1.046666    2.119106   -0.257045
  H      2.440666    1.355827    0.545922
  C     -0.962825   -2.646703    0.517379
  H     -0.642123   -2.873930   -0.491554
  H     -2.049940   -2.642493    0.551631
  H     -0.588689   -3.415946    1.190313
  H     -1.361767   -1.282080    2.865169
  H     -0.065136    1.128247    2.975224
  C     -0.045337    1.595397   -2.765226
  H     -0.609743    1.424136   -3.705667
  H      0.583542    2.504160   -2.881318
  H     -0.800210    1.762109   -1.965598
  H     -0.210411   -1.040621   -3.143522

 Total Charge           Charge          ....    1
 Multiplicity           Mult            ....    1
 Number of Electrons    NEL             ....   82
 Basis Dimension        Dim             ....  175

ORBITAL ENERGIES
----------------

  NO   OCC          E(Eh)            E(eV)
   0   2.0000    -162.893656     -4432.5617
   1   2.0000     -18.206430      -495.4221
   2   2.0000     -15.043800      -409.3626
   3   2.0000     -15.041070      -409.2883
   4   2.0000     -15.040401      -409.2701
   5   2.0000     -14.874765      -404.7629
   6   2.0000     -14.873735      -404.7349
   7   2.0000     -10.652753      -289.8761
   8   2.0000     -10.638644      -289.4922
   9   2.0000     -10.636627      -289.4373
  10   2.0000     -10.633087      -289.3410
  11   2.0000     -10.623517      -289.0806
  12   2.0000     -10.525739      -286.4199
  13   2.0000      -2.414386       -65.6988
  14   2.0000      -1.564038       -42.5596
  15   2.0000      -1.554987       -42.3133
  16   2.0000      -1.550973       -42.2041
  17   2.0000      -1.324784       -36.0492
  18   2.0000      -1.201660       -32.6988
  19   2.0000      -1.037674       -28.2365
  20   2.0000      -0.992558       -27.0089
  21   2.0000      -0.939100       -25.5542
  22   2.0000      -0.854861       -23.2620
  23   2.0000      -0.851671       -23.1752
  24   2.0000      -0.815953       -22.2032
  25   2.0000      -0.762337       -20.7443
  26   2.0000      -0.716460       -19.4959
  27   2.0000      -0.685537       -18.6544
  28   2.0000      -0.669511       -18.2183
  29   2.0000      -0.668514       -18.1912
  30   2.0000      -0.660813       -17.9816
  31   2.0000      -0.616975       -16.7888
  32   2.0000      -0.606254       -16.4970
  33   2.0000      -0.603187       -16.4136
  34   2.0000      -0.557371       -15.1668
  35   2.0000      -0.548017       -14.9123
  36   2.0000      -0.527197       -14.3458
  37   2.0000      -0.498422       -13.5628
  38   2.0000      -0.446771       -12.1572
  39   2.0000      -0.444091       -12.0843
  40   2.0000      -0.421156       -11.4602
  41   0.0000      -0.188517        -5.1298
  42   0.0000      -0.180313        -4.9066
  43   0.0000      -0.168057        -4.5731
  44   0.0000      -0.156092        -4.2475
  45   0.0000      -0.148842        -4.0502

MULLIKEN ATOMIC CHARGES
-----------------------
   0 Sc:    0.787045
   1 C :    0.178838
   2 N :   -0.418241
   3 C :   -0.062342
   4 C :   -0.063879
   5 N :   -0.397056
   6 C :   -0.561012
   7 H :    0.295162
   8 H :    0.288030
   9 H :    0.266136
  10 C :   -0.522359
  11 H :    0.264651
  12 H :    0.280742
  13 H :    0.277709
  14 H :    0.307377
  15 H :    0.306381
  16 C :   -0.981485
  17 H :    0.288769
  18 H :    0.238116
  19 H :    0.227832
  20 H :   -0.000413
Sum of atomic charges:    1.0000000

LOEWDIN ATOMIC CHARGES
----------------------
   0 Sc:    0.513162
   1 C :   -0.044772
   2 N :    0.011650
   3 C :   -0.079185
   4 C :   -0.078112
   5 N :    0.003223
   6 C :   -0.242480
   7 H :    0.166059
   8 H :    0.159405
   9 H :    0.148475
  10 C :   -0.233628
  11 H :    0.153981
  12 H :    0.157286
  13 H :    0.155211
  14 H :    0.170246
  15 H :    0.169284
  16 C :   -0.579264
  17 H :    0.176723
  18 H :    0.148801
  19 H :    0.155164
  20 H :   -0.031228

  Mayer bond orders larger than 0.100000
B(  0-Sc,  1-C ) :   0.6384 B(  0-Sc, 16-C ) :   1.0093 B(  0-Sc, 20-H ) :   0.9805
B(  1-C ,  2-N ) :   1.2527 B(  1-C ,  5-N ) :   1.2185 B(  2-N ,  3-C ) :   1.1681
B(  2-N , 10-C ) :   0.9065 B(  3-C ,  4-C ) :   1.6267 B(  3-C , 14-H ) :   0.8764
B(  4-C ,  5-N ) :   1.1512 B(  4-C , 15-H ) :   0.8762 B(  5-N ,  6-C ) :   0.9067
B(  6-C ,  7-H ) :   0.8998 B(  6-C ,  8-H ) :   0.8735 B(  6-C ,  9-H ) :   0.8953
B( 10-C , 11-H ) :   0.9082 B( 10-C , 12-H ) :   0.8949 B( 10-C , 13-H ) :   0.8945
B( 16-C , 17-H ) :   0.8803 B( 16-C , 18-H ) :   0.8949 B( 16-C , 19-H ) :   0.8769

Dispersion correction           -0.011119124
FINAL SINGLE POINT ENERGY     -1104.474093781997
Dispersion correction            ... done

DIPOLE MOMENT
-------------
                                X             Y             Z
Electronic contribution:      6.86207      -3.73779      -3.78857
Nuclear contribution   :     -5.46763       3.36471       4.63368
                        -----------------------------------------
Total Dipole Moment    :      1.39444      -0.37308       0.84510
                        -----------------------------------------
Magnitude (a.u.)       :      1.67268
Magnitude (Debye)      :      4.25161

Rotational constants in cm-1:     0.058818     0.029455     0.021924
Rotational constants in MHz :  1763.325557   883.030505   657.263818

                             ****ORCA TERMINATED NORMALLY****
TOTAL RUN TIME: 0 days 0 hours 1 minutes 55 seconds 337 msec
