                         Program Version 5.0.3 -  RELEASE  -
|  1> ! EnGrad PBEh-3c
|  2> %output
|  3> xyzfile=True
|  4> end
|  5> %scf
|  6> maxiter 250
|  7> end
|  8> %output
|  9> Print[P_Hirshfeld] = 1
| 10> end
| 11> % maxcore
| 12> 4000
| 13> *xyz 1 1
| 14> Sc   0.82309427  -0.55408287  -2.07103462
| 15> C    0.26521903  -0.46302335   0.19819354
| 16> N   -0.46252624  -1.33704020   0.94668422
| 17> C   -0.63874903  -0.87284276   2.21362967
| 18> C   -0.02387857   0.31958464   2.28405115
| 19> N    0.51431616   0.56622441   1.06407119
| 20> C    1.31606691   1.74532152   0.70258356
| 21> H    1.07767756   2.56771601   1.40221437
| 22> H    1.08344907   2.08328030  -0.26983676
| 23> H    2.36536994   1.51467500   0.82088422
| 24> C   -0.96458791  -2.62330223   0.49814114
| 25> H   -0.81546632  -2.75205991  -0.56263248
| 26> H   -2.03566532  -2.68399828   0.69869214
| 27> H   -0.46376514  -3.42886651   1.03615393
| 28> H   -1.19042207  -1.40742419   2.95883603
| 29> H    0.09821072   0.98671615   3.11480496
| 30> C    0.09834389   1.55432987  -2.88647895
| 31> H   -0.49038351   1.50523649  -3.85119705
| 32> H    0.78026715   2.39124143  -3.05816461
| 33> H   -0.66175587   1.92974286  -2.16002655
| 34> H   -0.67487975  -1.04020994  -3.07802108
| 35> *
| 36>
| 37>                          ****END OF INPUT****

CARTESIAN COORDINATES (ANGSTROEM)
---------------------------------
  Sc     0.823094   -0.554083   -2.071035
  C      0.265219   -0.463023    0.198194
  N     -0.462526   -1.337040    0.946684
  C     -0.638749   -0.872843    2.213630
  C     -0.023879    0.319585    2.284051
  N      0.514316    0.566224    1.064071
  C      1.316067    1.745322    0.702584
  H      1.077678    2.567716    1.402214
  H      1.083449    2.083280   -0.269837
  H      2.365370    1.514675    0.820884
  C     -0.964588   -2.623302    0.498141
  H     -0.815466   -2.752060   -0.562632
  H     -2.035665   -2.683998    0.698692
  H     -0.463765   -3.428867    1.036154
  H     -1.190422   -1.407424    2.958836
  H      0.098211    0.986716    3.114805
  C      0.098344    1.554330   -2.886479
  H     -0.490384    1.505236   -3.851197
  H      0.780267    2.391241   -3.058165
  H     -0.661756    1.929743   -2.160027
  H     -0.674880   -1.040210   -3.078021

 Total Charge           Charge          ....    1
 Multiplicity           Mult            ....    1
 Number of Electrons    NEL             ....   82
 Basis Dimension        Dim             ....  175

ORBITAL ENERGIES
----------------

  NO   OCC          E(Eh)            E(eV)
   0   2.0000    -162.920573     -4433.2942
   1   2.0000     -18.230886      -496.0876
   2   2.0000     -15.068524      -410.0354
   3   2.0000     -15.065732      -409.9594
   4   2.0000     -15.065092      -409.9420
   5   2.0000     -14.874309      -404.7505
   6   2.0000     -14.872710      -404.7070
   7   2.0000     -10.657522      -290.0059
   8   2.0000     -10.634369      -289.3759
   9   2.0000     -10.631960      -289.3103
  10   2.0000     -10.628668      -289.2208
  11   2.0000     -10.626953      -289.1741
  12   2.0000     -10.522263      -286.3253
  13   2.0000      -2.431567       -66.1663
  14   2.0000      -1.579433       -42.9786
  15   2.0000      -1.570341       -42.7312
  16   2.0000      -1.566719       -42.6326
  17   2.0000      -1.317200       -35.8428
  18   2.0000      -1.194903       -32.5150
  19   2.0000      -1.033692       -28.1282
  20   2.0000      -0.986521       -26.8446
  21   2.0000      -0.937297       -25.5051
  22   2.0000      -0.847732       -23.0680
  23   2.0000      -0.837089       -22.7783
  24   2.0000      -0.815271       -22.1846
  25   2.0000      -0.759483       -20.6666
  26   2.0000      -0.710258       -19.3271
  27   2.0000      -0.681409       -18.5421
  28   2.0000      -0.665901       -18.1201
  29   2.0000      -0.665506       -18.1093
  30   2.0000      -0.655898       -17.8479
  31   2.0000      -0.613977       -16.7072
  32   2.0000      -0.605017       -16.4634
  33   2.0000      -0.599045       -16.3009
  34   2.0000      -0.536516       -14.5993
  35   2.0000      -0.529830       -14.4174
  36   2.0000      -0.519209       -14.1284
  37   2.0000      -0.496026       -13.4975
  38   2.0000      -0.442089       -12.0299
  39   2.0000      -0.439754       -11.9663
  40   2.0000      -0.410866       -11.1802
  41   0.0000      -0.195134        -5.3099
  42   0.0000      -0.186786        -5.0827
  43   0.0000      -0.181485        -4.9385
  44   0.0000      -0.171527        -4.6675
  45   0.0000      -0.164627        -4.4797

MULLIKEN ATOMIC CHARGES
-----------------------
   0 Sc:    0.784284
   1 C :    0.189130
   2 N :   -0.417289
   3 C :   -0.059196
   4 C :   -0.054013
   5 N :   -0.424284
   6 C :   -0.543341
   7 H :    0.280783
   8 H :    0.297633
   9 H :    0.267982
  10 C :   -0.525480
  11 H :    0.258062
  12 H :    0.286705
  13 H :    0.276373
  14 H :    0.307655
  15 H :    0.305608
  16 C :   -0.954188
  17 H :    0.265053
  18 H :    0.234301
  19 H :    0.224674
  20 H :   -0.000452
Sum of atomic charges:    1.0000000

LOEWDIN ATOMIC CHARGES
----------------------
   0 Sc:    0.558411
   1 C :   -0.036974
   2 N :    0.007651
   3 C :   -0.081482
   4 C :   -0.074693
   5 N :    0.002408
   6 C :   -0.239216
   7 H :    0.162171
   8 H :    0.160755
   9 H :    0.148455
  10 C :   -0.234612
  11 H :    0.149412
  12 H :    0.160748
  13 H :    0.153444
  14 H :    0.169921
  15 H :    0.169068
  16 C :   -0.590036
  17 H :    0.160567
  18 H :    0.136153
  19 H :    0.141501
  20 H :   -0.023654

  Mayer bond orders larger than 0.100000
B(  0-Sc,  1-C ) :   0.6518 B(  0-Sc, 16-C ) :   0.9838 B(  0-Sc, 20-H ) :   0.9895
B(  1-C ,  2-N ) :   1.2300 B(  1-C ,  5-N ) :   1.2243 B(  2-N ,  3-C ) :   1.1647
B(  2-N , 10-C ) :   0.9110 B(  3-C ,  4-C ) :   1.6117 B(  3-C , 14-H ) :   0.8762
B(  4-C ,  5-N ) :   1.1659 B(  4-C , 15-H ) :   0.8779 B(  5-N ,  6-C ) :   0.8981
B(  6-C ,  7-H ) :   0.9051 B(  6-C ,  8-H ) :   0.8785 B(  6-C ,  9-H ) :   0.8971
B( 10-C , 11-H ) :   0.9041 B( 10-C , 12-H ) :   0.8938 B( 10-C , 13-H ) :   0.8929
B( 16-C , 17-H ) :   0.8994 B( 16-C , 18-H ) :   0.9012 B( 16-C , 19-H ) :   0.8987

Dispersion correction           -0.010984093
FINAL SINGLE POINT ENERGY     -1104.456118302445
Dispersion correction            ... done

DIPOLE MOMENT
-------------
                                X             Y             Z
Electronic contribution:      6.72962      -6.16245      -3.86979
Nuclear contribution   :     -5.16695       5.15123       4.67736
                        -----------------------------------------
Total Dipole Moment    :      1.56267      -1.01122       0.80756
                        -----------------------------------------
Magnitude (a.u.)       :      2.02896
Magnitude (Debye)      :      5.15720

Rotational constants in cm-1:     0.055632     0.029205     0.021012
Rotational constants in MHz :  1667.792203   875.534985   629.923824

                             ****ORCA TERMINATED NORMALLY****
TOTAL RUN TIME: 0 days 0 hours 1 minutes 52 seconds 266 msec
