                         Program Version 5.0.3 -  RELEASE  -
|  1> ! EnGrad PBEh-3c
|  2> %output
|  3> xyzfile=True
|  4> end
|  5> %scf
|  6> maxiter 250
|  7> end
|  8> %output
|  9> Print[P_Hirshfeld] = 1
| 10> end
| 11> % maxcore
| 12> 4000
| 13> *xyz 1 1
| 14> Sc   0.76587183  -0.50263550  -2.12606038
| 15> C    0.27555400  -0.47025362   0.20702184
| 16> N   -0.45722783  -1.33555383   0.94146081
| 17> C   -0.65095556  -0.87070109   2.21110913
| 18> C   -0.03608975   0.33108018   2.28202082
| 19> N    0.52546208   0.55864065   1.05374100
| 20> C    1.32672444   1.73673516   0.70780480
| 21> H    1.10796100   2.54503699   1.40804699
| 22> H    1.07519364   2.08763746  -0.28286818
| 23> H    2.37908606   1.49738723   0.79682235
| 24> C   -0.96456846  -2.62627891   0.50427923
| 25> H   -0.79846647  -2.76593886  -0.55961261
| 26> H   -2.03596219  -2.68144767   0.68184621
| 27> H   -0.47686063  -3.42893428   1.05602661
| 28> H   -1.21227251  -1.39629590   2.95260031
| 29> H    0.07979634   1.00352875   3.10272537
| 30> C    0.09536414   1.53932030  -2.87029414
| 31> H   -0.49859484   1.49663882  -3.82452061
| 32> H    0.75880591   2.40402249  -3.03958609
| 33> H   -0.66895625   1.90631303  -2.14744884
| 34> H   -0.59012264  -1.02639843  -3.05300095
| 35> *
| 36>
| 37>                          ****END OF INPUT****

CARTESIAN COORDINATES (ANGSTROEM)
---------------------------------
  Sc     0.765872   -0.502636   -2.126060
  C      0.275554   -0.470254    0.207022
  N     -0.457228   -1.335554    0.941461
  C     -0.650956   -0.870701    2.211109
  C     -0.036090    0.331080    2.282021
  N      0.525462    0.558641    1.053741
  C      1.326724    1.736735    0.707805
  H      1.107961    2.545037    1.408047
  H      1.075194    2.087637   -0.282868
  H      2.379086    1.497387    0.796822
  C     -0.964568   -2.626279    0.504279
  H     -0.798466   -2.765939   -0.559613
  H     -2.035962   -2.681448    0.681846
  H     -0.476861   -3.428934    1.056027
  H     -1.212273   -1.396296    2.952600
  H      0.079796    1.003529    3.102725
  C      0.095364    1.539320   -2.870294
  H     -0.498595    1.496639   -3.824521
  H      0.758806    2.404022   -3.039586
  H     -0.668956    1.906313   -2.147449
  H     -0.590123   -1.026398   -3.053001

 Total Charge           Charge          ....    1
 Multiplicity           Mult            ....    1
 Number of Electrons    NEL             ....   82
 Basis Dimension        Dim             ....  175

ORBITAL ENERGIES
----------------

  NO   OCC          E(Eh)            E(eV)
   0   2.0000    -162.908275     -4432.9595
   1   2.0000     -18.220190      -495.7966
   2   2.0000     -15.057573      -409.7374
   3   2.0000     -15.054878      -409.6641
   4   2.0000     -15.054368      -409.6502
   5   2.0000     -14.870916      -404.6582
   6   2.0000     -14.869348      -404.6155
   7   2.0000     -10.654123      -289.9134
   8   2.0000     -10.632609      -289.3280
   9   2.0000     -10.630399      -289.2679
  10   2.0000     -10.627320      -289.1841
  11   2.0000     -10.626099      -289.1509
  12   2.0000     -10.522084      -286.3205
  13   2.0000      -2.425034       -65.9885
  14   2.0000      -1.573174       -42.8082
  15   2.0000      -1.564788       -42.5800
  16   2.0000      -1.561659       -42.4949
  17   2.0000      -1.314850       -35.7789
  18   2.0000      -1.192043       -32.4371
  19   2.0000      -1.029321       -28.0093
  20   2.0000      -0.986370       -26.8405
  21   2.0000      -0.932714       -25.3804
  22   2.0000      -0.848136       -23.0789
  23   2.0000      -0.844167       -22.9709
  24   2.0000      -0.809975       -22.0405
  25   2.0000      -0.756810       -20.5939
  26   2.0000      -0.707886       -19.2626
  27   2.0000      -0.680351       -18.5133
  28   2.0000      -0.663293       -18.0491
  29   2.0000      -0.662708       -18.0332
  30   2.0000      -0.655161       -17.8278
  31   2.0000      -0.609300       -16.5799
  32   2.0000      -0.604111       -16.4387
  33   2.0000      -0.597528       -16.2596
  34   2.0000      -0.538577       -14.6554
  35   2.0000      -0.526739       -14.3333
  36   2.0000      -0.523900       -14.2560
  37   2.0000      -0.492764       -13.4088
  38   2.0000      -0.454981       -12.3807
  39   2.0000      -0.439967       -11.9721
  40   2.0000      -0.425027       -11.5656
  41   0.0000      -0.191578        -5.2131
  42   0.0000      -0.181792        -4.9468
  43   0.0000      -0.176478        -4.8022
  44   0.0000      -0.166446        -4.5292
  45   0.0000      -0.156425        -4.2565

MULLIKEN ATOMIC CHARGES
-----------------------
   0 Sc:    0.785020
   1 C :    0.197390
   2 N :   -0.417441
   3 C :   -0.061727
   4 C :   -0.059821
   5 N :   -0.422212
   6 C :   -0.539650
   7 H :    0.282086
   8 H :    0.288856
   9 H :    0.267882
  10 C :   -0.522930
  11 H :    0.253624
  12 H :    0.285564
  13 H :    0.277430
  14 H :    0.306754
  15 H :    0.304646
  16 C :   -0.996414
  17 H :    0.273696
  18 H :    0.242306
  19 H :    0.232719
  20 H :    0.022222
Sum of atomic charges:    1.0000000

LOEWDIN ATOMIC CHARGES
----------------------
   0 Sc:    0.558073
   1 C :   -0.042031
   2 N :    0.004559
   3 C :   -0.081959
   4 C :   -0.075008
   5 N :   -0.000887
   6 C :   -0.239461
   7 H :    0.160670
   8 H :    0.160302
   9 H :    0.148345
  10 C :   -0.233801
  11 H :    0.147868
  12 H :    0.159226
  13 H :    0.153758
  14 H :    0.169293
  15 H :    0.167761
  16 C :   -0.596736
  17 H :    0.166522
  18 H :    0.143478
  19 H :    0.148886
  20 H :   -0.018856

  Mayer bond orders larger than 0.100000
B(  0-Sc,  1-C ) :   0.6441 B(  0-Sc, 16-C ) :   0.9833 B(  0-Sc, 20-H ) :   0.9844
B(  1-C ,  2-N ) :   1.2325 B(  1-C ,  5-N ) :   1.2313 B(  2-N ,  3-C ) :   1.1562
B(  2-N , 10-C ) :   0.9111 B(  3-C ,  4-C ) :   1.6285 B(  3-C , 14-H ) :   0.8763
B(  4-C ,  5-N ) :   1.1518 B(  4-C , 15-H ) :   0.8781 B(  5-N ,  6-C ) :   0.8999
B(  6-C ,  7-H ) :   0.9035 B(  6-C ,  8-H ) :   0.8831 B(  6-C ,  9-H ) :   0.8970
B( 10-C , 11-H ) :   0.9078 B( 10-C , 12-H ) :   0.8937 B( 10-C , 13-H ) :   0.8931
B( 16-C , 17-H ) :   0.8890 B( 16-C , 18-H ) :   0.8988 B( 16-C , 19-H ) :   0.8895

Dispersion correction           -0.011000770
FINAL SINGLE POINT ENERGY     -1104.468898772911
Dispersion correction            ... done

DIPOLE MOMENT
-------------
                                X             Y             Z
Electronic contribution:      6.26962      -5.81196      -4.37772
Nuclear contribution   :     -4.83651       4.88012       4.98887
                        -----------------------------------------
Total Dipole Moment    :      1.43311      -0.93184       0.61115
                        -----------------------------------------
Magnitude (a.u.)       :      1.81538
Magnitude (Debye)      :      4.61434

Rotational constants in cm-1:     0.056380     0.029011     0.020880
Rotational constants in MHz :  1690.232850   869.735548   625.973807

                             ****ORCA TERMINATED NORMALLY****
TOTAL RUN TIME: 0 days 0 hours 1 minutes 52 seconds 294 msec
