                         Program Version 5.0.3 -  RELEASE  -
|  1> ! EnGrad PBEh-3c
|  2> %output
|  3> xyzfile=True
|  4> end
|  5> %scf
|  6> maxiter 250
|  7> end
|  8> %output
|  9> Print[P_Hirshfeld] = 1
| 10> end
| 11> % maxcore
| 12> 4000
| 13> *xyz 1 1
| 14> Sc   0.73748981  -0.45848374  -2.15071297
| 15> C    0.28264724  -0.47498979   0.21091664
| 16> N   -0.45308434  -1.33573794   0.93700330
| 17> C   -0.65723401  -0.86275793   2.20602598
| 18> C   -0.04118008   0.33454281   2.27345463
| 19> N    0.53130190   0.55331933   1.04442450
| 20> C    1.32956860   1.72743060   0.71466760
| 21> H    1.12918757   2.52905884   1.41131621
| 22> H    1.07054170   2.09053625  -0.29072817
| 23> H    2.39018099   1.48542944   0.77726155
| 24> C   -0.96454980  -2.62753305   0.50844800
| 25> H   -0.78560023  -2.77569875  -0.55630581
| 26> H   -2.03693407  -2.67931884   0.67000090
| 27> H   -0.48602780  -3.42859873   1.06909621
| 28> H   -1.22957793  -1.39062791   2.95038958
| 29> H    0.06633674   1.01825307   3.09750853
| 30> C    0.08340014   1.53531364  -2.86399597
| 31> H   -0.49998388   1.48842561  -3.80057532
| 32> H    0.74406842   2.40872185  -3.02444946
| 33> H   -0.67119049   1.88725525  -2.13886473
| 34> H   -0.54005877  -1.02211574  -3.04254390
| 35> *
| 36>
| 37>                          ****END OF INPUT****

CARTESIAN COORDINATES (ANGSTROEM)
---------------------------------
  Sc     0.737490   -0.458484   -2.150713
  C      0.282647   -0.474990    0.210917
  N     -0.453084   -1.335738    0.937003
  C     -0.657234   -0.862758    2.206026
  C     -0.041180    0.334543    2.273455
  N      0.531302    0.553319    1.044425
  C      1.329569    1.727431    0.714668
  H      1.129188    2.529059    1.411316
  H      1.070542    2.090536   -0.290728
  H      2.390181    1.485429    0.777262
  C     -0.964550   -2.627533    0.508448
  H     -0.785600   -2.775699   -0.556306
  H     -2.036934   -2.679319    0.670001
  H     -0.486028   -3.428599    1.069096
  H     -1.229578   -1.390628    2.950390
  H      0.066337    1.018253    3.097509
  C      0.083400    1.535314   -2.863996
  H     -0.499984    1.488426   -3.800575
  H      0.744068    2.408722   -3.024449
  H     -0.671190    1.887255   -2.138865
  H     -0.540059   -1.022116   -3.042544

 Total Charge           Charge          ....    1
 Multiplicity           Mult            ....    1
 Number of Electrons    NEL             ....   82
 Basis Dimension        Dim             ....  175

ORBITAL ENERGIES
----------------

  NO   OCC          E(Eh)            E(eV)
   0   2.0000    -162.898449     -4432.6922
   1   2.0000     -18.211339      -495.5557
   2   2.0000     -15.048560      -409.4921
   3   2.0000     -15.045896      -409.4196
   4   2.0000     -15.045473      -409.4081
   5   2.0000     -14.868964      -404.6051
   6   2.0000     -14.867847      -404.5747
   7   2.0000     -10.652120      -289.8589
   8   2.0000     -10.631688      -289.3029
   9   2.0000     -10.629635      -289.2471
  10   2.0000     -10.626734      -289.1681
  11   2.0000     -10.626159      -289.1525
  12   2.0000     -10.519917      -286.2615
  13   2.0000      -2.419625       -65.8413
  14   2.0000      -1.568134       -42.6711
  15   2.0000      -1.560534       -42.4643
  16   2.0000      -1.556943       -42.3666
  17   2.0000      -1.315594       -35.7991
  18   2.0000      -1.192021       -32.4365
  19   2.0000      -1.028573       -27.9889
  20   2.0000      -0.986873       -26.8542
  21   2.0000      -0.930270       -25.3139
  22   2.0000      -0.851584       -23.1728
  23   2.0000      -0.848036       -23.0762
  24   2.0000      -0.808150       -21.9909
  25   2.0000      -0.755219       -20.5505
  26   2.0000      -0.707579       -19.2542
  27   2.0000      -0.678692       -18.4682
  28   2.0000      -0.661693       -18.0056
  29   2.0000      -0.661280       -17.9943
  30   2.0000      -0.655503       -17.8371
  31   2.0000      -0.606563       -16.5054
  32   2.0000      -0.603871       -16.4322
  33   2.0000      -0.596131       -16.2215
  34   2.0000      -0.543307       -14.7841
  35   2.0000      -0.535385       -14.5686
  36   2.0000      -0.520611       -14.1666
  37   2.0000      -0.490920       -13.3586
  38   2.0000      -0.462196       -12.5770
  39   2.0000      -0.440098       -11.9757
  40   2.0000      -0.431100       -11.7308
  41   0.0000      -0.189121        -5.1462
  42   0.0000      -0.178757        -4.8642
  43   0.0000      -0.172643        -4.6979
  44   0.0000      -0.162108        -4.4112
  45   0.0000      -0.151013        -4.1093

MULLIKEN ATOMIC CHARGES
-----------------------
   0 Sc:    0.794647
   1 C :    0.199859
   2 N :   -0.417255
   3 C :   -0.062917
   4 C :   -0.063156
   5 N :   -0.415602
   6 C :   -0.539880
   7 H :    0.284716
   8 H :    0.281696
   9 H :    0.266850
  10 C :   -0.522176
  11 H :    0.252274
  12 H :    0.284548
  13 H :    0.277813
  14 H :    0.305690
  15 H :    0.303931
  16 C :   -1.022817
  17 H :    0.283076
  18 H :    0.246185
  19 H :    0.238715
  20 H :    0.023803
Sum of atomic charges:    1.0000000

LOEWDIN ATOMIC CHARGES
----------------------
   0 Sc:    0.555695
   1 C :   -0.044433
   2 N :    0.002965
   3 C :   -0.082616
   4 C :   -0.076965
   5 N :   -0.001091
   6 C :   -0.240650
   7 H :    0.160126
   8 H :    0.159257
   9 H :    0.148194
  10 C :   -0.233931
  11 H :    0.147634
  12 H :    0.158282
  13 H :    0.153833
  14 H :    0.170127
  15 H :    0.168500
  16 C :   -0.597577
  17 H :    0.170437
  18 H :    0.148120
  19 H :    0.153911
  20 H :   -0.019816

  Mayer bond orders larger than 0.100000
B(  0-Sc,  1-C ) :   0.6383 B(  0-Sc, 16-C ) :   0.9843 B(  0-Sc, 20-H ) :   0.9799
B(  1-C ,  2-N ) :   1.2357 B(  1-C ,  5-N ) :   1.2353 B(  2-N ,  3-C ) :   1.1490
B(  2-N , 10-C ) :   0.9114 B(  3-C ,  4-C ) :   1.6401 B(  3-C , 14-H ) :   0.8767
B(  4-C ,  5-N ) :   1.1425 B(  4-C , 15-H ) :   0.8780 B(  5-N ,  6-C ) :   0.9033
B(  6-C ,  7-H ) :   0.9014 B(  6-C ,  8-H ) :   0.8863 B(  6-C ,  9-H ) :   0.8970
B( 10-C , 11-H ) :   0.9093 B( 10-C , 12-H ) :   0.8937 B( 10-C , 13-H ) :   0.8933
B( 16-C , 17-H ) :   0.8812 B( 16-C , 18-H ) :   0.8977 B( 16-C , 19-H ) :   0.8833

Dispersion correction           -0.011008963
FINAL SINGLE POINT ENERGY     -1104.472168122763
Dispersion correction            ... done

DIPOLE MOMENT
-------------
                                X             Y             Z
Electronic contribution:      6.02273      -5.47621      -4.62724
Nuclear contribution   :     -4.66025       4.63341       5.14980
                        -----------------------------------------
Total Dipole Moment    :      1.36248      -0.84281       0.52256
                        -----------------------------------------
Magnitude (a.u.)       :      1.68515
Magnitude (Debye)      :      4.28332

Rotational constants in cm-1:     0.056997     0.028931     0.020865
Rotational constants in MHz :  1708.721958   867.327908   625.509594

                             ****ORCA TERMINATED NORMALLY****
TOTAL RUN TIME: 0 days 0 hours 1 minutes 58 seconds 324 msec
