                         Program Version 5.0.3 -  RELEASE  -
|  1> ! EnGrad PBEh-3c
|  2> %output
|  3> xyzfile=True
|  4> end
|  5> %scf
|  6> maxiter 250
|  7> end
|  8> %output
|  9> Print[P_Hirshfeld] = 1
| 10> end
| 11> % maxcore
| 12> 4000
| 13> *xyz 1 1
| 14> Sc   0.70182119  -0.39018741  -2.18359659
| 15> C    0.29584951  -0.48415551   0.20696779
| 16> N   -0.45017267  -1.33805318   0.93601623
| 17> C   -0.67035307  -0.85503572   2.20071343
| 18> C   -0.04942900   0.34472228   2.26437979
| 19> N    0.53885860   0.54701286   1.04113318
| 20> C    1.34039586   1.71336437   0.70450855
| 21> H    1.16136987   2.50711201   1.42153455
| 22> H    1.06541327   2.09249211  -0.29269024
| 23> H    2.40398915   1.46657446   0.74675511
| 24> C   -0.96237048  -2.62956257   0.51025265
| 25> H   -0.76539815  -2.79144538  -0.54863541
| 26> H   -2.03941915  -2.67548141   0.65149041
| 27> H   -0.50068215  -3.42820271   1.09076555
| 28> H   -1.25436955  -1.37831958   2.94272501
| 29> H    0.04456230   1.03852314   3.08424579
| 30> C    0.07518941   1.53103450  -2.84910974
| 31> H   -0.50886046   1.47592192  -3.77171381
| 32> H    0.71856404   2.41566495  -3.00051863
| 33> H   -0.67992022   1.85933181  -2.12140649
| 34> H   -0.46645124  -1.01798104  -3.03109180
| 35> *
| 36>
| 37>                          ****END OF INPUT****

CARTESIAN COORDINATES (ANGSTROEM)
---------------------------------
  Sc     0.701821   -0.390187   -2.183597
  C      0.295850   -0.484156    0.206968
  N     -0.450173   -1.338053    0.936016
  C     -0.670353   -0.855036    2.200713
  C     -0.049429    0.344722    2.264380
  N      0.538859    0.547013    1.041133
  C      1.340396    1.713364    0.704509
  H      1.161370    2.507112    1.421535
  H      1.065413    2.092492   -0.292690
  H      2.403989    1.466574    0.746755
  C     -0.962370   -2.629563    0.510253
  H     -0.765398   -2.791445   -0.548635
  H     -2.039419   -2.675481    0.651490
  H     -0.500682   -3.428203    1.090766
  H     -1.254370   -1.378320    2.942725
  H      0.044562    1.038523    3.084246
  C      0.075189    1.531034   -2.849110
  H     -0.508860    1.475922   -3.771714
  H      0.718564    2.415665   -3.000519
  H     -0.679920    1.859332   -2.121406
  H     -0.466451   -1.017981   -3.031092

 Total Charge           Charge          ....    1
 Multiplicity           Mult            ....    1
 Number of Electrons    NEL             ....   82
 Basis Dimension        Dim             ....  175

ORBITAL ENERGIES
----------------

  NO   OCC          E(Eh)            E(eV)
   0   2.0000    -162.882046     -4432.2458
   1   2.0000     -18.196449      -495.1506
   2   2.0000     -15.033386      -409.0792
   3   2.0000     -15.030790      -409.0086
   4   2.0000     -15.030517      -409.0012
   5   2.0000     -14.867010      -404.5519
   6   2.0000     -14.866206      -404.5300
   7   2.0000     -10.650202      -289.8067
   8   2.0000     -10.631029      -289.2850
   9   2.0000     -10.628916      -289.2275
  10   2.0000     -10.627084      -289.1776
  11   2.0000     -10.623693      -289.0854
  12   2.0000     -10.519190      -286.2417
  13   2.0000      -2.410753       -65.5999
  14   2.0000      -1.559987       -42.4494
  15   2.0000      -1.553817       -42.2815
  16   2.0000      -1.549134       -42.1541
  17   2.0000      -1.312875       -35.7252
  18   2.0000      -1.190172       -32.3862
  19   2.0000      -1.026542       -27.9336
  20   2.0000      -0.984671       -26.7943
  21   2.0000      -0.928163       -25.2566
  22   2.0000      -0.861848       -23.4521
  23   2.0000      -0.845707       -23.0129
  24   2.0000      -0.806045       -21.9336
  25   2.0000      -0.753010       -20.4904
  26   2.0000      -0.705527       -19.1984
  27   2.0000      -0.677136       -18.4258
  28   2.0000      -0.659842       -17.9552
  29   2.0000      -0.659519       -17.9464
  30   2.0000      -0.653513       -17.7830
  31   2.0000      -0.604738       -16.4558
  32   2.0000      -0.602089       -16.3837
  33   2.0000      -0.593700       -16.1554
  34   2.0000      -0.552606       -15.0372
  35   2.0000      -0.546006       -14.8576
  36   2.0000      -0.517791       -14.0898
  37   2.0000      -0.488973       -13.3056
  38   2.0000      -0.470902       -12.8139
  39   2.0000      -0.440569       -11.9885
  40   2.0000      -0.437300       -11.8995
  41   0.0000      -0.185532        -5.0486
  42   0.0000      -0.174714        -4.7542
  43   0.0000      -0.166699        -4.5361
  44   0.0000      -0.155040        -4.2188
  45   0.0000      -0.142718        -3.8836

MULLIKEN ATOMIC CHARGES
-----------------------
   0 Sc:    0.825410
   1 C :    0.196736
   2 N :   -0.417603
   3 C :   -0.063426
   4 C :   -0.064205
   5 N :   -0.411966
   6 C :   -0.538218
   7 H :    0.283086
   8 H :    0.277413
   9 H :    0.267299
  10 C :   -0.521959
  11 H :    0.253053
  12 H :    0.281636
  13 H :    0.277404
  14 H :    0.305178
  15 H :    0.303516
  16 C :   -1.063340
  17 H :    0.293006
  18 H :    0.256596
  19 H :    0.246388
  20 H :    0.013994
Sum of atomic charges:    1.0000000

LOEWDIN ATOMIC CHARGES
----------------------
   0 Sc:    0.546790
   1 C :   -0.046884
   2 N :    0.001493
   3 C :   -0.083211
   4 C :   -0.078640
   5 N :   -0.002618
   6 C :   -0.240734
   7 H :    0.159657
   8 H :    0.157074
   9 H :    0.148545
  10 C :   -0.235182
  11 H :    0.147822
  12 H :    0.156765
  13 H :    0.153852
  14 H :    0.170186
  15 H :    0.168376
  16 C :   -0.596239
  17 H :    0.177881
  18 H :    0.155717
  19 H :    0.162584
  20 H :   -0.023232

  Mayer bond orders larger than 0.100000
B(  0-Sc,  1-C ) :   0.6268 B(  0-Sc, 16-C ) :   0.9822 B(  0-Sc, 20-H ) :   0.9721
B(  1-C ,  2-N ) :   1.2350 B(  1-C ,  5-N ) :   1.2320 B(  2-N ,  3-C ) :   1.1489
B(  2-N , 10-C ) :   0.9119 B(  3-C ,  4-C ) :   1.6383 B(  3-C , 14-H ) :   0.8768
B(  4-C ,  5-N ) :   1.1417 B(  4-C , 15-H ) :   0.8779 B(  5-N ,  6-C ) :   0.9055
B(  6-C ,  7-H ) :   0.9022 B(  6-C ,  8-H ) :   0.8874 B(  6-C ,  9-H ) :   0.8966
B( 10-C , 11-H ) :   0.9102 B( 10-C , 12-H ) :   0.8946 B( 10-C , 13-H ) :   0.8940
B( 16-C , 17-H ) :   0.8699 B( 16-C , 18-H ) :   0.8934 B( 16-C , 19-H ) :   0.8730

Dispersion correction           -0.011037125
FINAL SINGLE POINT ENERGY     -1104.470295672826
Dispersion correction            ... done

DIPOLE MOMENT
-------------
                                X             Y             Z
Electronic contribution:      5.70933      -4.92805      -4.98424
Nuclear contribution   :     -4.45610       4.25116       5.37508
                        -----------------------------------------
Total Dipole Moment    :      1.25323      -0.67689       0.39084
                        -----------------------------------------
Magnitude (a.u.)       :      1.47700
Magnitude (Debye)      :      3.75424

Rotational constants in cm-1:     0.057877     0.028790     0.020835
Rotational constants in MHz :  1735.113708   863.114725   624.608799

                             ****ORCA TERMINATED NORMALLY****
TOTAL RUN TIME: 0 days 0 hours 1 minutes 55 seconds 746 msec
