                         Program Version 5.0.3 -  RELEASE  -
|  1> ! EnGrad PBEh-3c
|  2> %output
|  3> xyzfile=True
|  4> end
|  5> %scf
|  6> maxiter 250
|  7> end
|  8> %output
|  9> Print[P_Hirshfeld] = 1
| 10> end
| 11> % maxcore
| 12> 4000
| 13> *xyz 1 1
| 14> Sc   0.74291789  -0.28704425  -2.14718030
| 15> C    0.30979659  -0.49919394   0.19715008
| 16> N   -0.44478136  -1.34017647   0.93249178
| 17> C   -0.69047753  -0.83916721   2.18794903
| 18> C   -0.05408258   0.35826226   2.25015489
| 19> N    0.54527974   0.53710501   1.02897178
| 20> C    1.35576064   1.69195611   0.69082461
| 21> H    1.20903283   2.47404159   1.43284185
| 22> H    1.06207285   2.09365837  -0.28496536
| 23> H    2.41798133   1.43919325   0.69322958
| 24> C   -0.96146498  -2.63435308   0.51293466
| 25> H   -0.73218533  -2.81474086  -0.53332570
| 26> H   -2.04315513  -2.66791335   0.62410802
| 27> H   -0.52343043  -3.42524571   1.11935430
| 28> H   -1.28857571  -1.35732381   2.92755723
| 29> H    0.01075585   1.06680284   3.06050381
| 30> C    0.04977824   1.55973579  -2.83265813
| 31> H   -0.52885825   1.45572056  -3.74256068
| 32> H    0.68026849   2.42020389  -2.96274898
| 33> H   -0.69902430   1.81923306  -2.08583312
| 34> H   -0.42073940  -1.04587613  -3.06625029
| 35> *
| 36>
| 37>                          ****END OF INPUT****

CARTESIAN COORDINATES (ANGSTROEM)
---------------------------------
  Sc     0.742918   -0.287044   -2.147180
  C      0.309797   -0.499194    0.197150
  N     -0.444781   -1.340176    0.932492
  C     -0.690478   -0.839167    2.187949
  C     -0.054083    0.358262    2.250155
  N      0.545280    0.537105    1.028972
  C      1.355761    1.691956    0.690825
  H      1.209033    2.474042    1.432842
  H      1.062073    2.093658   -0.284965
  H      2.417981    1.439193    0.693230
  C     -0.961465   -2.634353    0.512935
  H     -0.732185   -2.814741   -0.533326
  H     -2.043155   -2.667913    0.624108
  H     -0.523430   -3.425246    1.119354
  H     -1.288576   -1.357324    2.927557
  H      0.010756    1.066803    3.060504
  C      0.049778    1.559736   -2.832658
  H     -0.528858    1.455721   -3.742561
  H      0.680268    2.420204   -2.962749
  H     -0.699024    1.819233   -2.085833
  H     -0.420739   -1.045876   -3.066250

 Total Charge           Charge          ....    1
 Multiplicity           Mult            ....    1
 Number of Electrons    NEL             ....   82
 Basis Dimension        Dim             ....  175

ORBITAL ENERGIES
----------------

  NO   OCC          E(Eh)            E(eV)
   0   2.0000    -162.883993     -4432.2988
   1   2.0000     -18.198353      -495.2024
   2   2.0000     -15.035365      -409.1331
   3   2.0000     -15.032824      -409.0639
   4   2.0000     -15.032367      -409.0515
   5   2.0000     -14.869192      -404.6113
   6   2.0000     -14.868867      -404.6025
   7   2.0000     -10.651442      -289.8405
   8   2.0000     -10.634267      -289.3731
   9   2.0000     -10.632076      -289.3135
  10   2.0000     -10.631713      -289.3036
  11   2.0000     -10.621278      -289.0197
  12   2.0000     -10.517592      -286.1982
  13   2.0000      -2.410520       -65.5936
  14   2.0000      -1.560105       -42.4526
  15   2.0000      -1.552151       -42.2362
  16   2.0000      -1.548986       -42.1500
  17   2.0000      -1.314791       -35.7773
  18   2.0000      -1.192044       -32.4372
  19   2.0000      -1.028414       -27.9846
  20   2.0000      -0.987229       -26.8639
  21   2.0000      -0.929660       -25.2973
  22   2.0000      -0.871317       -23.7098
  23   2.0000      -0.847820       -23.0703
  24   2.0000      -0.808071       -21.9887
  25   2.0000      -0.755012       -20.5449
  26   2.0000      -0.707883       -19.2625
  27   2.0000      -0.679577       -18.4922
  28   2.0000      -0.661868       -18.0103
  29   2.0000      -0.660958       -17.9856
  30   2.0000      -0.655033       -17.8243
  31   2.0000      -0.608294       -16.5525
  32   2.0000      -0.601762       -16.3748
  33   2.0000      -0.595383       -16.2012
  34   2.0000      -0.568797       -15.4778
  35   2.0000      -0.557384       -15.1672
  36   2.0000      -0.522222       -14.2104
  37   2.0000      -0.490783       -13.3549
  38   2.0000      -0.458913       -12.4877
  39   2.0000      -0.441867       -12.0238
  40   2.0000      -0.438024       -11.9192
  41   0.0000      -0.185639        -5.0515
  42   0.0000      -0.175954        -4.7879
  43   0.0000      -0.165713        -4.5093
  44   0.0000      -0.152096        -4.1388
  45   0.0000      -0.143431        -3.9030

MULLIKEN ATOMIC CHARGES
-----------------------
   0 Sc:    0.810606
   1 C :    0.190037
   2 N :   -0.420159
   3 C :   -0.063447
   4 C :   -0.063388
   5 N :   -0.407336
   6 C :   -0.543711
   7 H :    0.286822
   8 H :    0.274760
   9 H :    0.268467
  10 C :   -0.523453
  11 H :    0.260678
  12 H :    0.279810
  13 H :    0.276806
  14 H :    0.306729
  15 H :    0.305761
  16 C :   -1.057181
  17 H :    0.301561
  18 H :    0.263290
  19 H :    0.247972
  20 H :    0.005376
Sum of atomic charges:    1.0000000

LOEWDIN ATOMIC CHARGES
----------------------
   0 Sc:    0.522231
   1 C :   -0.046241
   2 N :    0.004046
   3 C :   -0.080539
   4 C :   -0.078854
   5 N :   -0.002480
   6 C :   -0.241560
   7 H :    0.162014
   8 H :    0.154743
   9 H :    0.148665
  10 C :   -0.236034
  11 H :    0.151338
  12 H :    0.156176
  13 H :    0.153805
  14 H :    0.171410
  15 H :    0.169365
  16 C :   -0.586343
  17 H :    0.183710
  18 H :    0.157808
  19 H :    0.167654
  20 H :   -0.030915

  Mayer bond orders larger than 0.100000
B(  0-Sc,  1-C ) :   0.6263 B(  0-Sc, 16-C ) :   1.0098 B(  0-Sc, 20-H ) :   0.9739
B(  1-C ,  2-N ) :   1.2420 B(  1-C ,  5-N ) :   1.2226 B(  2-N ,  3-C ) :   1.1539
B(  2-N , 10-C ) :   0.9092 B(  3-C ,  4-C ) :   1.6331 B(  3-C , 14-H ) :   0.8760
B(  4-C ,  5-N ) :   1.1414 B(  4-C , 15-H ) :   0.8763 B(  5-N ,  6-C ) :   0.9085
B(  6-C ,  7-H ) :   0.9016 B(  6-C ,  8-H ) :   0.8853 B(  6-C ,  9-H ) :   0.8952
B( 10-C , 11-H ) :   0.9087 B( 10-C , 12-H ) :   0.8954 B( 10-C , 13-H ) :   0.8946
B( 16-C , 17-H ) :   0.8657 B( 16-C , 18-H ) :   0.8875 B( 16-C , 19-H ) :   0.8649

Dispersion correction           -0.011081422
FINAL SINGLE POINT ENERGY     -1104.476847519120
Dispersion correction            ... done

DIPOLE MOMENT
-------------
                                X             Y             Z
Electronic contribution:      5.98062      -4.03761      -4.69856
Nuclear contribution   :     -4.69604       3.61956       5.22741
                        -----------------------------------------
Total Dipole Moment    :      1.28458      -0.41805       0.52885
                        -----------------------------------------
Magnitude (a.u.)       :      1.45072
Magnitude (Debye)      :      3.68744

Rotational constants in cm-1:     0.058952     0.028882     0.021108
Rotational constants in MHz :  1767.350140   865.850823   632.801552

                             ****ORCA TERMINATED NORMALLY****
TOTAL RUN TIME: 0 days 0 hours 1 minutes 56 seconds 553 msec
