                         Program Version 5.0.3 -  RELEASE  -
|  1> ! EnGrad PBEh-3c
|  2> %output
|  3> xyzfile=True
|  4> end
|  5> %scf
|  6> maxiter 250
|  7> end
|  8> %output
|  9> Print[P_Hirshfeld] = 1
| 10> end
| 11> % maxcore
| 12> 4000
| 13> *xyz 1 1
| 14> Sc   0.79425464  -0.19552927  -2.10007685
| 15> C    0.32212006  -0.51321619   0.19544902
| 16> N   -0.44343296  -1.34508715   0.92813134
| 17> C   -0.70649876  -0.81621796   2.17039700
| 18> C   -0.06654295   0.36287934   2.23014585
| 19> N    0.55426514   0.52846619   1.01793037
| 20> C    1.37555524   1.67234429   0.67903628
| 21> H    1.26392519   2.43418364   1.44113538
| 22> H    1.05762431   2.09759931  -0.27622180
| 23> H    2.43144874   1.40641425   0.63114351
| 24> C   -0.96144352  -2.63915525   0.51647806
| 25> H   -0.69316664  -2.84108787  -0.51703640
| 26> H   -2.04653713  -2.65807959   0.59293847
| 27> H   -0.54953425  -3.42179225   1.15155901
| 28> H   -1.32446953  -1.33026687   2.90586410
| 29> H   -0.02590935   1.09886419   3.03072103
| 30> C    0.01656530   1.57938896  -2.80656448
| 31> H   -0.55885669   1.43344949  -3.72255000
| 32> H    0.64760087   2.44877321  -2.92378578
| 33> H   -0.73142559   1.78163939  -2.03629665
| 34> H   -0.36056597  -1.07656081  -3.10645353
| 35> *
| 36>
| 37>                          ****END OF INPUT****

CARTESIAN COORDINATES (ANGSTROEM)
---------------------------------
  Sc     0.794255   -0.195529   -2.100077
  C      0.322120   -0.513216    0.195449
  N     -0.443433   -1.345087    0.928131
  C     -0.706499   -0.816218    2.170397
  C     -0.066543    0.362879    2.230146
  N      0.554265    0.528466    1.017930
  C      1.375555    1.672344    0.679036
  H      1.263925    2.434184    1.441135
  H      1.057624    2.097599   -0.276222
  H      2.431449    1.406414    0.631144
  C     -0.961444   -2.639155    0.516478
  H     -0.693167   -2.841088   -0.517036
  H     -2.046537   -2.658080    0.592938
  H     -0.549534   -3.421792    1.151559
  H     -1.324470   -1.330267    2.905864
  H     -0.025909    1.098864    3.030721
  C      0.016565    1.579389   -2.806564
  H     -0.558857    1.433449   -3.722550
  H      0.647601    2.448773   -2.923786
  H     -0.731426    1.781639   -2.036297
  H     -0.360566   -1.076561   -3.106454

 Total Charge           Charge          ....    1
 Multiplicity           Mult            ....    1
 Number of Electrons    NEL             ....   82
 Basis Dimension        Dim             ....  175

ORBITAL ENERGIES
----------------

  NO   OCC          E(Eh)            E(eV)
   0   2.0000    -162.886628     -4432.3705
   1   2.0000     -18.200593      -495.2633
   2   2.0000     -15.037687      -409.1963
   3   2.0000     -15.035443      -409.1352
   4   2.0000     -15.034315      -409.1045
   5   2.0000     -14.871338      -404.6697
   6   2.0000     -14.869751      -404.6265
   7   2.0000     -10.652283      -289.8633
   8   2.0000     -10.636830      -289.4429
   9   2.0000     -10.635557      -289.4082
  10   2.0000     -10.632837      -289.3342
  11   2.0000     -10.619824      -288.9801
  12   2.0000     -10.522380      -286.3285
  13   2.0000      -2.411076       -65.6087
  14   2.0000      -1.560989       -42.4767
  15   2.0000      -1.551663       -42.2229
  16   2.0000      -1.549476       -42.1634
  17   2.0000      -1.318250       -35.8714
  18   2.0000      -1.194646       -32.5080
  19   2.0000      -1.033258       -28.1164
  20   2.0000      -0.989925       -26.9372
  21   2.0000      -0.931974       -25.3603
  22   2.0000      -0.872796       -23.7500
  23   2.0000      -0.849463       -23.1151
  24   2.0000      -0.811302       -22.0766
  25   2.0000      -0.756887       -20.5959
  26   2.0000      -0.711470       -19.3601
  27   2.0000      -0.680717       -18.5233
  28   2.0000      -0.664769       -18.0893
  29   2.0000      -0.661994       -18.0138
  30   2.0000      -0.658020       -17.9056
  31   2.0000      -0.614590       -16.7238
  32   2.0000      -0.600714       -16.3462
  33   2.0000      -0.598407       -16.2835
  34   2.0000      -0.576545       -15.6886
  35   2.0000      -0.563170       -15.3246
  36   2.0000      -0.523931       -14.2569
  37   2.0000      -0.492363       -13.3979
  38   2.0000      -0.446612       -12.1529
  39   2.0000      -0.444249       -12.0886
  40   2.0000      -0.437621       -11.9083
  41   0.0000      -0.186303        -5.0696
  42   0.0000      -0.177472        -4.8292
  43   0.0000      -0.165331        -4.4989
  44   0.0000      -0.151133        -4.1125
  45   0.0000      -0.145292        -3.9536

MULLIKEN ATOMIC CHARGES
-----------------------
   0 Sc:    0.809532
   1 C :    0.187215
   2 N :   -0.422751
   3 C :   -0.060488
   4 C :   -0.063158
   5 N :   -0.403569
   6 C :   -0.549386
   7 H :    0.292655
   8 H :    0.272920
   9 H :    0.269370
  10 C :   -0.524162
  11 H :    0.266296
  12 H :    0.278514
  13 H :    0.275856
  14 H :    0.306426
  15 H :    0.305084
  16 C :   -1.038617
  17 H :    0.305881
  18 H :    0.260235
  19 H :    0.246728
  20 H :   -0.014583
Sum of atomic charges:    1.0000000

LOEWDIN ATOMIC CHARGES
----------------------
   0 Sc:    0.498728
   1 C :   -0.042813
   2 N :    0.005203
   3 C :   -0.078646
   4 C :   -0.080211
   5 N :   -0.003527
   6 C :   -0.240701
   7 H :    0.164453
   8 H :    0.153928
   9 H :    0.148824
  10 C :   -0.236490
  11 H :    0.154632
  12 H :    0.155704
  13 H :    0.153742
  14 H :    0.172439
  15 H :    0.170593
  16 C :   -0.574869
  17 H :    0.188601
  18 H :    0.159696
  19 H :    0.170910
  20 H :   -0.040195

  Mayer bond orders larger than 0.100000
B(  0-Sc,  1-C ) :   0.6271 B(  0-Sc, 16-C ) :   1.0284 B(  0-Sc, 20-H ) :   0.9743
B(  1-C ,  2-N ) :   1.2521 B(  1-C ,  5-N ) :   1.2189 B(  2-N ,  3-C ) :   1.1503
B(  2-N , 10-C ) :   0.9080 B(  3-C ,  4-C ) :   1.6415 B(  3-C , 14-H ) :   0.8763
B(  4-C ,  5-N ) :   1.1334 B(  4-C , 15-H ) :   0.8764 B(  5-N ,  6-C ) :   0.9097
B(  6-C ,  7-H ) :   0.8998 B(  6-C ,  8-H ) :   0.8822 B(  6-C ,  9-H ) :   0.8940
B( 10-C , 11-H ) :   0.9073 B( 10-C , 12-H ) :   0.8957 B( 10-C , 13-H ) :   0.8951
B( 16-C , 17-H ) :   0.8639 B( 16-C , 18-H ) :   0.8840 B( 16-C , 19-H ) :   0.8582

Dispersion correction           -0.011110249
FINAL SINGLE POINT ENERGY     -1104.477140709026
Dispersion correction            ... done

DIPOLE MOMENT
-------------
                                X             Y             Z
Electronic contribution:      6.30143      -3.25752      -4.33537
Nuclear contribution   :     -4.98125       3.07403       4.99871
                        -----------------------------------------
Total Dipole Moment    :      1.32019      -0.18348       0.66334
                        -----------------------------------------
Magnitude (a.u.)       :      1.48882
Magnitude (Debye)      :      3.78427

Rotational constants in cm-1:     0.059861     0.029051     0.021446
Rotational constants in MHz :  1794.589855   870.919379   642.934986

                             ****ORCA TERMINATED NORMALLY****
TOTAL RUN TIME: 0 days 0 hours 1 minutes 50 seconds 307 msec
