                         Program Version 5.0.3 -  RELEASE  -
|  1> ! EnGrad PBEh-3c
|  2> %output
|  3> xyzfile=True
|  4> end
|  5> %scf
|  6> maxiter 250
|  7> end
|  8> %output
|  9> Print[P_Hirshfeld] = 1
| 10> end
| 11> % maxcore
| 12> 4000
| 13> *xyz 1 1
| 14> Sc   0.83531775  -0.20399656  -2.06617205
| 15> C    0.32574373  -0.51872053   0.19886248
| 16> N   -0.44668075  -1.34514718   0.92603023
| 17> C   -0.72260099  -0.82559809   2.16229926
| 18> C   -0.06690989   0.38375347   2.22538649
| 19> N    0.55740491   0.52600083   1.01847729
| 20> C    1.38436341   1.66258989   0.66962220
| 21> H    1.29004448   2.41887770   1.44290081
| 22> H    1.05543933   2.10398388  -0.26773217
| 23> H    2.43465461   1.38905154   0.60008461
| 24> C   -0.96158789  -2.64231208   0.51595927
| 25> H   -0.67427927  -2.85266890  -0.50719611
| 26> H   -2.04795013  -2.65209161   0.57843327
| 27> H   -0.56301902  -3.41937910   1.16517153
| 28> H   -1.33380411  -1.30988416   2.88713597
| 29> H   -0.04124807   1.10541474   3.00660277
| 30> C   -0.00953143   1.58965935  -2.79479714
| 31> H   -0.57661877   1.42714256  -3.71940339
| 32> H    0.63179397   2.47517751  -2.90828998
| 33> H   -0.75686181   1.77383345  -2.00676416
| 34> H   -0.31892229  -1.07797047  -3.12535518
| 35> *
| 36>
| 37>                          ****END OF INPUT****

CARTESIAN COORDINATES (ANGSTROEM)
---------------------------------
  Sc     0.835318   -0.203997   -2.066172
  C      0.325744   -0.518721    0.198862
  N     -0.446681   -1.345147    0.926030
  C     -0.722601   -0.825598    2.162299
  C     -0.066910    0.383753    2.225386
  N      0.557405    0.526001    1.018477
  C      1.384363    1.662590    0.669622
  H      1.290044    2.418878    1.442901
  H      1.055439    2.103984   -0.267732
  H      2.434655    1.389052    0.600085
  C     -0.961588   -2.642312    0.515959
  H     -0.674279   -2.852669   -0.507196
  H     -2.047950   -2.652092    0.578433
  H     -0.563019   -3.419379    1.165172
  H     -1.333804   -1.309884    2.887136
  H     -0.041248    1.105415    3.006603
  C     -0.009531    1.589659   -2.794797
  H     -0.576619    1.427143   -3.719403
  H      0.631794    2.475178   -2.908290
  H     -0.756862    1.773833   -2.006764
  H     -0.318922   -1.077970   -3.125355

 Total Charge           Charge          ....    1
 Multiplicity           Mult            ....    1
 Number of Electrons    NEL             ....   82
 Basis Dimension        Dim             ....  175

ORBITAL ENERGIES
----------------

  NO   OCC          E(Eh)            E(eV)
   0   2.0000    -162.891891     -4432.5137
   1   2.0000     -18.205185      -495.3883
   2   2.0000     -15.042401      -409.3245
   3   2.0000     -15.040049      -409.2605
   4   2.0000     -15.038978      -409.2314
   5   2.0000     -14.874853      -404.7653
   6   2.0000     -14.873340      -404.7242
   7   2.0000     -10.652420      -289.8671
   8   2.0000     -10.638767      -289.4956
   9   2.0000     -10.638201      -289.4802
  10   2.0000     -10.635673      -289.4114
  11   2.0000     -10.621270      -289.0195
  12   2.0000     -10.524751      -286.3930
  13   2.0000      -2.413641       -65.6785
  14   2.0000      -1.563364       -42.5413
  15   2.0000      -1.553947       -42.2850
  16   2.0000      -1.551037       -42.2059
  17   2.0000      -1.320515       -35.9330
  18   2.0000      -1.199259       -32.6335
  19   2.0000      -1.031824       -28.0773
  20   2.0000      -0.992502       -27.0073
  21   2.0000      -0.935916       -25.4676
  22   2.0000      -0.863744       -23.5037
  23   2.0000      -0.855368       -23.2757
  24   2.0000      -0.811974       -22.0949
  25   2.0000      -0.761156       -20.7121
  26   2.0000      -0.713948       -19.4275
  27   2.0000      -0.687857       -18.7175
  28   2.0000      -0.668473       -18.1901
  29   2.0000      -0.667352       -18.1596
  30   2.0000      -0.658455       -17.9175
  31   2.0000      -0.615114       -16.7381
  32   2.0000      -0.603391       -16.4191
  33   2.0000      -0.600225       -16.3329
  34   2.0000      -0.568522       -15.4703
  35   2.0000      -0.558423       -15.1955
  36   2.0000      -0.526702       -14.3323
  37   2.0000      -0.496763       -13.5176
  38   2.0000      -0.443529       -12.0690
  39   2.0000      -0.440908       -11.9977
  40   2.0000      -0.430102       -11.7037
  41   0.0000      -0.187620        -5.1054
  42   0.0000      -0.179082        -4.8731
  43   0.0000      -0.167128        -4.5478
  44   0.0000      -0.153322        -4.1721
  45   0.0000      -0.148278        -4.0349

MULLIKEN ATOMIC CHARGES
-----------------------
   0 Sc:    0.802164
   1 C :    0.181665
   2 N :   -0.419527
   3 C :   -0.065484
   4 C :   -0.066432
   5 N :   -0.399144
   6 C :   -0.555772
   7 H :    0.294270
   8 H :    0.279127
   9 H :    0.269352
  10 C :   -0.524221
  11 H :    0.267196
  12 H :    0.279729
  13 H :    0.276981
  14 H :    0.309719
  15 H :    0.308936
  16 C :   -1.009368
  17 H :    0.299956
  18 H :    0.248689
  19 H :    0.238080
  20 H :   -0.015916
Sum of atomic charges:    1.0000000

LOEWDIN ATOMIC CHARGES
----------------------
   0 Sc:    0.502197
   1 C :   -0.047627
   2 N :    0.010927
   3 C :   -0.076934
   4 C :   -0.077655
   5 N :    0.001670
   6 C :   -0.241500
   7 H :    0.165676
   8 H :    0.155983
   9 H :    0.149009
  10 C :   -0.235144
  11 H :    0.154757
  12 H :    0.156720
  13 H :    0.154606
  14 H :    0.169898
  15 H :    0.168513
  16 C :   -0.575134
  17 H :    0.183863
  18 H :    0.155317
  19 H :    0.164500
  20 H :   -0.039644

  Mayer bond orders larger than 0.100000
B(  0-Sc,  1-C ) :   0.6332 B(  0-Sc, 16-C ) :   1.0240 B(  0-Sc, 20-H ) :   0.9774
B(  1-C ,  2-N ) :   1.2491 B(  1-C ,  5-N ) :   1.2118 B(  2-N ,  3-C ) :   1.1710
B(  2-N , 10-C ) :   0.9061 B(  3-C ,  4-C ) :   1.6188 B(  3-C , 14-H ) :   0.8747
B(  4-C ,  5-N ) :   1.1533 B(  4-C , 15-H ) :   0.8744 B(  5-N ,  6-C ) :   0.9087
B(  6-C ,  7-H ) :   0.8997 B(  6-C ,  8-H ) :   0.8783 B(  6-C ,  9-H ) :   0.8938
B( 10-C , 11-H ) :   0.9071 B( 10-C , 12-H ) :   0.8954 B( 10-C , 13-H ) :   0.8948
B( 16-C , 17-H ) :   0.8706 B( 16-C , 18-H ) :   0.8887 B( 16-C , 19-H ) :   0.8653

Dispersion correction           -0.011131477
FINAL SINGLE POINT ENERGY     -1104.476092086915
Dispersion correction            ... done

DIPOLE MOMENT
-------------
                                X             Y             Z
Electronic contribution:      6.54632      -3.36145      -4.02615
Nuclear contribution   :     -5.18435       3.12511       4.80628
                        -----------------------------------------
Total Dipole Moment    :      1.36197      -0.23635       0.78014
                        -----------------------------------------
Magnitude (a.u.)       :      1.58727
Magnitude (Debye)      :      4.03452

Rotational constants in cm-1:     0.059463     0.029214     0.021633
Rotational constants in MHz :  1782.657602   875.805907   648.554093

                             ****ORCA TERMINATED NORMALLY****
TOTAL RUN TIME: 0 days 0 hours 1 minutes 55 seconds 128 msec
