                         Program Version 5.0.3 -  RELEASE  -
|  1> ! EnGrad PBEh-3c
|  2> %output
|  3> xyzfile=True
|  4> end
|  5> %scf
|  6> maxiter 250
|  7> end
|  8> %output
|  9> Print[P_Hirshfeld] = 1
| 10> end
| 11> % maxcore
| 12> 4000
| 13> *xyz 1 1
| 14> Sc   0.86597764  -0.22620752  -2.04711957
| 15> C    0.33072649  -0.52371128   0.20353710
| 16> N   -0.45246914  -1.34724708   0.92723008
| 17> C   -0.72060250  -0.81010279   2.15004763
| 18> C   -0.07990590   0.37588229   2.21197366
| 19> N    0.56082415   0.52543577   1.02193829
| 20> C    1.39177712   1.65562484   0.66167779
| 21> H    1.31420236   2.40606781   1.44321506
| 22> H    1.05155388   2.11171898  -0.26176593
| 23> H    2.43728157   1.37264489   0.57322215
| 24> C   -0.96203624  -2.64461030   0.51587984
| 25> H   -0.65827937  -2.86307592  -0.49929193
| 26> H   -2.04885928  -2.64706779   0.56536299
| 27> H   -0.57554294  -3.41747998   1.17733122
| 28> H   -1.34787445  -1.29674564   2.87661752
| 29> H   -0.05265033   1.11767749   2.99164814
| 30> C   -0.02824087   1.59413180  -2.78042434
| 31> H   -0.59357250   1.42546292  -3.71487098
| 32> H    0.60952781   2.49275973  -2.89534629
| 33> H   -0.77971509   1.76925654  -1.98463382
| 34> H   -0.26692305  -1.06231232  -3.13529400
| 35> *
| 36>
| 37>                          ****END OF INPUT****

CARTESIAN COORDINATES (ANGSTROEM)
---------------------------------
  Sc     0.865978   -0.226208   -2.047120
  C      0.330726   -0.523711    0.203537
  N     -0.452469   -1.347247    0.927230
  C     -0.720602   -0.810103    2.150048
  C     -0.079906    0.375882    2.211974
  N      0.560824    0.525436    1.021938
  C      1.391777    1.655625    0.661678
  H      1.314202    2.406068    1.443215
  H      1.051554    2.111719   -0.261766
  H      2.437282    1.372645    0.573222
  C     -0.962036   -2.644610    0.515880
  H     -0.658279   -2.863076   -0.499292
  H     -2.048859   -2.647068    0.565363
  H     -0.575543   -3.417480    1.177331
  H     -1.347874   -1.296746    2.876618
  H     -0.052650    1.117677    2.991648
  C     -0.028241    1.594132   -2.780424
  H     -0.593572    1.425463   -3.714871
  H      0.609528    2.492760   -2.895346
  H     -0.779715    1.769257   -1.984634
  H     -0.266923   -1.062312   -3.135294

 Total Charge           Charge          ....    1
 Multiplicity           Mult            ....    1
 Number of Electrons    NEL             ....   82
 Basis Dimension        Dim             ....  175

ORBITAL ENERGIES
----------------

  NO   OCC          E(Eh)            E(eV)
   0   2.0000    -162.893842     -4432.5668
   1   2.0000     -18.206793      -495.4320
   2   2.0000     -15.044095      -409.3706
   3   2.0000     -15.041544      -409.3012
   4   2.0000     -15.040699      -409.2782
   5   2.0000     -14.874624      -404.7591
   6   2.0000     -14.873463      -404.7275
   7   2.0000     -10.652940      -289.8812
   8   2.0000     -10.638388      -289.4852
   9   2.0000     -10.636832      -289.4429
  10   2.0000     -10.633475      -289.3516
  11   2.0000     -10.622598      -289.0556
  12   2.0000     -10.525756      -286.4204
  13   2.0000      -2.414607       -65.7048
  14   2.0000      -1.564244       -42.5652
  15   2.0000      -1.554983       -42.3132
  16   2.0000      -1.551440       -42.2168
  17   2.0000      -1.323725       -36.0204
  18   2.0000      -1.200881       -32.6776
  19   2.0000      -1.036754       -28.2115
  20   2.0000      -0.992064       -26.9954
  21   2.0000      -0.938397       -25.5351
  22   2.0000      -0.856364       -23.3029
  23   2.0000      -0.853998       -23.2385
  24   2.0000      -0.815424       -22.1888
  25   2.0000      -0.761605       -20.7243
  26   2.0000      -0.715783       -19.4774
  27   2.0000      -0.684935       -18.6380
  28   2.0000      -0.668994       -18.2043
  29   2.0000      -0.667835       -18.1727
  30   2.0000      -0.660068       -17.9614
  31   2.0000      -0.616607       -16.7787
  32   2.0000      -0.605427       -16.4745
  33   2.0000      -0.602459       -16.3937
  34   2.0000      -0.561746       -15.2859
  35   2.0000      -0.552324       -15.0295
  36   2.0000      -0.527274       -14.3478
  37   2.0000      -0.497902       -13.5486
  38   2.0000      -0.445061       -12.1107
  39   2.0000      -0.443261       -12.0617
  40   2.0000      -0.424868       -11.5612
  41   0.0000      -0.188475        -5.1287
  42   0.0000      -0.180048        -4.8994
  43   0.0000      -0.167984        -4.5711
  44   0.0000      -0.155063        -4.2195
  45   0.0000      -0.149162        -4.0589

MULLIKEN ATOMIC CHARGES
-----------------------
   0 Sc:    0.794122
   1 C :    0.179076
   2 N :   -0.418531
   3 C :   -0.062437
   4 C :   -0.063849
   5 N :   -0.398167
   6 C :   -0.558809
   7 H :    0.294469
   8 H :    0.284533
   9 H :    0.267947
  10 C :   -0.523209
  11 H :    0.266288
  12 H :    0.280256
  13 H :    0.277304
  14 H :    0.307561
  15 H :    0.306564
  16 C :   -0.991704
  17 H :    0.293313
  18 H :    0.241980
  19 H :    0.231778
  20 H :   -0.008486
Sum of atomic charges:    1.0000000

LOEWDIN ATOMIC CHARGES
----------------------
   0 Sc:    0.508642
   1 C :   -0.044754
   2 N :    0.011388
   3 C :   -0.079190
   4 C :   -0.078752
   5 N :    0.002494
   6 C :   -0.242107
   7 H :    0.165888
   8 H :    0.157995
   9 H :    0.148771
  10 C :   -0.234201
  11 H :    0.154515
  12 H :    0.157078
  13 H :    0.154930
  14 H :    0.170696
  15 H :    0.169531
  16 C :   -0.577498
  17 H :    0.179700
  18 H :    0.151432
  19 H :    0.158920
  20 H :   -0.035480

  Mayer bond orders larger than 0.100000
B(  0-Sc,  1-C ) :   0.6370 B(  0-Sc, 16-C ) :   1.0159 B(  0-Sc, 20-H ) :   0.9796
B(  1-C ,  2-N ) :   1.2517 B(  1-C ,  5-N ) :   1.2160 B(  2-N ,  3-C ) :   1.1687
B(  2-N , 10-C ) :   0.9064 B(  3-C ,  4-C ) :   1.6243 B(  3-C , 14-H ) :   0.8762
B(  4-C ,  5-N ) :   1.1515 B(  4-C , 15-H ) :   0.8760 B(  5-N ,  6-C ) :   0.9077
B(  6-C ,  7-H ) :   0.9000 B(  6-C ,  8-H ) :   0.8755 B(  6-C ,  9-H ) :   0.8945
B( 10-C , 11-H ) :   0.9074 B( 10-C , 12-H ) :   0.8952 B( 10-C , 13-H ) :   0.8947
B( 16-C , 17-H ) :   0.8764 B( 16-C , 18-H ) :   0.8925 B( 16-C , 19-H ) :   0.8722

Dispersion correction           -0.011115872
FINAL SINGLE POINT ENERGY     -1104.475744599327
Dispersion correction            ... done

DIPOLE MOMENT
-------------
                                X             Y             Z
Electronic contribution:      6.72377      -3.58583      -3.88166
Nuclear contribution   :     -5.33914       3.26809       4.70506
                        -----------------------------------------
Total Dipole Moment    :      1.38463      -0.31774       0.82339
                        -----------------------------------------
Magnitude (a.u.)       :      1.64199
Magnitude (Debye)      :      4.17361

Rotational constants in cm-1:     0.059111     0.029366     0.021799
Rotational constants in MHz :  1772.112018   880.379300   653.527468

                             ****ORCA TERMINATED NORMALLY****
TOTAL RUN TIME: 0 days 0 hours 1 minutes 56 seconds 74 msec
