                         Program Version 5.0.3 -  RELEASE  -
|  1> ! EnGrad PBEh-3c
|  2> %output
|  3> xyzfile=True
|  4> end
|  5> %scf
|  6> maxiter 250
|  7> end
|  8> %output
|  9> Print[P_Hirshfeld] = 1
| 10> end
| 11> % maxcore
| 12> 4000
| 13> *xyz 1 1
| 14> Sc   0.95430495  -0.27292563  -2.00341574
| 15> C    0.35222578  -0.54550328   0.21752073
| 16> N   -0.46033867  -1.35054482   0.92107215
| 17> C   -0.74508079  -0.78850205   2.12674663
| 18> C   -0.11066548   0.39055204   2.18441968
| 19> N    0.57518476   0.51366976   1.01661434
| 20> C    1.41572330   1.63161323   0.63904771
| 21> H    1.40128891   2.36019551   1.44553255
| 22> H    1.03492549   2.13685187  -0.24570578
| 23> H    2.44879760   1.31542601   0.48034006
| 24> C   -0.96472134  -2.65173148   0.52097982
| 25> H   -0.60331156  -2.90000476  -0.47296606
| 26> H   -2.05253572  -2.63150335   0.51864229
| 27> H   -0.62027014  -3.41226262   1.22149883
| 28> H   -1.39514063  -1.24684812   2.83766587
| 29> H   -0.09512831   1.15363727   2.93576834
| 30> C   -0.08640697   1.59843479  -2.72871680
| 31> H   -0.64858828   1.42094908  -3.68355726
| 32> H    0.52111822   2.53154450  -2.84761978
| 33> H   -0.84944290   1.74493767  -1.91987119
| 34> H   -0.07465667  -0.98851414  -3.16328677
| 35> *
| 36>
| 37>                          ****END OF INPUT****

CARTESIAN COORDINATES (ANGSTROEM)
---------------------------------
  Sc     0.954305   -0.272926   -2.003416
  C      0.352226   -0.545503    0.217521
  N     -0.460339   -1.350545    0.921072
  C     -0.745081   -0.788502    2.126747
  C     -0.110665    0.390552    2.184420
  N      0.575185    0.513670    1.016614
  C      1.415723    1.631613    0.639048
  H      1.401289    2.360196    1.445533
  H      1.034925    2.136852   -0.245706
  H      2.448798    1.315426    0.480340
  C     -0.964721   -2.651731    0.520980
  H     -0.603312   -2.900005   -0.472966
  H     -2.052536   -2.631503    0.518642
  H     -0.620270   -3.412263    1.221499
  H     -1.395141   -1.246848    2.837666
  H     -0.095128    1.153637    2.935768
  C     -0.086407    1.598435   -2.728717
  H     -0.648588    1.420949   -3.683557
  H      0.521118    2.531544   -2.847620
  H     -0.849443    1.744938   -1.919871
  H     -0.074657   -0.988514   -3.163287

 Total Charge           Charge          ....    1
 Multiplicity           Mult            ....    1
 Number of Electrons    NEL             ....   82
 Basis Dimension        Dim             ....  175

ORBITAL ENERGIES
----------------

  NO   OCC          E(Eh)            E(eV)
   0   2.0000    -162.892754     -4432.5372
   1   2.0000     -18.205076      -495.3853
   2   2.0000     -15.042627      -409.3307
   3   2.0000     -15.039616      -409.2488
   4   2.0000     -15.039009      -409.2322
   5   2.0000     -14.874958      -404.7682
   6   2.0000     -14.874167      -404.7466
   7   2.0000     -10.652267      -289.8629
   8   2.0000     -10.639817      -289.5241
   9   2.0000     -10.636081      -289.4225
  10   2.0000     -10.632137      -289.3152
  11   2.0000     -10.625891      -289.1452
  12   2.0000     -10.526307      -286.4354
  13   2.0000      -2.413725       -65.6808
  14   2.0000      -1.563504       -42.5451
  15   2.0000      -1.554848       -42.3096
  16   2.0000      -1.549932       -42.1758
  17   2.0000      -1.326912       -36.1071
  18   2.0000      -1.203174       -32.7400
  19   2.0000      -1.039578       -28.2883
  20   2.0000      -0.993404       -27.0319
  21   2.0000      -0.940202       -25.5842
  22   2.0000      -0.856512       -23.3069
  23   2.0000      -0.840985       -22.8844
  24   2.0000      -0.816832       -22.2271
  25   2.0000      -0.763689       -20.7810
  26   2.0000      -0.717706       -19.5298
  27   2.0000      -0.686740       -18.6871
  28   2.0000      -0.670418       -18.2430
  29   2.0000      -0.669712       -18.2238
  30   2.0000      -0.662292       -18.0219
  31   2.0000      -0.617866       -16.8130
  32   2.0000      -0.607671       -16.5356
  33   2.0000      -0.604319       -16.4444
  34   2.0000      -0.547637       -14.9020
  35   2.0000      -0.538429       -14.6514
  36   2.0000      -0.526814       -14.3353
  37   2.0000      -0.499274       -13.5859
  38   2.0000      -0.450923       -12.2702
  39   2.0000      -0.445466       -12.1218
  40   2.0000      -0.411980       -11.2105
  41   0.0000      -0.188621        -5.1326
  42   0.0000      -0.181329        -4.9342
  43   0.0000      -0.168209        -4.5772
  44   0.0000      -0.158657        -4.3173
  45   0.0000      -0.148058        -4.0289

MULLIKEN ATOMIC CHARGES
-----------------------
   0 Sc:    0.771527
   1 C :    0.178918
   2 N :   -0.417637
   3 C :   -0.061867
   4 C :   -0.063821
   5 N :   -0.394445
   6 C :   -0.565067
   7 H :    0.296633
   8 H :    0.295649
   9 H :    0.261002
  10 C :   -0.520092
  11 H :    0.260421
  12 H :    0.281696
  13 H :    0.278461
  14 H :    0.306879
  15 H :    0.305796
  16 C :   -0.957133
  17 H :    0.278035
  18 H :    0.229444
  19 H :    0.218790
  20 H :    0.016813
Sum of atomic charges:    1.0000000

LOEWDIN ATOMIC CHARGES
----------------------
   0 Sc:    0.522868
   1 C :   -0.044579
   2 N :    0.011828
   3 C :   -0.079087
   4 C :   -0.076683
   5 N :    0.004555
   6 C :   -0.242953
   7 H :    0.166413
   8 H :    0.162678
   9 H :    0.147758
  10 C :   -0.232349
  11 H :    0.152728
  12 H :    0.157756
  13 H :    0.155864
  14 H :    0.169236
  15 H :    0.168755
  16 C :   -0.582049
  17 H :    0.169802
  18 H :    0.142952
  19 H :    0.146691
  20 H :   -0.022184

  Mayer bond orders larger than 0.100000
B(  0-Sc,  1-C ) :   0.6415 B(  0-Sc, 16-C ) :   0.9936 B(  0-Sc, 20-H ) :   0.9817
B(  1-C ,  2-N ) :   1.2548 B(  1-C ,  5-N ) :   1.2243 B(  2-N ,  3-C ) :   1.1662
B(  2-N , 10-C ) :   0.9065 B(  3-C ,  4-C ) :   1.6329 B(  3-C , 14-H ) :   0.8768
B(  4-C ,  5-N ) :   1.1494 B(  4-C , 15-H ) :   0.8766 B(  5-N ,  6-C ) :   0.9046
B(  6-C ,  7-H ) :   0.8993 B(  6-C ,  8-H ) :   0.8689 B(  6-C ,  9-H ) :   0.8972
B( 10-C , 11-H ) :   0.9101 B( 10-C , 12-H ) :   0.8942 B( 10-C , 13-H ) :   0.8942
B( 16-C , 17-H ) :   0.8893 B( 16-C , 18-H ) :   0.9003 B( 16-C , 19-H ) :   0.8871

Dispersion correction           -0.011122924
FINAL SINGLE POINT ENERGY     -1104.467435278824
Dispersion correction            ... done

DIPOLE MOMENT
-------------
                                X             Y             Z
Electronic contribution:      7.19534      -4.09520      -3.57122
Nuclear contribution   :     -5.77629       3.59680       4.46221
                        -----------------------------------------
Total Dipole Moment    :      1.41905      -0.49840       0.89099
                        -----------------------------------------
Magnitude (a.u.)       :      1.74814
Magnitude (Debye)      :      4.44341

Rotational constants in cm-1:     0.058076     0.029646     0.022221
Rotational constants in MHz :  1741.088956   888.763289   666.174469

                             ****ORCA TERMINATED NORMALLY****
TOTAL RUN TIME: 0 days 0 hours 1 minutes 59 seconds 383 msec
