                         Program Version 5.0.4 -  RELEASE  -
|  1> %pal nprocs 8 end
|  2>
|  3>  *xyzfile -1 1 IEIP_ts_guess.xyz
|  4>
|  5>
|  6>                          ****END OF INPUT****
|  1>
|  2>
|  3>   ! PBEh-3c OptTS Freq pal8
|  4>
|  5>   %geom
|  6>    calc_hess true
|  7>    recalc_hess 20
|  8>    maxiter 600
|  9>   end
| 10>
| 11>
| 12>                          ****END OF INPUT****
 Total Charge           Charge          ....   -1
 Multiplicity           Mult            ....    1
 Number of Electrons    NEL             ....  164
Dispersion correction           -0.024836121
FINAL SINGLE POINT ENERGY     -2061.468228498863
Dispersion correction            ... done
Dispersion correction in the Hessian             ... done   (      0.9 sec)
Dispersion correction           -0.024790116
FINAL SINGLE POINT ENERGY     -2061.477077226827
Dispersion correction            ... done
Dispersion correction           -0.024726969
FINAL SINGLE POINT ENERGY     -2061.483001873842
FINAL SINGLE POINT ENERGY     -2061.486715643085
FINAL SINGLE POINT ENERGY     -2061.488402159115
FINAL SINGLE POINT ENERGY     -2061.489185519217
FINAL SINGLE POINT ENERGY     -2061.489702240271
FINAL SINGLE POINT ENERGY     -2061.490406154340
FINAL SINGLE POINT ENERGY     -2061.490729215853
FINAL SINGLE POINT ENERGY     -2061.490838339667
FINAL SINGLE POINT ENERGY     -2061.490952386732
FINAL SINGLE POINT ENERGY     -2061.490894434180
FINAL SINGLE POINT ENERGY     -2061.490953800094
FINAL SINGLE POINT ENERGY     -2061.490971399786
FINAL SINGLE POINT ENERGY     -2061.491006459910
FINAL SINGLE POINT ENERGY     -2061.490991307599
FINAL SINGLE POINT ENERGY     -2061.490978684364
Dispersion correction           -0.024989022
FINAL SINGLE POINT ENERGY     -2061.490990761751
Dispersion correction            ... done
                    ***********************HURRAY********************
Dispersion correction           -0.024989385
FINAL SINGLE POINT ENERGY     -2061.490989861009
Dispersion correction in the Hessian             ... done   (      0.9 sec)

VIBRATIONAL FREQUENCIES
-----------------------

Scaling factor for frequencies =  1.000000000  (already applied!)

   0:         0.00 cm**-1
   1:         0.00 cm**-1
   2:         0.00 cm**-1
   3:         0.00 cm**-1
   4:         0.00 cm**-1
   5:         0.00 cm**-1
   6:      -100.08 cm**-1 ***imaginary mode***
   7:        42.47 cm**-1
   8:        54.53 cm**-1
   9:        58.47 cm**-1
  10:        80.03 cm**-1
  11:       100.71 cm**-1
  12:       130.58 cm**-1
  13:       137.63 cm**-1
  14:       157.98 cm**-1
  15:       183.23 cm**-1
  16:       193.81 cm**-1
  17:       211.57 cm**-1
  18:       239.51 cm**-1
  19:       275.56 cm**-1
  20:       300.38 cm**-1
  21:       351.61 cm**-1
  22:       362.06 cm**-1
  23:       431.05 cm**-1
  24:       443.61 cm**-1
  25:       461.61 cm**-1
  26:       513.42 cm**-1
  27:       518.32 cm**-1
  28:       527.79 cm**-1
  29:       571.23 cm**-1
  30:       583.60 cm**-1
  31:       635.78 cm**-1
  32:       649.40 cm**-1
  33:       744.53 cm**-1
  34:       754.65 cm**-1
  35:       764.42 cm**-1
  36:       789.76 cm**-1
  37:       820.41 cm**-1
  38:       855.39 cm**-1
  39:       874.86 cm**-1
  40:       880.99 cm**-1
  41:       930.90 cm**-1
  42:       946.89 cm**-1
  43:       978.57 cm**-1
  44:       995.02 cm**-1
  45:      1017.78 cm**-1
  46:      1027.59 cm**-1
  47:      1031.92 cm**-1
  48:      1068.15 cm**-1
  49:      1114.33 cm**-1
  50:      1133.85 cm**-1
  51:      1161.61 cm**-1
  52:      1192.57 cm**-1
  53:      1202.61 cm**-1
  54:      1218.88 cm**-1
  55:      1268.70 cm**-1
  56:      1283.25 cm**-1
  57:      1286.05 cm**-1
  58:      1329.61 cm**-1
  59:      1385.76 cm**-1
  60:      1414.33 cm**-1
  61:      1437.22 cm**-1
  62:      1487.89 cm**-1
  63:      1504.18 cm**-1
  64:      1521.35 cm**-1
  65:      1535.86 cm**-1
  66:      1592.98 cm**-1
  67:      1615.62 cm**-1
  68:      1692.73 cm**-1
  69:      1704.43 cm**-1
  70:      1725.58 cm**-1
  71:      1742.79 cm**-1
  72:      2294.16 cm**-1
  73:      3249.99 cm**-1
  74:      3252.02 cm**-1
  75:      3260.43 cm**-1
  76:      3269.03 cm**-1
  77:      3271.75 cm**-1
  78:      3294.48 cm**-1
  79:      3296.34 cm**-1
  80:      3311.38 cm**-1

IR SPECTRUM
-----------

 Mode   freq       eps      Int      T**2         TX        TY        TZ
       cm**-1   L/(mol*cm) km/mol    a.u.
----------------------------------------------------------------------------
  7:     42.47   0.000637    3.22  0.004682  (-0.030720 -0.054785 -0.027145)
  8:     54.53   0.000556    2.81  0.003183  ( 0.043104  0.029351 -0.021529)
  9:     58.47   0.000660    3.34  0.003525  (-0.022071  0.024874  0.049183)
 10:     80.03   0.000257    1.30  0.001003  ( 0.015116  0.024740 -0.012759)
 11:    100.71   0.001010    5.11  0.003131  (-0.050603  0.003804 -0.023577)
 12:    130.58   0.002317   11.71  0.005537  ( 0.010799 -0.045092  0.058198)
 13:    137.63   0.000379    1.92  0.000860  ( 0.017156 -0.021965  0.009133)
 14:    157.98   0.001439    7.27  0.002842  ( 0.031760 -0.027962  0.032431)
 15:    183.23   0.004641   23.45  0.007904  ( 0.026444 -0.056099  0.063699)
 16:    193.81   0.000194    0.98  0.000313  ( 0.002244  0.017213 -0.003384)
 17:    211.57   0.001405    7.10  0.002072  ( 0.001249 -0.033713  0.030562)
 18:    239.51   0.001965    9.93  0.002560  (-0.029158  0.026243 -0.031956)
 19:    275.56   0.001142    5.77  0.001293  (-0.009811  0.022140 -0.026583)
 20:    300.38   0.001008    5.09  0.001047  (-0.028655  0.014345  0.004514)
 21:    351.61   0.007257   36.67  0.006441  (-0.075210  0.014308  0.024073)
 22:    362.06   0.008525   43.08  0.007348  ( 0.050228  0.060363  0.034367)
 23:    431.05   0.001053    5.32  0.000763  (-0.026510 -0.003378 -0.006956)
 24:    443.61   0.000822    4.15  0.000578  (-0.006144  0.010914 -0.020525)
 25:    461.61   0.001086    5.49  0.000734  (-0.014570  0.001794 -0.022771)
 26:    513.42   0.000532    2.69  0.000323  ( 0.008521 -0.014399 -0.006570)
 27:    518.32   0.000598    3.02  0.000360  ( 0.004313 -0.018450  0.001096)
 28:    527.79   0.000743    3.76  0.000439  (-0.013360  0.012946 -0.009659)
 29:    571.23   0.001443    7.29  0.000788  ( 0.012553 -0.017247  0.018256)
 30:    583.60   0.000131    0.66  0.000070  ( 0.000419  0.003661 -0.007516)
 31:    635.78   0.000454    2.30  0.000223  ( 0.004458 -0.007520  0.012106)
 32:    649.40   0.003483   17.60  0.001674  ( 0.012531 -0.037255  0.011357)
 33:    744.53   0.000190    0.96  0.000080  ( 0.006908  0.005659 -0.000054)
 34:    754.65   0.003159   15.96  0.001306  ( 0.028995 -0.020393 -0.007039)
 35:    764.42   0.004901   24.77  0.002001  (-0.030982  0.018825 -0.026200)
 36:    789.76   0.006936   35.05  0.002741  (-0.042812  0.022884 -0.019598)
 37:    820.41   0.000469    2.37  0.000179  (-0.008142 -0.004475  0.009604)
 38:    855.39   0.020005  101.10  0.007298  ( 0.063763 -0.035840  0.044137)
 39:    874.86   0.001242    6.28  0.000443  (-0.011018  0.002147 -0.017804)
 40:    880.99   0.006624   33.48  0.002346  ( 0.036909 -0.024091  0.020096)
 41:    930.90   0.003532   17.85  0.001184  (-0.018628  0.019098 -0.021731)
 42:    946.89   0.001340    6.77  0.000442  ( 0.019720  0.003762 -0.006217)
 43:    978.57   0.011947   60.37  0.003810  ( 0.041594 -0.024347  0.038562)
 44:    995.02   0.000128    0.65  0.000040  ( 0.003890 -0.004954 -0.000637)
 45:   1017.78   0.000282    1.43  0.000087  (-0.003552  0.003044 -0.008043)
 46:   1027.59   0.000087    0.44  0.000026  ( 0.005140 -0.000172  0.000188)
 47:   1031.92   0.000253    1.28  0.000077  (-0.001349 -0.000962 -0.008590)
 48:   1068.15   0.000189    0.95  0.000055  ( 0.002018 -0.000274  0.007139)
 49:   1114.33   0.001434    7.25  0.000402  ( 0.019661 -0.001221 -0.003680)
 50:   1133.85   0.000732    3.70  0.000202  (-0.008318  0.007270  0.008915)
 51:   1161.61   0.000999    5.05  0.000269  (-0.002202 -0.015274 -0.005511)
 52:   1192.57   0.000908    4.59  0.000238  (-0.000356  0.004528  0.014732)
 53:   1202.61   0.000509    2.57  0.000132  (-0.005699 -0.008693 -0.004890)
 54:   1218.88   0.001388    7.01  0.000355  (-0.015055 -0.001255  0.011271)
 55:   1268.70   0.000435    2.20  0.000107  ( 0.001739  0.010194  0.000307)
 56:   1283.25   0.000505    2.55  0.000123  ( 0.002947  0.005417  0.009207)
 57:   1286.05   0.000566    2.86  0.000137  ( 0.004082 -0.005147 -0.009699)
 58:   1329.61   0.000566    2.86  0.000133  (-0.001175 -0.004978 -0.010329)
 59:   1385.76   0.001629    8.23  0.000367  (-0.006763 -0.016791 -0.006257)
 60:   1414.33   0.002233   11.29  0.000493  (-0.015775 -0.009805  0.012155)
 61:   1437.22   0.000627    3.17  0.000136  ( 0.002804  0.003596 -0.010742)
 62:   1487.89   0.001022    5.17  0.000214  ( 0.001887  0.004310 -0.013867)
 63:   1504.18   0.007110   35.93  0.001475  (-0.014075  0.002363  0.035657)
 64:   1521.35   0.002145   10.84  0.000440  ( 0.004964 -0.002680 -0.020204)
 65:   1535.86   0.003161   15.97  0.000642  ( 0.007716 -0.019900 -0.013662)
 66:   1592.98   0.001417    7.16  0.000278  (-0.009237  0.002353  0.013665)
 67:   1615.62   0.002159   10.91  0.000417  ( 0.014663  0.008685  0.011250)
 68:   1692.73   0.002148   10.86  0.000396  ( 0.010401  0.015489 -0.006925)
 69:   1704.43   0.001252    6.33  0.000229  (-0.009657 -0.005672  0.010191)
 70:   1725.58   0.000871    4.40  0.000157  (-0.010255 -0.001461  0.007081)
 71:   1742.79   0.001092    5.52  0.000196  (-0.000880  0.007708  0.011636)
 72:   2294.16   0.125498  634.22  0.017071  ( 0.039257 -0.081392  0.094367)
 73:   3249.99   0.000167    0.84  0.000016  ( 0.000904  0.002536  0.002957)
 74:   3252.02   0.000823    4.16  0.000079  (-0.005122 -0.006294  0.003624)
 75:   3260.43   0.001393    7.04  0.000133  ( 0.004620  0.009188  0.005253)
 76:   3269.03   0.005070   25.62  0.000484  ( 0.012695  0.017967  0.000227)
 77:   3271.75   0.006287   31.77  0.000600  ( 0.012082  0.000989 -0.021276)
 78:   3294.48   0.001563    7.90  0.000148  ( 0.003565 -0.005445 -0.010282)
 79:   3296.34   0.000887    4.48  0.000084  ( 0.003958 -0.002002 -0.008017)
 80:   3311.38   0.001707    8.63  0.000161  (-0.007762 -0.008205 -0.005770)

--------------------------
THERMOCHEMISTRY AT 298.15K
--------------------------

Temperature         ... 298.15 K
Pressure            ... 1.00 atm
Total Mass          ... 391.98 AMU

Throughout the following assumptions are being made:
  (1) The electronic state is orbitally nondegenerate
  (2) There are no thermally accessible electronically excited states
  (3) Hindered rotations indicated by low frequency modes are not
      treated as such but are treated as vibrations and this may
      cause some error
  (4) All equations used are the standard statistical mechanics
      equations for an ideal gas
  (5) All vibrations are strictly harmonic

freq.      42.47  E(vib)   ...       0.53
freq.      54.53  E(vib)   ...       0.52
freq.      58.47  E(vib)   ...       0.51
freq.      80.03  E(vib)   ...       0.49
freq.     100.71  E(vib)   ...       0.46
freq.     130.58  E(vib)   ...       0.43
freq.     137.63  E(vib)   ...       0.42
freq.     157.98  E(vib)   ...       0.40
freq.     183.23  E(vib)   ...       0.37
freq.     193.81  E(vib)   ...       0.36
freq.     211.57  E(vib)   ...       0.34
freq.     239.51  E(vib)   ...       0.31
freq.     275.56  E(vib)   ...       0.28
freq.     300.38  E(vib)   ...       0.26
freq.     351.61  E(vib)   ...       0.23
freq.     362.06  E(vib)   ...       0.22
freq.     431.05  E(vib)   ...       0.18
freq.     443.61  E(vib)   ...       0.17
freq.     461.61  E(vib)   ...       0.16
freq.     513.42  E(vib)   ...       0.13
freq.     518.32  E(vib)   ...       0.13
freq.     527.79  E(vib)   ...       0.13
freq.     571.23  E(vib)   ...       0.11
freq.     583.60  E(vib)   ...       0.11
freq.     635.78  E(vib)   ...       0.09
freq.     649.40  E(vib)   ...       0.08
freq.     744.53  E(vib)   ...       0.06
freq.     754.65  E(vib)   ...       0.06
freq.     764.42  E(vib)   ...       0.06
freq.     789.76  E(vib)   ...       0.05
freq.     820.41  E(vib)   ...       0.05
freq.     855.39  E(vib)   ...       0.04
freq.     874.86  E(vib)   ...       0.04
freq.     880.99  E(vib)   ...       0.04
freq.     930.90  E(vib)   ...       0.03
freq.     946.89  E(vib)   ...       0.03
freq.     978.57  E(vib)   ...       0.03
freq.     995.02  E(vib)   ...       0.02
freq.    1017.78  E(vib)   ...       0.02
freq.    1027.59  E(vib)   ...       0.02
freq.    1031.92  E(vib)   ...       0.02
freq.    1068.15  E(vib)   ...       0.02
freq.    1114.33  E(vib)   ...       0.01
freq.    1133.85  E(vib)   ...       0.01
freq.    1161.61  E(vib)   ...       0.01
freq.    1192.57  E(vib)   ...       0.01
freq.    1202.61  E(vib)   ...       0.01
freq.    1218.88  E(vib)   ...       0.01
freq.    1268.70  E(vib)   ...       0.01
freq.    1283.25  E(vib)   ...       0.01
freq.    1286.05  E(vib)   ...       0.01
freq.    1329.61  E(vib)   ...       0.01
freq.    1385.76  E(vib)   ...       0.00
freq.    1414.33  E(vib)   ...       0.00
freq.    1437.22  E(vib)   ...       0.00
freq.    1487.89  E(vib)   ...       0.00
freq.    1504.18  E(vib)   ...       0.00
freq.    1521.35  E(vib)   ...       0.00
freq.    1535.86  E(vib)   ...       0.00
freq.    1592.98  E(vib)   ...       0.00
freq.    1615.62  E(vib)   ...       0.00
freq.    1692.73  E(vib)   ...       0.00
freq.    1704.43  E(vib)   ...       0.00
freq.    1725.58  E(vib)   ...       0.00
freq.    1742.79  E(vib)   ...       0.00
freq.    2294.16  E(vib)   ...       0.00
freq.    3249.99  E(vib)   ...       0.00
freq.    3252.02  E(vib)   ...       0.00
freq.    3260.43  E(vib)   ...       0.00
freq.    3269.03  E(vib)   ...       0.00
freq.    3271.75  E(vib)   ...       0.00
freq.    3294.48  E(vib)   ...       0.00
freq.    3296.34  E(vib)   ...       0.00
freq.    3311.38  E(vib)   ...       0.00

------------
INNER ENERGY
------------

The inner energy is: U= E(el) + E(ZPE) + E(vib) + E(rot) + E(trans)
    E(el)   - is the total energy from the electronic structure calculation
              = E(kin-el) + E(nuc-el) + E(el-el) + E(nuc-nuc)
    E(ZPE)  - the the zero temperature vibrational energy from the frequency calculation
    E(vib)  - the the finite temperature correction to E(ZPE) due to population
              of excited vibrational states
    E(rot)  - is the rotational thermal energy
    E(trans)- is the translational thermal energy

Summary of contributions to the inner energy U:
Electronic energy                ...  -2061.49098986 Eh
Zero point energy                ...      0.19079550 Eh     119.73 kcal/mol
Thermal vibrational correction   ...      0.01293696 Eh       8.12 kcal/mol
Thermal rotational correction    ...      0.00141627 Eh       0.89 kcal/mol
Thermal translational correction ...      0.00141627 Eh       0.89 kcal/mol
-----------------------------------------------------------------------
Total thermal energy                  -2061.28442487 Eh

Summary of corrections to the electronic energy:
(perhaps to be used in another calculation)
Total thermal correction                  0.01576950 Eh       9.90 kcal/mol
Non-thermal (ZPE) correction              0.19079550 Eh     119.73 kcal/mol
-----------------------------------------------------------------------
Total correction                          0.20656499 Eh     129.62 kcal/mol

--------
ENTHALPY
--------

The enthalpy is H = U + kB*T
                kB is Boltzmann's constant
Total free energy                 ...  -2061.28442487 Eh
Thermal Enthalpy correction       ...      0.00094421 Eh       0.59 kcal/mol
-----------------------------------------------------------------------
Total Enthalpy                    ...  -2061.28348066 Eh

Note: Only C1 symmetry has been detected, increase convergence thresholds
      if your molecule has a higher symmetry. Symmetry factor of 1.0 is
      used for the rotational entropy correction.

Note: Rotational entropy computed according to Herzberg
Infrared and Raman Spectra, Chapter V,1, Van Nostrand Reinhold, 1945
Point Group:  C1, Symmetry Number:   1
Rotational constants in cm-1:     0.011837     0.008483     0.006352

Vibrational entropy computed according to the QRRHO of S. Grimme
Chem.Eur.J. 2012 18 9955

-------
ENTROPY
-------

The entropy contributions are T*S = T*(S(el)+S(vib)+S(rot)+S(trans))
     S(el)   - electronic entropy
     S(vib)  - vibrational entropy
     S(rot)  - rotational entropy
     S(trans)- translational entropy
The entropies will be listed as multiplied by the temperature to get
units of energy

|  1>
|  2>
|  3>   ! PBEh-3c IRC pal8
|  4>   %irc
|  5>     maxiter 600
|  6>     inithess read
|  7>     hess_filename "reaction-2-ieip_optts_Compound_1.hess"
|  8>   end
|  9>
| 10>
| 11>                          ****END OF INPUT****

CARTESIAN COORDINATES (ANGSTROEM)
---------------------------------
  Pd    -2.093917   -1.594049    0.324427
  Cl    -3.039707   -3.178666   -1.009193
  Cl     0.172718   -2.946970    1.943568
  Cl    -4.104733   -0.941832    1.193573
  N     -1.093956   -0.098752    1.311180
  C     -1.455388    0.428398    2.459683
  C     -0.814183    1.552137    2.987721
  C      0.172138    2.167403    2.258910
  C     -0.054289    0.424528    0.627538
  C      0.561931    1.619189    1.029635
  H      0.643753    3.075223    2.615870
  H     -2.296765   -0.032110    2.956522
  H     -1.133994    1.942837    3.943166
  C      0.355552   -0.230559   -0.575797
  C      1.500683    2.235955    0.143882
  C      1.766493    1.700084   -1.069930
  C      1.198524    0.448748   -1.470660
  H      1.966356    3.165568    0.447755
  H      2.441136    2.204810   -1.751228
  C     -0.089200   -1.537977   -0.855165
  C      1.470920   -0.151221   -2.711563
  C      0.173701   -2.087186   -2.091506
  C      0.936694   -1.380725   -3.027217
  H      2.109010    0.363649   -3.420052
  H      1.139539   -1.821585   -3.994950
  H     -0.234032   -2.249566    0.042964
  H     -0.199655   -3.078281   -2.309383

 Multiplicity           Mult            ....    1
 Number of Electrons    NEL             ....  164
 Basis Dimension        Dim             ....  313

ORBITAL ENERGIES
----------------

  NO   OCC          E(Eh)            E(eV)
   0   2.0000    -102.107232     -2778.4790
   1   2.0000    -102.095575     -2778.1618
   2   2.0000    -102.007829     -2775.7742
   3   2.0000     -14.602315      -397.3492
   4   2.0000     -10.417432      -283.4727
   5   2.0000     -10.407457      -283.2013
   6   2.0000     -10.397046      -282.9180
   7   2.0000     -10.392652      -282.7984
   8   2.0000     -10.384879      -282.5869
   9   2.0000     -10.384262      -282.5701
  10   2.0000     -10.383844      -282.5588
  11   2.0000     -10.382552      -282.5236
  12   2.0000     -10.378149      -282.4038
  13   2.0000     -10.375337      -282.3273
  14   2.0000     -10.370614      -282.1988
  15   2.0000     -10.361857      -281.9605
  16   2.0000     -10.358438      -281.8674
  17   2.0000      -9.571324      -260.4490
  18   2.0000      -9.560143      -260.1447
  19   2.0000      -9.471479      -257.7321
  20   2.0000      -7.257567      -197.4885
  21   2.0000      -7.252085      -197.3393
  22   2.0000      -7.251901      -197.3343
  23   2.0000      -7.246261      -197.1808
  24   2.0000      -7.240890      -197.0346
  25   2.0000      -7.240787      -197.0318
  26   2.0000      -7.155023      -194.6981
  27   2.0000      -7.154081      -194.6724
  28   2.0000      -7.153684      -194.6616
  29   2.0000      -3.534291       -96.1729
  30   2.0000      -2.184326       -59.4385
  31   2.0000      -2.178005       -59.2665
  32   2.0000      -2.142956       -58.3128
  33   2.0000      -0.998514       -27.1710
  34   2.0000      -0.899944       -24.4887
  35   2.0000      -0.858605       -23.3638
  36   2.0000      -0.823740       -22.4151
  37   2.0000      -0.794376       -21.6161
  38   2.0000      -0.755778       -20.5658
  39   2.0000      -0.741027       -20.1644
  40   2.0000      -0.698370       -19.0036
  41   2.0000      -0.685634       -18.6571
  42   2.0000      -0.656850       -17.8738
  43   2.0000      -0.651211       -17.7204
  44   2.0000      -0.626758       -17.0550
  45   2.0000      -0.605158       -16.4672
  46   2.0000      -0.592363       -16.1190
  47   2.0000      -0.545836       -14.8530
  48   2.0000      -0.529511       -14.4087
  49   2.0000      -0.505539       -13.7564
  50   2.0000      -0.477326       -12.9887
  51   2.0000      -0.471541       -12.8313
  52   2.0000      -0.443163       -12.0591
  53   2.0000      -0.424168       -11.5422
  54   2.0000      -0.419612       -11.4182
  55   2.0000      -0.416768       -11.3408
  56   2.0000      -0.405522       -11.0348
  57   2.0000      -0.401538       -10.9264
  58   2.0000      -0.382200       -10.4002
  59   2.0000      -0.359312        -9.7774
  60   2.0000      -0.355924        -9.6852
  61   2.0000      -0.332928        -9.0594
  62   2.0000      -0.325679        -8.8622
  63   2.0000      -0.310870        -8.4592
  64   2.0000      -0.306400        -8.3376
  65   2.0000      -0.279411        -7.6031
  66   2.0000      -0.273055        -7.4302
  67   2.0000      -0.265397        -7.2218
  68   2.0000      -0.250740        -6.8230
  69   2.0000      -0.238062        -6.4780
  70   2.0000      -0.230854        -6.2819
  71   2.0000      -0.226803        -6.1716
  72   2.0000      -0.197917        -5.3856
  73   2.0000      -0.187049        -5.0898
  74   2.0000      -0.180188        -4.9032
  75   2.0000      -0.170953        -4.6519
  76   2.0000      -0.166746        -4.5374
  77   2.0000      -0.156573        -4.2606
  78   2.0000      -0.152625        -4.1531
  79   2.0000      -0.108631        -2.9560
  80   2.0000      -0.106763        -2.9052
  81   2.0000      -0.099900        -2.7184
  82   0.0000       0.039992         1.0882
  83   0.0000       0.041031         1.1165
  84   0.0000       0.067671         1.8414
  85   0.0000       0.101399         2.7592
  86   0.0000       0.130191         3.5427

MULLIKEN ATOMIC CHARGES
-----------------------
   0 Pd:    0.220087
   1 Cl:   -0.343720
   2 Cl:   -0.667664
   3 Cl:   -0.352109
   4 N :   -0.564922
   5 C :    0.065450
   6 C :   -0.324773
   7 C :   -0.158344
   8 C :    0.394620
   9 C :    0.049080
  10 H :    0.212206
  11 H :    0.287897
  12 H :    0.223066
  13 C :    0.084507
  14 C :   -0.292153
  15 C :   -0.299566
  16 C :    0.129899
  17 H :    0.199519
  18 H :    0.199903
  19 C :   -0.370152
  20 C :   -0.296395
  21 C :   -0.218673
  22 C :   -0.209268
  23 H :    0.197109
  24 H :    0.205638
  25 H :    0.377070
  26 H :    0.251687
Sum of atomic charges:   -1.0000000

LOEWDIN ATOMIC CHARGES
----------------------
   0 Pd:   -0.838977
   1 Cl:   -0.072470
   2 Cl:   -0.594173
   3 Cl:   -0.076531
   4 N :    0.055509
   5 C :    0.021713
   6 C :   -0.155710
   7 C :   -0.086888
   8 C :    0.097322
   9 C :   -0.049455
  10 H :    0.136158
  11 H :    0.171897
  12 H :    0.142459
  13 C :    0.005051
  14 C :   -0.132078
  15 C :   -0.118331
  16 C :   -0.034187
  17 H :    0.132695
  18 H :    0.133062
  19 C :   -0.088166
  20 C :   -0.125831
  21 C :   -0.077679
  22 C :   -0.129271
  23 H :    0.129555
  24 H :    0.132172
  25 H :    0.260076
  26 H :    0.162081

  Mayer bond orders larger than 0.100000
B(  0-Pd,  1-Cl) :   0.9090 B(  0-Pd,  2-Cl) :   0.2506 B(  0-Pd,  3-Cl) :   0.8734
B(  0-Pd,  4-N ) :   0.4013 B(  0-Pd, 19-C ) :   0.2650 B(  2-Cl, 25-H ) :   0.2779
B(  4-N ,  5-C ) :   1.4895 B(  4-N ,  8-C ) :   1.1454 B(  5-C ,  6-C ) :   1.3033
B(  5-C , 11-H ) :   0.8730 B(  6-C ,  7-C ) :   1.4691 B(  6-C , 12-H ) :   0.9196
B(  7-C ,  9-C ) :   1.2700 B(  7-C , 10-H ) :   0.9285 B(  8-C ,  9-C ) :   1.2492
B(  8-C , 13-C ) :   1.1401 B(  9-C , 14-C ) :   1.1619 B( 13-C , 16-C ) :   1.3114
B( 13-C , 19-C ) :   1.1991 B( 14-C , 15-C ) :   1.6551 B( 14-C , 17-H ) :   0.9289
B( 15-C , 16-C ) :   1.1534 B( 15-C , 18-H ) :   0.9278 B( 16-C , 20-C ) :   1.2623
B( 19-C , 21-C ) :   1.4632 B( 19-C , 25-H ) :   0.5505 B( 20-C , 22-C ) :   1.4854
B( 20-C , 23-H ) :   0.9309 B( 21-C , 22-C ) :   1.3351 B( 21-C , 26-H ) :   0.9033
B( 22-C , 24-H ) :   0.9237

Dispersion correction           -0.024989385
FINAL SINGLE POINT ENERGY     -2061.490989943219
Dispersion correction            ... done

DIPOLE MOMENT
-------------
                                X             Y             Z
Electronic contribution:    -85.20322     -58.04603       8.84891
Nuclear contribution   :     87.42263      62.46802     -10.07265
                        -----------------------------------------
Total Dipole Moment    :      2.21942       4.42198      -1.22374
                        -----------------------------------------
Magnitude (a.u.)       :      5.09679
Magnitude (Debye)      :     12.95502

Rotational constants in cm-1:     0.011837     0.008483     0.006352
Rotational constants in MHz :   354.869186   254.327325   190.442615

                      ***********************HURRAY********************
                             ****ORCA TERMINATED NORMALLY****
TOTAL RUN TIME: 0 days 8 hours 0 minutes 6 seconds 636 msec
