                         Program Version 5.0.3 -  RELEASE  -
|  1> ! EnGrad PBEh-3c
|  2> %output
|  3> xyzfile=True
|  4> end
|  5> %scf
|  6> maxiter 250
|  7> end
|  8> %output
|  9> Print[P_Hirshfeld] = 1
| 10> end
| 11> % maxcore
| 12> 4000
| 13> *xyz 1 1
| 14> Sc   1.43574406  -1.00773080  -1.70940295
| 15> C    0.31893003  -0.54008800   0.21044189
| 16> N   -0.46237623  -1.35734291   0.93507173
| 17> C   -0.74965859  -0.79820606   2.14548654
| 18> C   -0.09362681   0.38116421   2.19431967
| 19> N    0.55700821   0.52149544   1.00585378
| 20> C    1.39803516   1.65513830   0.68473376
| 21> H    1.39882647   2.44793025   1.42882012
| 22> H    1.03315344   2.11541833  -0.22966852
| 23> H    2.43500023   1.35569551   0.55132772
| 24> C   -0.96754129  -2.66022268   0.54089265
| 25> H   -0.63849811  -2.89626330  -0.46744525
| 26> H   -2.05527001  -2.65244990   0.56203418
| 27> H   -0.60060226  -3.43072290   1.21496592
| 28> H   -1.37553453  -1.27174221   2.88266254
| 29> H   -0.07052928   1.10117469   2.99383719
| 30> C   -0.13650888   1.67218544  -2.87812557
| 31> H   -0.75188320   1.67543346  -3.78786804
| 32> H    0.43633602   2.60447165  -2.97018711
| 33> H   -0.81494198   1.80058227  -2.03040071
| 34> H   -0.29603760  -0.71591048  -3.27735469
| 35> *
| 36>
| 37>                          ****END OF INPUT****

CARTESIAN COORDINATES (ANGSTROEM)
---------------------------------
  Sc     1.435744   -1.007731   -1.709403
  C      0.318930   -0.540088    0.210442
  N     -0.462376   -1.357343    0.935072
  C     -0.749659   -0.798206    2.145487
  C     -0.093627    0.381164    2.194320
  N      0.557008    0.521495    1.005854
  C      1.398035    1.655138    0.684734
  H      1.398826    2.447930    1.428820
  H      1.033153    2.115418   -0.229669
  H      2.435000    1.355696    0.551328
  C     -0.967541   -2.660223    0.540893
  H     -0.638498   -2.896263   -0.467445
  H     -2.055270   -2.652450    0.562034
  H     -0.600602   -3.430723    1.214966
  H     -1.375535   -1.271742    2.882663
  H     -0.070529    1.101175    2.993837
  C     -0.136509    1.672185   -2.878126
  H     -0.751883    1.675433   -3.787868
  H      0.436336    2.604472   -2.970187
  H     -0.814942    1.800582   -2.030401
  H     -0.296038   -0.715910   -3.277355

 Total Charge           Charge          ....    1
 Multiplicity           Mult            ....    1
 Number of Electrons    NEL             ....   82
 Basis Dimension        Dim             ....  175

ORBITAL ENERGIES
----------------

  NO   OCC          E(Eh)            E(eV)
   0   2.0000    -162.878894     -4432.1600
   1   2.0000     -18.180102      -494.7057
   2   2.0000     -15.022363      -408.7793
   3   2.0000     -15.013131      -408.5281
   4   2.0000     -15.012400      -408.5082
   5   2.0000     -14.869758      -404.6267
   6   2.0000     -14.867913      -404.5765
   7   2.0000     -10.646684      -289.7110
   8   2.0000     -10.631342      -289.2935
   9   2.0000     -10.630283      -289.2647
  10   2.0000     -10.627463      -289.1880
  11   2.0000     -10.622407      -289.0504
  12   2.0000     -10.525283      -286.4075
  13   2.0000      -2.396179       -65.2033
  14   2.0000      -1.552590       -42.2481
  15   2.0000      -1.537905       -41.8485
  16   2.0000      -1.529399       -41.6171
  17   2.0000      -1.318336       -35.8737
  18   2.0000      -1.196057       -32.5464
  19   2.0000      -1.030105       -28.0306
  20   2.0000      -0.987289       -26.8655
  21   2.0000      -0.933562       -25.4035
  22   2.0000      -0.848826       -23.0977
  23   2.0000      -0.820091       -22.3158
  24   2.0000      -0.810829       -22.0638
  25   2.0000      -0.757873       -20.6228
  26   2.0000      -0.709741       -19.3130
  27   2.0000      -0.680680       -18.5222
  28   2.0000      -0.665787       -18.1170
  29   2.0000      -0.663380       -18.0515
  30   2.0000      -0.655067       -17.8253
  31   2.0000      -0.610887       -16.6231
  32   2.0000      -0.600259       -16.3339
  33   2.0000      -0.594533       -16.1781
  34   2.0000      -0.523899       -14.2560
  35   2.0000      -0.515251       -14.0207
  36   2.0000      -0.508406       -13.8344
  37   2.0000      -0.492510       -13.4019
  38   2.0000      -0.438291       -11.9265
  39   2.0000      -0.393614       -10.7108
  40   2.0000      -0.311327        -8.4716
  41   0.0000      -0.200997        -5.4694
  42   0.0000      -0.179505        -4.8846
  43   0.0000      -0.173181        -4.7125
  44   0.0000      -0.167623        -4.5613
  45   0.0000      -0.151343        -4.1183

MULLIKEN ATOMIC CHARGES
-----------------------
   0 Sc:    0.775995
   1 C :    0.218353
   2 N :   -0.417508
   3 C :   -0.071600
   4 C :   -0.061840
   5 N :   -0.418021
   6 C :   -0.551658
   7 H :    0.289989
   8 H :    0.305421
   9 H :    0.241046
  10 C :   -0.517070
  11 H :    0.240036
  12 H :    0.293341
  13 H :    0.274574
  14 H :    0.304405
  15 H :    0.306191
  16 C :   -0.822140
  17 H :    0.240269
  18 H :    0.207057
  19 H :    0.197287
  20 H :   -0.034128
Sum of atomic charges:    1.0000000

LOEWDIN ATOMIC CHARGES
----------------------
   0 Sc:    0.553560
   1 C :   -0.025392
   2 N :    0.005419
   3 C :   -0.087876
   4 C :   -0.075538
   5 N :    0.007805
   6 C :   -0.246489
   7 H :    0.162988
   8 H :    0.167655
   9 H :    0.137903
  10 C :   -0.229608
  11 H :    0.143424
  12 H :    0.162798
  13 H :    0.152189
  14 H :    0.168681
  15 H :    0.169224
  16 C :   -0.540387
  17 H :    0.136201
  18 H :    0.120308
  19 H :    0.114661
  20 H :    0.002473

  Mayer bond orders larger than 0.100000
B(  0-Sc,  1-C ) :   0.6681 B(  0-Sc, 16-C ) :   0.8288 B(  0-Sc, 20-H ) :   0.8855
B(  1-C ,  2-N ) :   1.2247 B(  1-C ,  5-N ) :   1.2254 B(  2-N ,  3-C ) :   1.1538
B(  2-N , 10-C ) :   0.9149 B(  3-C ,  4-C ) :   1.6323 B(  3-C , 14-H ) :   0.8773
B(  4-C ,  5-N ) :   1.1531 B(  4-C , 15-H ) :   0.8769 B(  5-N ,  6-C ) :   0.9085
B(  6-C ,  7-H ) :   0.8996 B(  6-C ,  8-H ) :   0.8712 B(  6-C ,  9-H ) :   0.9057
B( 10-C , 11-H ) :   0.9104 B( 10-C , 12-H ) :   0.8904 B( 10-C , 13-H ) :   0.8930
B( 16-C , 17-H ) :   0.9229 B( 16-C , 18-H ) :   0.9190 B( 16-C , 19-H ) :   0.9266
B( 16-C , 20-H ) :   0.1048

Dispersion correction           -0.011210221
FINAL SINGLE POINT ENERGY     -1104.309077047262
Dispersion correction            ... done

DIPOLE MOMENT
-------------
                                X             Y             Z
Electronic contribution:     10.39542      -9.45319      -1.74644
Nuclear contribution   :     -8.52606       7.93673       2.76514
                        -----------------------------------------
Total Dipole Moment    :      1.86937      -1.51645       1.01870
                        -----------------------------------------
Magnitude (a.u.)       :      2.61380
Magnitude (Debye)      :      6.64374

Rotational constants in cm-1:     0.046224     0.029299     0.022268
Rotational constants in MHz :  1385.757459   878.366196   667.563492

                             ****ORCA TERMINATED NORMALLY****
TOTAL RUN TIME: 0 days 0 hours 2 minutes 32 seconds 996 msec
