                         Program Version 5.0.3 -  RELEASE  -
|  1> ! EnGrad PBEh-3c
|  2> %output
|  3> xyzfile=True
|  4> end
|  5> %scf
|  6> maxiter 250
|  7> end
|  8> %output
|  9> Print[P_Hirshfeld] = 1
| 10> end
| 11> % maxcore
| 12> 4000
| 13> *xyz 1 1
| 14> Sc   1.24186480  -0.51711331  -1.90389595
| 15> C    0.39816366  -0.61187315   0.24562879
| 16> N   -0.45492558  -1.36836449   0.95271988
| 17> C   -0.79060647  -0.76194528   2.13025150
| 18> C   -0.13529819   0.41497114   2.16482681
| 19> N    0.58877354   0.48445673   1.01011120
| 20> C    1.41649482   1.60498618   0.61873467
| 21> H    1.46260791   2.32036498   1.44206813
| 22> H    1.00530520   2.12128661  -0.24518126
| 23> H    2.43807351   1.28369431   0.40857951
| 24> C   -0.96907073  -2.65866191   0.55089766
| 25> H   -0.59351337  -2.92645838  -0.43137011
| 26> H   -2.05517801  -2.62887005   0.49911293
| 27> H   -0.66351397  -3.42580330   1.26110657
| 28> H   -1.46142753  -1.20876243   2.83936737
| 29> H   -0.11591468   1.18607684   2.91501191
| 30> C   -0.18767649   1.43469484  -2.78406955
| 31> H   -0.81721852   1.48150403  -3.68001280
| 32> H    0.45224876   2.30240913  -2.87355263
| 33> H   -0.88437969   1.62236776  -1.96392733
| 34> H    0.13226360  -0.13907298  -3.15900619
| 35> *
| 36>
| 37>                          ****END OF INPUT****

CARTESIAN COORDINATES (ANGSTROEM)
---------------------------------
  Sc     1.241865   -0.517113   -1.903896
  C      0.398164   -0.611873    0.245629
  N     -0.454926   -1.368364    0.952720
  C     -0.790606   -0.761945    2.130251
  C     -0.135298    0.414971    2.164827
  N      0.588774    0.484457    1.010111
  C      1.416495    1.604986    0.618735
  H      1.462608    2.320365    1.442068
  H      1.005305    2.121287   -0.245181
  H      2.438074    1.283694    0.408580
  C     -0.969071   -2.658662    0.550898
  H     -0.593513   -2.926458   -0.431370
  H     -2.055178   -2.628870    0.499113
  H     -0.663514   -3.425803    1.261107
  H     -1.461428   -1.208762    2.839367
  H     -0.115915    1.186077    2.915012
  C     -0.187676    1.434695   -2.784070
  H     -0.817219    1.481504   -3.680013
  H      0.452249    2.302409   -2.873553
  H     -0.884380    1.622368   -1.963927
  H      0.132264   -0.139073   -3.159006

 Total Charge           Charge          ....    1
 Multiplicity           Mult            ....    1
 Number of Electrons    NEL             ....   82
 Basis Dimension        Dim             ....  175

ORBITAL ENERGIES
----------------

  NO   OCC          E(Eh)            E(eV)
   0   2.0000    -162.812489     -4430.3531
   1   2.0000     -18.115373      -492.9444
   2   2.0000     -14.958368      -407.0379
   3   2.0000     -14.949967      -406.8093
   4   2.0000     -14.944999      -406.6741
   5   2.0000     -14.859253      -404.3408
   6   2.0000     -14.858785      -404.3281
   7   2.0000     -10.636449      -289.4325
   8   2.0000     -10.627123      -289.1787
   9   2.0000     -10.624721      -289.1133
  10   2.0000     -10.620943      -289.0105
  11   2.0000     -10.619764      -288.9785
  12   2.0000     -10.528957      -286.5075
  13   2.0000      -2.346303       -63.8461
  14   2.0000      -1.506656       -40.9982
  15   2.0000      -1.492957       -40.6254
  16   2.0000      -1.481919       -40.3251
  17   2.0000      -1.310211       -35.6527
  18   2.0000      -1.188304       -32.3354
  19   2.0000      -1.026112       -27.9219
  20   2.0000      -0.979976       -26.6665
  21   2.0000      -0.928301       -25.2604
  22   2.0000      -0.850916       -23.1546
  23   2.0000      -0.841779       -22.9060
  24   2.0000      -0.804081       -21.8802
  25   2.0000      -0.750797       -20.4302
  26   2.0000      -0.703554       -19.1447
  27   2.0000      -0.675203       -18.3732
  28   2.0000      -0.659776       -17.9534
  29   2.0000      -0.657184       -17.8829
  30   2.0000      -0.650051       -17.6888
  31   2.0000      -0.604815       -16.4578
  32   2.0000      -0.598608       -16.2889
  33   2.0000      -0.592465       -16.1218
  34   2.0000      -0.546807       -14.8794
  35   2.0000      -0.539528       -14.6813
  36   2.0000      -0.510788       -13.8992
  37   2.0000      -0.486308       -13.2331
  38   2.0000      -0.483514       -13.1571
  39   2.0000      -0.431938       -11.7536
  40   2.0000      -0.310462        -8.4481
  41   0.0000      -0.177548        -4.8313
  42   0.0000      -0.154619        -4.2074
  43   0.0000      -0.135609        -3.6901
  44   0.0000      -0.125015        -3.4018
  45   0.0000      -0.118743        -3.2312

MULLIKEN ATOMIC CHARGES
-----------------------
   0 Sc:    0.713587
   1 C :    0.187115
   2 N :   -0.417343
   3 C :   -0.071302
   4 C :   -0.065424
   5 N :   -0.403200
   6 C :   -0.554430
   7 H :    0.290251
   8 H :    0.290889
   9 H :    0.246766
  10 C :   -0.512906
  11 H :    0.237008
  12 H :    0.278816
  13 H :    0.274819
  14 H :    0.300401
  15 H :    0.300656
  16 C :   -0.935979
  17 H :    0.267653
  18 H :    0.226771
  19 H :    0.230234
  20 H :    0.115618
Sum of atomic charges:    1.0000000

LOEWDIN ATOMIC CHARGES
----------------------
   0 Sc:    0.434181
   1 C :   -0.034631
   2 N :    0.001719
   3 C :   -0.087651
   4 C :   -0.080340
   5 N :   -0.001137
   6 C :   -0.240297
   7 H :    0.162891
   8 H :    0.159567
   9 H :    0.143207
  10 C :   -0.233462
  11 H :    0.141856
  12 H :    0.155116
  13 H :    0.152843
  14 H :    0.166977
  15 H :    0.166772
  16 C :   -0.552283
  17 H :    0.145726
  18 H :    0.133524
  19 H :    0.137215
  20 H :    0.128204

  Mayer bond orders larger than 0.100000
B(  0-Sc,  1-C ) :   0.6284 B(  0-Sc, 16-C ) :   0.7257 B(  0-Sc, 20-H ) :   0.7524
B(  1-C ,  2-N ) :   1.2386 B(  1-C ,  5-N ) :   1.2216 B(  2-N ,  3-C ) :   1.1501
B(  2-N , 10-C ) :   0.9206 B(  3-C ,  4-C ) :   1.6458 B(  3-C , 14-H ) :   0.8796
B(  4-C ,  5-N ) :   1.1395 B(  4-C , 15-H ) :   0.8788 B(  5-N ,  6-C ) :   0.9138
B(  6-C ,  7-H ) :   0.9020 B(  6-C ,  8-H ) :   0.8730 B(  6-C ,  9-H ) :   0.8981
B( 10-C , 11-H ) :   0.9185 B( 10-C , 12-H ) :   0.8953 B( 10-C , 13-H ) :   0.8961
B( 16-C , 17-H ) :   0.9034 B( 16-C , 18-H ) :   0.9045 B( 16-C , 19-H ) :   0.9070
B( 16-C , 20-H ) :   0.1995

Dispersion correction           -0.011142281
FINAL SINGLE POINT ENERGY     -1104.400631513638
Dispersion correction            ... done

DIPOLE MOMENT
-------------
                                X             Y             Z
Electronic contribution:      8.80117      -6.38029      -3.66807
Nuclear contribution   :     -7.34815       5.48431       3.86512
                        -----------------------------------------
Total Dipole Moment    :      1.45303      -0.89598       0.19705
                        -----------------------------------------
Magnitude (a.u.)       :      1.71840
Magnitude (Debye)      :      4.36782

Rotational constants in cm-1:     0.054755     0.029179     0.022626
Rotational constants in MHz :  1641.527166   874.772049   678.303641

                             ****ORCA TERMINATED NORMALLY****
TOTAL RUN TIME: 0 days 0 hours 2 minutes 29 seconds 988 msec
