                         Program Version 5.0.3 -  RELEASE  -
|  1> ! EnGrad PBEh-3c
|  2> %output
|  3> xyzfile=True
|  4> end
|  5> %scf
|  6> maxiter 250
|  7> end
|  8> %output
|  9> Print[P_Hirshfeld] = 1
| 10> end
| 11> % maxcore
| 12> 4000
| 13> *xyz 1 1
| 14> Sc   1.32837621  -0.94492364  -1.80827748
| 15> C    0.37317197  -0.56935515   0.21418635
| 16> N   -0.47330458  -1.35002966   0.93815525
| 17> C   -0.76082008  -0.79344864   2.15651649
| 18> C   -0.11867759   0.38303729   2.20061882
| 19> N    0.55271534   0.52252297   1.02683692
| 20> C    1.40987148   1.66485049   0.62925836
| 21> H    1.41073359   2.40777804   1.44853404
| 22> H    1.03043903   2.11728486  -0.23843358
| 23> H    2.43959553   1.33719387   0.51732360
| 24> C   -0.96772237  -2.65417841   0.54028828
| 25> H   -0.63488389  -2.90946496  -0.46245080
| 26> H   -2.05651852  -2.65313874   0.54193475
| 27> H   -0.61686747  -3.42781202   1.23159224
| 28> H   -1.39203360  -1.25979492   2.87228329
| 29> H   -0.08016742   1.12133044   2.97089474
| 30> C   -0.18247287   1.71088851  -2.85954473
| 31> H   -0.76747756   1.62973995  -3.76165217
| 32> H    0.43141353   2.58690317  -2.94428814
| 33> H   -0.81857423   1.75244343  -2.01555634
| 34> H   -0.10659279  -0.67027791  -3.19852802
| 35> *
| 36>
| 37>                          ****END OF INPUT****

CARTESIAN COORDINATES (ANGSTROEM)
---------------------------------
  Sc     1.328376   -0.944924   -1.808277
  C      0.373172   -0.569355    0.214186
  N     -0.473305   -1.350030    0.938155
  C     -0.760820   -0.793449    2.156516
  C     -0.118678    0.383037    2.200619
  N      0.552715    0.522523    1.026837
  C      1.409871    1.664850    0.629258
  H      1.410734    2.407778    1.448534
  H      1.030439    2.117285   -0.238434
  H      2.439596    1.337194    0.517324
  C     -0.967722   -2.654178    0.540288
  H     -0.634884   -2.909465   -0.462451
  H     -2.056519   -2.653139    0.541935
  H     -0.616867   -3.427812    1.231592
  H     -1.392034   -1.259795    2.872283
  H     -0.080167    1.121330    2.970895
  C     -0.182473    1.710889   -2.859545
  H     -0.767478    1.629740   -3.761652
  H      0.431414    2.586903   -2.944288
  H     -0.818574    1.752443   -2.015556
  H     -0.106593   -0.670278   -3.198528

 Total Charge           Charge          ....    1
 Multiplicity           Mult            ....    1
 Number of Electrons    NEL             ....   82
 Basis Dimension        Dim             ....  175

ORBITAL ENERGIES
----------------

  NO   OCC          E(Eh)            E(eV)
   0   2.0000    -162.876179     -4432.0861
   1   2.0000     -18.179531      -494.6902
   2   2.0000     -15.021139      -408.7460
   3   2.0000     -15.013547      -408.5394
   4   2.0000     -15.011194      -408.4754
   5   2.0000     -14.868926      -404.6040
   6   2.0000     -14.865196      -404.5025
   7   2.0000     -10.649090      -289.7765
   8   2.0000     -10.630466      -289.2697
   9   2.0000     -10.629892      -289.2541
  10   2.0000     -10.626075      -289.1502
  11   2.0000     -10.623096      -289.0691
  12   2.0000     -10.521756      -286.3115
  13   2.0000      -2.394732       -65.1640
  14   2.0000      -1.550770       -42.1986
  15   2.0000      -1.536859       -41.8201
  16   2.0000      -1.527394       -41.5625
  17   2.0000      -1.308988       -35.6194
  18   2.0000      -1.186441       -32.2847
  19   2.0000      -1.028812       -27.9954
  20   2.0000      -0.981188       -26.6995
  21   2.0000      -0.932481       -25.3741
  22   2.0000      -0.841973       -22.9112
  23   2.0000      -0.829594       -22.5744
  24   2.0000      -0.810399       -22.0521
  25   2.0000      -0.755639       -20.5620
  26   2.0000      -0.704545       -19.1716
  27   2.0000      -0.676430       -18.4066
  28   2.0000      -0.663254       -18.0481
  29   2.0000      -0.660104       -17.9623
  30   2.0000      -0.651993       -17.7416
  31   2.0000      -0.609694       -16.5906
  32   2.0000      -0.599336       -16.3088
  33   2.0000      -0.597678       -16.2637
  34   2.0000      -0.538901       -14.6643
  35   2.0000      -0.527016       -14.3408
  36   2.0000      -0.525028       -14.2867
  37   2.0000      -0.491240       -13.3673
  38   2.0000      -0.437704       -11.9105
  39   2.0000      -0.415280       -11.3003
  40   2.0000      -0.314134        -8.5480
  41   0.0000      -0.198175        -5.3926
  42   0.0000      -0.178324        -4.8524
  43   0.0000      -0.167046        -4.5455
  44   0.0000      -0.163003        -4.4355
  45   0.0000      -0.149360        -4.0643

MULLIKEN ATOMIC CHARGES
-----------------------
   0 Sc:    0.733299
   1 C :    0.197011
   2 N :   -0.423018
   3 C :   -0.062665
   4 C :   -0.053762
   5 N :   -0.436582
   6 C :   -0.531669
   7 H :    0.276123
   8 H :    0.311762
   9 H :    0.243399
  10 C :   -0.517508
  11 H :    0.235247
  12 H :    0.290454
  13 H :    0.274359
  14 H :    0.305243
  15 H :    0.303115
  16 C :   -0.810379
  17 H :    0.244555
  18 H :    0.213646
  19 H :    0.208605
  20 H :   -0.001237
Sum of atomic charges:    1.0000000

LOEWDIN ATOMIC CHARGES
----------------------
   0 Sc:    0.523215
   1 C :   -0.025180
   2 N :    0.002156
   3 C :   -0.086766
   4 C :   -0.071798
   5 N :   -0.003108
   6 C :   -0.234307
   7 H :    0.159458
   8 H :    0.164522
   9 H :    0.140437
  10 C :   -0.232377
  11 H :    0.140725
  12 H :    0.160743
  13 H :    0.152615
  14 H :    0.167957
  15 H :    0.167145
  16 C :   -0.517929
  17 H :    0.138616
  18 H :    0.123425
  19 H :    0.118654
  20 H :    0.011797

  Mayer bond orders larger than 0.100000
B(  0-Sc,  1-C ) :   0.6485 B(  0-Sc, 16-C ) :   0.8825 B(  0-Sc, 20-H ) :   0.9271
B(  1-C ,  2-N ) :   1.2251 B(  1-C ,  5-N ) :   1.2176 B(  2-N ,  3-C ) :   1.1469
B(  2-N , 10-C ) :   0.9192 B(  3-C ,  4-C ) :   1.6244 B(  3-C , 14-H ) :   0.8771
B(  4-C ,  5-N ) :   1.1608 B(  4-C , 15-H ) :   0.8790 B(  5-N ,  6-C ) :   0.8975
B(  6-C ,  7-H ) :   0.9073 B(  6-C ,  8-H ) :   0.8671 B(  6-C ,  9-H ) :   0.9073
B( 10-C , 11-H ) :   0.9129 B( 10-C , 12-H ) :   0.8904 B( 10-C , 13-H ) :   0.8936
B( 16-C , 17-H ) :   0.9243 B( 16-C , 18-H ) :   0.9233 B( 16-C , 19-H ) :   0.9245

Dispersion correction           -0.011079090
FINAL SINGLE POINT ENERGY     -1104.346955364296
Dispersion correction            ... done

DIPOLE MOMENT
-------------
                                X             Y             Z
Electronic contribution:      9.56563      -8.96936      -2.49664
Nuclear contribution   :     -7.82357       7.49396       3.35151
                        -----------------------------------------
Total Dipole Moment    :      1.74206      -1.47541       0.85487
                        -----------------------------------------
Magnitude (a.u.)       :      2.43771
Magnitude (Debye)      :      6.19616

Rotational constants in cm-1:     0.047255     0.029090     0.022003
Rotational constants in MHz :  1416.667880   872.105577   659.624462

                             ****ORCA TERMINATED NORMALLY****
TOTAL RUN TIME: 0 days 0 hours 2 minutes 57 seconds 225 msec
