                         Program Version 5.0.3 -  RELEASE  -
|  1> ! EnGrad PBEh-3c
|  2> %output
|  3> xyzfile=True
|  4> end
|  5> %scf
|  6> maxiter 250
|  7> end
|  8> %output
|  9> Print[P_Hirshfeld] = 1
| 10> end
| 11> % maxcore
| 12> 4000
| 13> *xyz 1 1
| 14> Sc   1.28042608  -0.91410023  -1.85449425
| 15> C    0.38933190  -0.57804170   0.23356673
| 16> N   -0.47057059  -1.34757057   0.93497795
| 17> C   -0.76744116  -0.79254917   2.15152220
| 18> C   -0.12580042   0.39076773   2.19970683
| 19> N    0.56164481   0.51847745   1.01593691
| 20> C    1.41394507   1.65858251   0.63527740
| 21> H    1.42043777   2.38428579   1.44983490
| 22> H    1.02255820   2.12568550  -0.25654536
| 23> H    2.44220062   1.32665099   0.49531069
| 24> C   -0.96952061  -2.65441866   0.54365618
| 25> H   -0.63098784  -2.91629900  -0.45897951
| 26> H   -2.05713860  -2.65297126   0.53075071
| 27> H   -0.62704189  -3.42422365   1.23904973
| 28> H   -1.40601749  -1.25548059   2.87072015
| 29> H   -0.08733138   1.13457204   2.96174687
| 30> C   -0.20421851   1.71437376  -2.85665666
| 31> H   -0.78036087   1.60798402  -3.75156188
| 32> H    0.43122081   2.58565981  -2.93063732
| 33> H   -0.82981325   1.72849920  -1.99601044
| 34> H   -0.00498808  -0.63768449  -3.15766906
| 35> *
| 36>
| 37>                          ****END OF INPUT****

CARTESIAN COORDINATES (ANGSTROEM)
---------------------------------
  Sc     1.280426   -0.914100   -1.854494
  C      0.389332   -0.578042    0.233567
  N     -0.470571   -1.347571    0.934978
  C     -0.767441   -0.792549    2.151522
  C     -0.125800    0.390768    2.199707
  N      0.561645    0.518477    1.015937
  C      1.413945    1.658583    0.635277
  H      1.420438    2.384286    1.449835
  H      1.022558    2.125685   -0.256545
  H      2.442201    1.326651    0.495311
  C     -0.969521   -2.654419    0.543656
  H     -0.630988   -2.916299   -0.458980
  H     -2.057139   -2.652971    0.530751
  H     -0.627042   -3.424224    1.239050
  H     -1.406017   -1.255481    2.870720
  H     -0.087331    1.134572    2.961747
  C     -0.204219    1.714374   -2.856657
  H     -0.780361    1.607984   -3.751562
  H      0.431221    2.585660   -2.930637
  H     -0.829813    1.728499   -1.996010
  H     -0.004988   -0.637684   -3.157669

 Total Charge           Charge          ....    1
 Multiplicity           Mult            ....    1
 Number of Electrons    NEL             ....   82
 Basis Dimension        Dim             ....  175

ORBITAL ENERGIES
----------------

  NO   OCC          E(Eh)            E(eV)
   0   2.0000    -162.871784     -4431.9665
   1   2.0000     -18.176189      -494.5993
   2   2.0000     -15.017542      -408.6481
   3   2.0000     -15.010810      -408.4649
   4   2.0000     -15.007276      -408.3688
   5   2.0000     -14.867459      -404.5641
   6   2.0000     -14.863867      -404.4664
   7   2.0000     -10.647120      -289.7229
   8   2.0000     -10.630878      -289.2809
   9   2.0000     -10.629652      -289.2475
  10   2.0000     -10.626571      -289.1637
  11   2.0000     -10.623296      -289.0746
  12   2.0000     -10.523049      -286.3467
  13   2.0000      -2.392660       -65.1076
  14   2.0000      -1.548381       -42.1336
  15   2.0000      -1.535382       -41.7799
  16   2.0000      -1.525791       -41.5189
  17   2.0000      -1.309676       -35.6381
  18   2.0000      -1.186538       -32.2874
  19   2.0000      -1.026948       -27.9447
  20   2.0000      -0.982604       -26.7380
  21   2.0000      -0.929901       -25.3039
  22   2.0000      -0.844031       -22.9672
  23   2.0000      -0.829019       -22.5588
  24   2.0000      -0.807389       -21.9702
  25   2.0000      -0.754330       -20.5264
  26   2.0000      -0.704004       -19.1569
  27   2.0000      -0.677389       -18.4327
  28   2.0000      -0.661229       -17.9929
  29   2.0000      -0.658502       -17.9188
  30   2.0000      -0.652612       -17.7585
  31   2.0000      -0.609159       -16.5761
  32   2.0000      -0.600680       -16.3453
  33   2.0000      -0.596006       -16.2181
  34   2.0000      -0.539475       -14.6799
  35   2.0000      -0.530760       -14.4427
  36   2.0000      -0.522219       -14.2103
  37   2.0000      -0.489266       -13.3136
  38   2.0000      -0.437573       -11.9070
  39   2.0000      -0.430090       -11.7034
  40   2.0000      -0.316304        -8.6071
  41   0.0000      -0.196946        -5.3592
  42   0.0000      -0.175387        -4.7725
  43   0.0000      -0.165236        -4.4963
  44   0.0000      -0.157422        -4.2837
  45   0.0000      -0.148538        -4.0419

MULLIKEN ATOMIC CHARGES
-----------------------
   0 Sc:    0.698567
   1 C :    0.200984
   2 N :   -0.421211
   3 C :   -0.064241
   4 C :   -0.060327
   5 N :   -0.431555
   6 C :   -0.530438
   7 H :    0.278585
   8 H :    0.304603
   9 H :    0.243276
  10 C :   -0.515829
  11 H :    0.230865
  12 H :    0.289903
  13 H :    0.276455
  14 H :    0.304826
  15 H :    0.302811
  16 C :   -0.807692
  17 H :    0.247652
  18 H :    0.213256
  19 H :    0.207481
  20 H :    0.032030
Sum of atomic charges:    1.0000000

LOEWDIN ATOMIC CHARGES
----------------------
   0 Sc:    0.520068
   1 C :   -0.031257
   2 N :    0.000586
   3 C :   -0.086334
   4 C :   -0.072032
   5 N :   -0.003654
   6 C :   -0.236153
   7 H :    0.158618
   8 H :    0.165818
   9 H :    0.140312
  10 C :   -0.231495
  11 H :    0.139006
  12 H :    0.160168
  13 H :    0.153281
  14 H :    0.168523
  15 H :    0.166611
  16 C :   -0.516365
  17 H :    0.138973
  18 H :    0.124748
  19 H :    0.119418
  20 H :    0.021161

  Mayer bond orders larger than 0.100000
B(  0-Sc,  1-C ) :   0.6456 B(  0-Sc, 16-C ) :   0.8940 B(  0-Sc, 20-H ) :   0.9339
B(  1-C ,  2-N ) :   1.2258 B(  1-C ,  5-N ) :   1.2305 B(  2-N ,  3-C ) :   1.1431
B(  2-N , 10-C ) :   0.9190 B(  3-C ,  4-C ) :   1.6394 B(  3-C , 14-H ) :   0.8771
B(  4-C ,  5-N ) :   1.1463 B(  4-C , 15-H ) :   0.8789 B(  5-N ,  6-C ) :   0.8988
B(  6-C ,  7-H ) :   0.9050 B(  6-C ,  8-H ) :   0.8707 B(  6-C ,  9-H ) :   0.9072
B( 10-C , 11-H ) :   0.9147 B( 10-C , 12-H ) :   0.8904 B( 10-C , 13-H ) :   0.8933
B( 16-C , 17-H ) :   0.9219 B( 16-C , 18-H ) :   0.9246 B( 16-C , 19-H ) :   0.9242

Dispersion correction           -0.011080807
FINAL SINGLE POINT ENERGY     -1104.363882830830
Dispersion correction            ... done

DIPOLE MOMENT
-------------
                                X             Y             Z
Electronic contribution:      9.16780      -8.82872      -2.87158
Nuclear contribution   :     -7.52482       7.31455       3.61573
                        -----------------------------------------
Total Dipole Moment    :      1.64298      -1.51417       0.74415
                        -----------------------------------------
Magnitude (a.u.)       :      2.35497
Magnitude (Debye)      :      5.98585

Rotational constants in cm-1:     0.047755     0.029004     0.021919
Rotational constants in MHz :  1431.661150   869.506005   657.113045

                             ****ORCA TERMINATED NORMALLY****
TOTAL RUN TIME: 0 days 0 hours 2 minutes 37 seconds 967 msec
