                         Program Version 5.0.3 -  RELEASE  -
|  1> ! EnGrad PBEh-3c
|  2> %output
|  3> xyzfile=True
|  4> end
|  5> %scf
|  6> maxiter 250
|  7> end
|  8> %output
|  9> Print[P_Hirshfeld] = 1
| 10> end
| 11> % maxcore
| 12> 4000
| 13> *xyz 1 1
| 14> Sc   1.25937505  -0.89227756  -1.87563251
| 15> C    0.39498989  -0.58086619   0.24751521
| 16> N   -0.46512097  -1.35081204   0.93365310
| 17> C   -0.77237022  -0.78727652   2.14330499
| 18> C   -0.12539039   0.39561029   2.18871203
| 19> N    0.57137923   0.51297474   1.00693476
| 20> C    1.41247466   1.64812333   0.64337837
| 21> H    1.42920523   2.36941142   1.44886155
| 22> H    1.01793812   2.13169493  -0.26646232
| 23> H    2.44305302   1.31880255   0.47761747
| 24> C   -0.97050523  -2.65594487   0.54547625
| 25> H   -0.62681765  -2.92067791  -0.45441096
| 26> H   -2.05813246  -2.65201134   0.52278444
| 27> H   -0.63492557  -3.42077326   1.24407372
| 28> H   -1.41886441  -1.25305564   2.87040068
| 29> H   -0.09383929   1.14719709   2.95866802
| 30> C   -0.21228135   1.70558664  -2.84943335
| 31> H   -0.79873079   1.59392395  -3.75601226
| 32> H    0.43087832   2.58220609  -2.92125353
| 33> H   -0.84348842   1.71180217  -1.97602388
| 34> H    0.06213610  -0.60107404  -3.13253710
| 35> *
| 36>
| 37>                          ****END OF INPUT****

CARTESIAN COORDINATES (ANGSTROEM)
---------------------------------
  Sc     1.259375   -0.892278   -1.875633
  C      0.394990   -0.580866    0.247515
  N     -0.465121   -1.350812    0.933653
  C     -0.772370   -0.787277    2.143305
  C     -0.125390    0.395610    2.188712
  N      0.571379    0.512975    1.006935
  C      1.412475    1.648123    0.643378
  H      1.429205    2.369411    1.448862
  H      1.017938    2.131695   -0.266462
  H      2.443053    1.318803    0.477617
  C     -0.970505   -2.655945    0.545476
  H     -0.626818   -2.920678   -0.454411
  H     -2.058132   -2.652011    0.522784
  H     -0.634926   -3.420773    1.244074
  H     -1.418864   -1.253056    2.870401
  H     -0.093839    1.147197    2.958668
  C     -0.212281    1.705587   -2.849433
  H     -0.798731    1.593924   -3.756012
  H      0.430878    2.582206   -2.921254
  H     -0.843488    1.711802   -1.976024
  H      0.062136   -0.601074   -3.132537

 Total Charge           Charge          ....    1
 Multiplicity           Mult            ....    1
 Number of Electrons    NEL             ....   82
 Basis Dimension        Dim             ....  175

ORBITAL ENERGIES
----------------

  NO   OCC          E(Eh)            E(eV)
   0   2.0000    -162.866682     -4431.8277
   1   2.0000     -18.171591      -494.4741
   2   2.0000     -15.012843      -408.5202
   3   2.0000     -15.006564      -408.3494
   4   2.0000     -15.002269      -408.2325
   5   2.0000     -14.866278      -404.5320
   6   2.0000     -14.863303      -404.4510
   7   2.0000     -10.644849      -289.6611
   8   2.0000     -10.630931      -289.2823
   9   2.0000     -10.629352      -289.2394
  10   2.0000     -10.626754      -289.1687
  11   2.0000     -10.623496      -289.0800
  12   2.0000     -10.526006      -286.4272
  13   2.0000      -2.389940       -65.0336
  14   2.0000      -1.545593       -42.0577
  15   2.0000      -1.533186       -41.7201
  16   2.0000      -1.523823       -41.4653
  17   2.0000      -1.312827       -35.7238
  18   2.0000      -1.189625       -32.3713
  19   2.0000      -1.026742       -27.9391
  20   2.0000      -0.984036       -26.7770
  21   2.0000      -0.929202       -25.2849
  22   2.0000      -0.845735       -23.0136
  23   2.0000      -0.824632       -22.4394
  24   2.0000      -0.806106       -21.9353
  25   2.0000      -0.753291       -20.4981
  26   2.0000      -0.705157       -19.1883
  27   2.0000      -0.677777       -18.4432
  28   2.0000      -0.660522       -17.9737
  29   2.0000      -0.657919       -17.9029
  30   2.0000      -0.653658       -17.7869
  31   2.0000      -0.608872       -16.5682
  32   2.0000      -0.601488       -16.3673
  33   2.0000      -0.593837       -16.1591
  34   2.0000      -0.536839       -14.6081
  35   2.0000      -0.528241       -14.3742
  36   2.0000      -0.517398       -14.0791
  37   2.0000      -0.488448       -13.2914
  38   2.0000      -0.439248       -11.9525
  39   2.0000      -0.436841       -11.8870
  40   2.0000      -0.317684        -8.6446
  41   0.0000      -0.196067        -5.3352
  42   0.0000      -0.172571        -4.6959
  43   0.0000      -0.163393        -4.4461
  44   0.0000      -0.153642        -4.1808
  45   0.0000      -0.147320        -4.0088

MULLIKEN ATOMIC CHARGES
-----------------------
   0 Sc:    0.682261
   1 C :    0.204492
   2 N :   -0.419347
   3 C :   -0.067354
   4 C :   -0.066913
   5 N :   -0.419489
   6 C :   -0.533859
   7 H :    0.281636
   8 H :    0.299779
   9 H :    0.242325
  10 C :   -0.514212
  11 H :    0.228290
  12 H :    0.289343
  13 H :    0.277991
  14 H :    0.303851
  15 H :    0.302563
  16 C :   -0.807517
  17 H :    0.245008
  18 H :    0.212897
  19 H :    0.204667
  20 H :    0.053589
Sum of atomic charges:    1.0000000

LOEWDIN ATOMIC CHARGES
----------------------
   0 Sc:    0.523270
   1 C :   -0.035857
   2 N :   -0.000103
   3 C :   -0.087241
   4 C :   -0.074983
   5 N :    0.000224
   6 C :   -0.238980
   7 H :    0.158577
   8 H :    0.166573
   9 H :    0.139960
  10 C :   -0.230717
  11 H :    0.137935
  12 H :    0.159984
  13 H :    0.153714
  14 H :    0.169469
  15 H :    0.167693
  16 C :   -0.521536
  17 H :    0.139510
  18 H :    0.125036
  19 H :    0.119265
  20 H :    0.028206

  Mayer bond orders larger than 0.100000
B(  0-Sc,  1-C ) :   0.6468 B(  0-Sc, 16-C ) :   0.8915 B(  0-Sc, 20-H ) :   0.9308
B(  1-C ,  2-N ) :   1.2263 B(  1-C ,  5-N ) :   1.2396 B(  2-N ,  3-C ) :   1.1415
B(  2-N , 10-C ) :   0.9190 B(  3-C ,  4-C ) :   1.6478 B(  3-C , 14-H ) :   0.8774
B(  4-C ,  5-N ) :   1.1405 B(  4-C , 15-H ) :   0.8786 B(  5-N ,  6-C ) :   0.9027
B(  6-C ,  7-H ) :   0.9026 B(  6-C ,  8-H ) :   0.8726 B(  6-C ,  9-H ) :   0.9071
B( 10-C , 11-H ) :   0.9158 B( 10-C , 12-H ) :   0.8907 B( 10-C , 13-H ) :   0.8931
B( 16-C , 17-H ) :   0.9214 B( 16-C , 18-H ) :   0.9235 B( 16-C , 19-H ) :   0.9234

Dispersion correction           -0.011081704
FINAL SINGLE POINT ENERGY     -1104.369999111889
Dispersion correction            ... done

DIPOLE MOMENT
-------------
                                X             Y             Z
Electronic contribution:      8.99217      -8.77166      -3.07098
Nuclear contribution   :     -7.40698       7.21726       3.74296
                        -----------------------------------------
Total Dipole Moment    :      1.58519      -1.55441       0.67198
                        -----------------------------------------
Magnitude (a.u.)       :      2.31960
Magnitude (Debye)      :      5.89596

Rotational constants in cm-1:     0.048170     0.029026     0.021947
Rotational constants in MHz :  1444.089438   870.178453   657.953088

                             ****ORCA TERMINATED NORMALLY****
TOTAL RUN TIME: 0 days 0 hours 2 minutes 48 seconds 960 msec
