                         Program Version 5.0.3 -  RELEASE  -
|  1> ! EnGrad PBEh-3c
|  2> %output
|  3> xyzfile=True
|  4> end
|  5> %scf
|  6> maxiter 250
|  7> end
|  8> %output
|  9> Print[P_Hirshfeld] = 1
| 10> end
| 11> % maxcore
| 12> 4000
| 13> *xyz 1 1
| 14> Sc   1.22667610  -0.85396374  -1.90696803
| 15> C    0.40984278  -0.59117823   0.25357823
| 16> N   -0.46127725  -1.35508783   0.93617446
| 17> C   -0.78214141  -0.78053164   2.13845553
| 18> C   -0.12794435   0.40423712   2.17954089
| 19> N    0.58000626   0.50735758   1.00712601
| 20> C    1.41335346   1.63841063   0.63229653
| 21> H    1.44040357   2.34922224   1.45309054
| 22> H    1.01527123   2.13545572  -0.27128071
| 23> H    2.44212383   1.30787359   0.45354205
| 24> C   -0.97113505  -2.65608152   0.54571532
| 25> H   -0.62118558  -2.92732297  -0.44800573
| 26> H   -2.05947554  -2.65046689   0.51130293
| 27> H   -0.64571590  -3.41711034   1.25248542
| 28> H   -1.43357578  -1.24650535   2.86540764
| 29> H   -0.10266922   1.16171078   2.94912519
| 30> C   -0.22568232   1.69714137  -2.83856988
| 31> H   -0.82144937   1.57201412  -3.75634547
| 32> H    0.42800860   2.56723379  -2.90687914
| 33> H   -0.85940220   1.68616663  -1.95274983
| 34> H    0.15754784  -0.54530321  -3.09721220
| 35> *
| 36>
| 37>                          ****END OF INPUT****

CARTESIAN COORDINATES (ANGSTROEM)
---------------------------------
  Sc     1.226676   -0.853964   -1.906968
  C      0.409843   -0.591178    0.253578
  N     -0.461277   -1.355088    0.936174
  C     -0.782141   -0.780532    2.138456
  C     -0.127944    0.404237    2.179541
  N      0.580006    0.507358    1.007126
  C      1.413353    1.638411    0.632297
  H      1.440404    2.349222    1.453091
  H      1.015271    2.135456   -0.271281
  H      2.442124    1.307874    0.453542
  C     -0.971135   -2.656082    0.545715
  H     -0.621186   -2.927323   -0.448006
  H     -2.059476   -2.650467    0.511303
  H     -0.645716   -3.417110    1.252485
  H     -1.433576   -1.246505    2.865408
  H     -0.102669    1.161711    2.949125
  C     -0.225682    1.697141   -2.838570
  H     -0.821449    1.572014   -3.756345
  H      0.428009    2.567234   -2.906879
  H     -0.859402    1.686167   -1.952750
  H      0.157548   -0.545303   -3.097212

 Total Charge           Charge          ....    1
 Multiplicity           Mult            ....    1
 Number of Electrons    NEL             ....   82
 Basis Dimension        Dim             ....  175

ORBITAL ENERGIES
----------------

  NO   OCC          E(Eh)            E(eV)
   0   2.0000    -162.856402     -4431.5480
   1   2.0000     -18.162175      -494.2179
   2   2.0000     -15.003205      -408.2580
   3   2.0000     -14.997718      -408.1087
   4   2.0000     -14.992164      -407.9575
   5   2.0000     -14.865203      -404.5027
   6   2.0000     -14.862288      -404.4234
   7   2.0000     -10.643545      -289.6256
   8   2.0000     -10.630118      -289.2602
   9   2.0000     -10.629134      -289.2334
  10   2.0000     -10.626630      -289.1653
  11   2.0000     -10.623211      -289.0723
  12   2.0000     -10.528484      -286.4946
  13   2.0000      -2.384869       -64.8956
  14   2.0000      -1.540426       -41.9171
  15   2.0000      -1.528884       -41.6030
  16   2.0000      -1.520927       -41.3865
  17   2.0000      -1.311746       -35.6944
  18   2.0000      -1.189700       -32.3734
  19   2.0000      -1.025744       -27.9119
  20   2.0000      -0.982717       -26.7411
  21   2.0000      -0.928573       -25.2678
  22   2.0000      -0.844623       -22.9834
  23   2.0000      -0.821985       -22.3673
  24   2.0000      -0.804936       -21.9034
  25   2.0000      -0.751733       -20.4557
  26   2.0000      -0.704394       -19.1675
  27   2.0000      -0.677417       -18.4335
  28   2.0000      -0.659613       -17.9490
  29   2.0000      -0.657873       -17.9016
  30   2.0000      -0.651935       -17.7401
  31   2.0000      -0.608071       -16.5465
  32   2.0000      -0.600088       -16.3292
  33   2.0000      -0.592587       -16.1251
  34   2.0000      -0.537340       -14.6218
  35   2.0000      -0.527184       -14.3454
  36   2.0000      -0.515481       -14.0270
  37   2.0000      -0.487663       -13.2700
  38   2.0000      -0.451756       -12.2929
  39   2.0000      -0.435149       -11.8410
  40   2.0000      -0.320079        -8.7098
  41   0.0000      -0.194991        -5.3060
  42   0.0000      -0.169671        -4.6170
  43   0.0000      -0.160576        -4.3695
  44   0.0000      -0.148583        -4.0432
  45   0.0000      -0.145456        -3.9581

MULLIKEN ATOMIC CHARGES
-----------------------
   0 Sc:    0.668958
   1 C :    0.202530
   2 N :   -0.418769
   3 C :   -0.069203
   4 C :   -0.067877
   5 N :   -0.414242
   6 C :   -0.533949
   7 H :    0.279709
   8 H :    0.298969
   9 H :    0.242964
  10 C :   -0.512978
  11 H :    0.225515
  12 H :    0.287669
  13 H :    0.278674
  14 H :    0.303259
  15 H :    0.302301
  16 C :   -0.809317
  17 H :    0.242440
  18 H :    0.215211
  19 H :    0.202849
  20 H :    0.075288
Sum of atomic charges:    1.0000000

LOEWDIN ATOMIC CHARGES
----------------------
   0 Sc:    0.527781
   1 C :   -0.037649
   2 N :   -0.001461
   3 C :   -0.087884
   4 C :   -0.076534
   5 N :    0.000785
   6 C :   -0.239427
   7 H :    0.158329
   8 H :    0.166060
   9 H :    0.140294
  10 C :   -0.231455
  11 H :    0.136532
  12 H :    0.159164
  13 H :    0.154057
  14 H :    0.169490
  15 H :    0.167974
  16 C :   -0.525822
  17 H :    0.140354
  18 H :    0.126023
  19 H :    0.119828
  20 H :    0.033563

  Mayer bond orders larger than 0.100000
B(  0-Sc,  1-C ) :   0.6448 B(  0-Sc, 16-C ) :   0.8872 B(  0-Sc, 20-H ) :   0.9245
B(  1-C ,  2-N ) :   1.2251 B(  1-C ,  5-N ) :   1.2388 B(  2-N ,  3-C ) :   1.1423
B(  2-N , 10-C ) :   0.9202 B(  3-C ,  4-C ) :   1.6453 B(  3-C , 14-H ) :   0.8777
B(  4-C ,  5-N ) :   1.1425 B(  4-C , 15-H ) :   0.8785 B(  5-N ,  6-C ) :   0.9045
B(  6-C ,  7-H ) :   0.9035 B(  6-C ,  8-H ) :   0.8723 B(  6-C ,  9-H ) :   0.9066
B( 10-C , 11-H ) :   0.9170 B( 10-C , 12-H ) :   0.8911 B( 10-C , 13-H ) :   0.8934
B( 16-C , 17-H ) :   0.9214 B( 16-C , 18-H ) :   0.9220 B( 16-C , 19-H ) :   0.9222

Dispersion correction           -0.011113643
FINAL SINGLE POINT ENERGY     -1104.372541318485
Dispersion correction            ... done

DIPOLE MOMENT
-------------
                                X             Y             Z
Electronic contribution:      8.70698      -8.60473      -3.39374
Nuclear contribution   :     -7.21185       7.02156       3.94130
                        -----------------------------------------
Total Dipole Moment    :      1.49513      -1.58318       0.54756
                        -----------------------------------------
Magnitude (a.u.)       :      2.24537
Magnitude (Debye)      :      5.70727

Rotational constants in cm-1:     0.048818     0.028997     0.021954
Rotational constants in MHz :  1463.513529   869.315000   658.174507

                             ****ORCA TERMINATED NORMALLY****
TOTAL RUN TIME: 0 days 0 hours 2 minutes 18 seconds 914 msec
