                         Program Version 5.0.3 -  RELEASE  -
|  1> ! EnGrad PBEh-3c
|  2> %output
|  3> xyzfile=True
|  4> end
|  5> %scf
|  6> maxiter 250
|  7> end
|  8> %output
|  9> Print[P_Hirshfeld] = 1
| 10> end
| 11> % maxcore
| 12> 4000
| 13> *xyz 1 1
| 14> Sc   1.22087969  -0.77543820  -1.90719442
| 15> C    0.41208733  -0.60405471   0.24911330
| 16> N   -0.44864058  -1.36417490   0.94635598
| 17> C   -0.79427155  -0.76485341   2.13051666
| 18> C   -0.12889786   0.41694107   2.17036013
| 19> N    0.59494842   0.49379139   1.00653482
| 20> C    1.41381084   1.62578103   0.62295927
| 21> H    1.45284839   2.32853440   1.45119516
| 22> H    1.01589481   2.13439203  -0.26547836
| 23> H    2.43407798   1.29706450   0.42678021
| 24> C   -0.97280960  -2.65779299   0.54640052
| 25> H   -0.61137253  -2.93312287  -0.44038443
| 26> H   -2.05986056  -2.64597652   0.50016424
| 27> H   -0.65695408  -3.41319087   1.25962060
| 28> H   -1.44863569  -1.23579208   2.85504031
| 29> H   -0.11346258   1.17458921   2.93549682
| 30> C   -0.23482358   1.64602851  -2.82377998
| 31> H   -0.83962812   1.54650264  -3.74924511
| 32> H    0.42830468   2.52919350  -2.88985788
| 33> H   -0.87887596   1.66145688  -1.92966929
| 34> H    0.21819913  -0.45537090  -3.09438619
| 35> *
| 36>
| 37>                          ****END OF INPUT****

CARTESIAN COORDINATES (ANGSTROEM)
---------------------------------
  Sc     1.220880   -0.775438   -1.907194
  C      0.412087   -0.604055    0.249113
  N     -0.448641   -1.364175    0.946356
  C     -0.794272   -0.764853    2.130517
  C     -0.128898    0.416941    2.170360
  N      0.594948    0.493791    1.006535
  C      1.413811    1.625781    0.622959
  H      1.452848    2.328534    1.451195
  H      1.015895    2.134392   -0.265478
  H      2.434078    1.297064    0.426780
  C     -0.972810   -2.657793    0.546401
  H     -0.611373   -2.933123   -0.440384
  H     -2.059861   -2.645977    0.500164
  H     -0.656954   -3.413191    1.259621
  H     -1.448636   -1.235792    2.855040
  H     -0.113463    1.174589    2.935497
  C     -0.234824    1.646029   -2.823780
  H     -0.839628    1.546503   -3.749245
  H      0.428305    2.529193   -2.889858
  H     -0.878876    1.661457   -1.929669
  H      0.218199   -0.455371   -3.094386

 Total Charge           Charge          ....    1
 Multiplicity           Mult            ....    1
 Number of Electrons    NEL             ....   82
 Basis Dimension        Dim             ....  175

ORBITAL ENERGIES
----------------

  NO   OCC          E(Eh)            E(eV)
   0   2.0000    -162.845349     -4431.2472
   1   2.0000     -18.151161      -493.9182
   2   2.0000     -14.992313      -407.9616
   3   2.0000     -14.986959      -407.8159
   4   2.0000     -14.980706      -407.6457
   5   2.0000     -14.864555      -404.4851
   6   2.0000     -14.862001      -404.4156
   7   2.0000     -10.642474      -289.5964
   8   2.0000     -10.629230      -289.2361
   9   2.0000     -10.628365      -289.2125
  10   2.0000     -10.626827      -289.1707
  11   2.0000     -10.622718      -289.0588
  12   2.0000     -10.529941      -286.5343
  13   2.0000      -2.377377       -64.6917
  14   2.0000      -1.533507       -41.7288
  15   2.0000      -1.522276       -41.4232
  16   2.0000      -1.514562       -41.2133
  17   2.0000      -1.311149       -35.6782
  18   2.0000      -1.189652       -32.3721
  19   2.0000      -1.025893       -27.9160
  20   2.0000      -0.982815       -26.7438
  21   2.0000      -0.928973       -25.2786
  22   2.0000      -0.844536       -22.9810
  23   2.0000      -0.819029       -22.2869
  24   2.0000      -0.804891       -21.9022
  25   2.0000      -0.751731       -20.4556
  26   2.0000      -0.704411       -19.1680
  27   2.0000      -0.677823       -18.4445
  28   2.0000      -0.659766       -17.9531
  29   2.0000      -0.658696       -17.9240
  30   2.0000      -0.651544       -17.7294
  31   2.0000      -0.607802       -16.5391
  32   2.0000      -0.600712       -16.3462
  33   2.0000      -0.592724       -16.1288
  34   2.0000      -0.532413       -14.4877
  35   2.0000      -0.525143       -14.2899
  36   2.0000      -0.515779       -14.0351
  37   2.0000      -0.487419       -13.2634
  38   2.0000      -0.456840       -12.4312
  39   2.0000      -0.434758       -11.8304
  40   2.0000      -0.322444        -8.7742
  41   0.0000      -0.191990        -5.2243
  42   0.0000      -0.166775        -4.5382
  43   0.0000      -0.156334        -4.2541
  44   0.0000      -0.144200        -3.9239
  45   0.0000      -0.141039        -3.8379

MULLIKEN ATOMIC CHARGES
-----------------------
   0 Sc:    0.683839
   1 C :    0.197661
   2 N :   -0.418550
   3 C :   -0.071855
   4 C :   -0.065322
   5 N :   -0.413196
   6 C :   -0.538793
   7 H :    0.281438
   8 H :    0.299550
   9 H :    0.242512
  10 C :   -0.511899
  11 H :    0.226220
  12 H :    0.286058
  13 H :    0.278710
  14 H :    0.302175
  15 H :    0.303618
  16 C :   -0.820746
  17 H :    0.242734
  18 H :    0.211097
  19 H :    0.201269
  20 H :    0.083479
Sum of atomic charges:    1.0000000

LOEWDIN ATOMIC CHARGES
----------------------
   0 Sc:    0.527032
   1 C :   -0.037054
   2 N :   -0.001012
   3 C :   -0.087182
   4 C :   -0.076864
   5 N :    0.000533
   6 C :   -0.240407
   7 H :    0.159364
   8 H :    0.165025
   9 H :    0.139589
  10 C :   -0.231553
  11 H :    0.136937
  12 H :    0.158372
  13 H :    0.154050
  14 H :    0.169138
  15 H :    0.168367
  16 C :   -0.535669
  17 H :    0.140634
  18 H :    0.125231
  19 H :    0.120137
  20 H :    0.045333

  Mayer bond orders larger than 0.100000
B(  0-Sc,  1-C ) :   0.6433 B(  0-Sc, 16-C ) :   0.8657 B(  0-Sc, 20-H ) :   0.9041
B(  1-C ,  2-N ) :   1.2291 B(  1-C ,  5-N ) :   1.2320 B(  2-N ,  3-C ) :   1.1460
B(  2-N , 10-C ) :   0.9196 B(  3-C ,  4-C ) :   1.6432 B(  3-C , 14-H ) :   0.8782
B(  4-C ,  5-N ) :   1.1411 B(  4-C , 15-H ) :   0.8776 B(  5-N ,  6-C ) :   0.9082
B(  6-C ,  7-H ) :   0.9036 B(  6-C ,  8-H ) :   0.8711 B(  6-C ,  9-H ) :   0.9058
B( 10-C , 11-H ) :   0.9183 B( 10-C , 12-H ) :   0.8918 B( 10-C , 13-H ) :   0.8942
B( 16-C , 17-H ) :   0.9195 B( 16-C , 18-H ) :   0.9218 B( 16-C , 19-H ) :   0.9201

Dispersion correction           -0.011170160
FINAL SINGLE POINT ENERGY     -1104.376357636666
Dispersion correction            ... done

DIPOLE MOMENT
-------------
                                X             Y             Z
Electronic contribution:      8.66642      -8.18726      -3.46712
Nuclear contribution   :     -7.18815       6.65918       3.95131
                        -----------------------------------------
Total Dipole Moment    :      1.47826      -1.52809       0.48418
                        -----------------------------------------
Magnitude (a.u.)       :      2.18054
Magnitude (Debye)      :      5.54249

Rotational constants in cm-1:     0.050094     0.029082     0.022178
Rotational constants in MHz :  1501.779228   871.866244   664.877596

                             ****ORCA TERMINATED NORMALLY****
TOTAL RUN TIME: 0 days 0 hours 2 minutes 41 seconds 633 msec
