                         Program Version 5.0.3 -  RELEASE  -
|  1> ! EnGrad PBEh-3c
|  2> %output
|  3> xyzfile=True
|  4> end
|  5> %scf
|  6> maxiter 250
|  7> end
|  8> %output
|  9> Print[P_Hirshfeld] = 1
| 10> end
| 11> % maxcore
| 12> 4000
| 13> *xyz 1 1
| 14> Sc   1.22747448  -0.67592114  -1.89676997
| 15> C    0.41159514  -0.61512693   0.24871589
| 16> N   -0.44045215  -1.37037367   0.95553817
| 17> C   -0.80170645  -0.74893827   2.12684099
| 18> C   -0.13519014   0.41828196   2.15997582
| 19> N    0.60476103   0.47979439   1.00570362
| 20> C    1.41663284   1.61684970   0.61787753
| 21> H    1.46380705   2.30822574   1.44588875
| 22> H    1.01455973   2.13159866  -0.25877650
| 23> H    2.42844528   1.28638112   0.40221211
| 24> C   -0.97318897  -2.65775090   0.54982107
| 25> H   -0.60049375  -2.93774312  -0.43478522
| 26> H   -2.05964472  -2.63971140   0.49088379
| 27> H   -0.66700972  -3.41243816   1.26562504
| 28> H   -1.46000685  -1.22143836   2.84126949
| 29> H   -0.12187521   1.18811134   2.92212837
| 30> C   -0.23806108   1.58109300  -2.80144373
| 31> H   -0.84897772   1.51809726  -3.72981452
| 32> H    0.42683950   2.46079254  -2.87348638
| 33> H   -0.89055578   1.63678764  -1.92408330
| 34> H    0.24743639  -0.34017570  -3.11252314
| 35> *
| 36>
| 37>                          ****END OF INPUT****

CARTESIAN COORDINATES (ANGSTROEM)
---------------------------------
  Sc     1.227474   -0.675921   -1.896770
  C      0.411595   -0.615127    0.248716
  N     -0.440452   -1.370374    0.955538
  C     -0.801706   -0.748938    2.126841
  C     -0.135190    0.418282    2.159976
  N      0.604761    0.479794    1.005704
  C      1.416633    1.616850    0.617878
  H      1.463807    2.308226    1.445889
  H      1.014560    2.131599   -0.258777
  H      2.428445    1.286381    0.402212
  C     -0.973189   -2.657751    0.549821
  H     -0.600494   -2.937743   -0.434785
  H     -2.059645   -2.639711    0.490884
  H     -0.667010   -3.412438    1.265625
  H     -1.460007   -1.221438    2.841269
  H     -0.121875    1.188111    2.922128
  C     -0.238061    1.581093   -2.801444
  H     -0.848978    1.518097   -3.729815
  H      0.426839    2.460793   -2.873486
  H     -0.890556    1.636788   -1.924083
  H      0.247436   -0.340176   -3.112523

 Total Charge           Charge          ....    1
 Multiplicity           Mult            ....    1
 Number of Electrons    NEL             ....   82
 Basis Dimension        Dim             ....  175

ORBITAL ENERGIES
----------------

  NO   OCC          E(Eh)            E(eV)
   0   2.0000    -162.834214     -4430.9442
   1   2.0000     -18.139449      -493.5995
   2   2.0000     -14.981035      -407.6547
   3   2.0000     -14.975269      -407.4978
   4   2.0000     -14.968697      -407.3190
   5   2.0000     -14.862299      -404.4237
   6   2.0000     -14.860806      -404.3831
   7   2.0000     -10.640622      -289.5461
   8   2.0000     -10.627910      -289.2001
   9   2.0000     -10.625649      -289.1386
  10   2.0000     -10.624617      -289.1105
  11   2.0000     -10.623800      -289.0883
  12   2.0000     -10.528563      -286.4968
  13   2.0000      -2.367916       -64.4343
  14   2.0000      -1.525235       -41.5038
  15   2.0000      -1.513715       -41.1903
  16   2.0000      -1.504930       -40.9512
  17   2.0000      -1.311568       -35.6896
  18   2.0000      -1.188464       -32.3398
  19   2.0000      -1.027296       -27.9541
  20   2.0000      -0.983138       -26.7526
  21   2.0000      -0.928799       -25.2739
  22   2.0000      -0.843976       -22.9657
  23   2.0000      -0.823679       -22.4134
  24   2.0000      -0.805350       -21.9147
  25   2.0000      -0.751726       -20.4555
  26   2.0000      -0.704498       -19.1704
  27   2.0000      -0.676929       -18.4202
  28   2.0000      -0.660161       -17.9639
  29   2.0000      -0.656237       -17.8571
  30   2.0000      -0.652906       -17.7665
  31   2.0000      -0.607308       -16.5257
  32   2.0000      -0.602677       -16.3997
  33   2.0000      -0.593281       -16.1440
  34   2.0000      -0.533731       -14.5236
  35   2.0000      -0.526318       -14.3219
  36   2.0000      -0.514986       -14.0135
  37   2.0000      -0.486430       -13.2364
  38   2.0000      -0.460614       -12.5339
  39   2.0000      -0.436324       -11.8730
  40   2.0000      -0.322751        -8.7825
  41   0.0000      -0.187814        -5.1107
  42   0.0000      -0.163135        -4.4391
  43   0.0000      -0.150513        -4.0957
  44   0.0000      -0.138911        -3.7799
  45   0.0000      -0.134517        -3.6604

MULLIKEN ATOMIC CHARGES
-----------------------
   0 Sc:    0.700034
   1 C :    0.193648
   2 N :   -0.419617
   3 C :   -0.070108
   4 C :   -0.064484
   5 N :   -0.412123
   6 C :   -0.543293
   7 H :    0.286154
   8 H :    0.298630
   9 H :    0.241619
  10 C :   -0.512156
  11 H :    0.228347
  12 H :    0.283494
  13 H :    0.277785
  14 H :    0.300852
  15 H :    0.302213
  16 C :   -0.844935
  17 H :    0.245808
  18 H :    0.211272
  19 H :    0.208121
  20 H :    0.088741
Sum of atomic charges:    1.0000000

LOEWDIN ATOMIC CHARGES
----------------------
   0 Sc:    0.512330
   1 C :   -0.035380
   2 N :   -0.001525
   3 C :   -0.085974
   4 C :   -0.077835
   5 N :   -0.001168
   6 C :   -0.239196
   7 H :    0.160665
   8 H :    0.163819
   9 H :    0.139327
  10 C :   -0.232483
  11 H :    0.138303
  12 H :    0.157058
  13 H :    0.153430
  14 H :    0.168429
  15 H :    0.168803
  16 C :   -0.542770
  17 H :    0.141555
  18 H :    0.125416
  19 H :    0.123081
  20 H :    0.064115

  Mayer bond orders larger than 0.100000
B(  0-Sc,  1-C ) :   0.6409 B(  0-Sc, 16-C ) :   0.8349 B(  0-Sc, 20-H ) :   0.8702
B(  1-C ,  2-N ) :   1.2366 B(  1-C ,  5-N ) :   1.2287 B(  2-N ,  3-C ) :   1.1412
B(  2-N , 10-C ) :   0.9201 B(  3-C ,  4-C ) :   1.6525 B(  3-C , 14-H ) :   0.8791
B(  4-C ,  5-N ) :   1.1339 B(  4-C , 15-H ) :   0.8782 B(  5-N ,  6-C ) :   0.9098
B(  6-C ,  7-H ) :   0.9026 B(  6-C ,  8-H ) :   0.8705 B(  6-C ,  9-H ) :   0.9046
B( 10-C , 11-H ) :   0.9193 B( 10-C , 12-H ) :   0.8928 B( 10-C , 13-H ) :   0.8949
B( 16-C , 17-H ) :   0.9179 B( 16-C , 18-H ) :   0.9201 B( 16-C , 19-H ) :   0.9160

Dispersion correction           -0.011195949
FINAL SINGLE POINT ENERGY     -1104.383855898775
Dispersion correction            ... done

DIPOLE MOMENT
-------------
                                X             Y             Z
Electronic contribution:      8.72995      -7.55844      -3.45402
Nuclear contribution   :     -7.23327       6.19293       3.86498
                        -----------------------------------------
Total Dipole Moment    :      1.49668      -1.36551       0.41096
                        -----------------------------------------
Magnitude (a.u.)       :      2.06726
Magnitude (Debye)      :      5.25455

Rotational constants in cm-1:     0.051746     0.029185     0.022462
Rotational constants in MHz :  1551.305764   874.945105   673.399184

                             ****ORCA TERMINATED NORMALLY****
TOTAL RUN TIME: 0 days 0 hours 2 minutes 23 seconds 746 msec
