                         Program Version 5.0.3 -  RELEASE  -
|  1> ! EnGrad PBEh-3c
|  2> %output
|  3> xyzfile=True
|  4> end
|  5> %scf
|  6> maxiter 250
|  7> end
|  8> %output
|  9> Print[P_Hirshfeld] = 1
| 10> end
| 11> % maxcore
| 12> 4000
| 13> *xyz 1 1
| 14> Sc   1.24290429  -0.61868061  -1.88769678
| 15> C    0.40588779  -0.61515277   0.24711558
| 16> N   -0.44575645  -1.37115346   0.95673358
| 17> C   -0.80336127  -0.76051418   2.12764290
| 18> C   -0.13171078   0.42756005   2.16370616
| 19> N    0.60092118   0.48089378   1.00721699
| 20> C    1.41558652   1.60881155   0.61630163
| 21> H    1.46403903   2.31289359   1.44538270
| 22> H    1.01210349   2.12770206  -0.25219388
| 23> H    2.43083891   1.28526021   0.40258800
| 24> C   -0.97040855  -2.65679767   0.54972344
| 25> H   -0.59748784  -2.93427389  -0.43268931
| 26> H   -2.05846964  -2.63516420   0.49324607
| 27> H   -0.66633990  -3.41742957   1.26480768
| 28> H   -1.45878588  -1.21394814   2.83672277
| 29> H   -0.12049661   1.18496520   2.91589200
| 30> C   -0.21838475   1.52987267  -2.79611908
| 31> H   -0.84015301   1.50668819  -3.71171004
| 32> H    0.43074879   2.39648696  -2.87245294
| 33> H   -0.89066331   1.63187556  -1.93776980
| 34> H    0.20438827  -0.26220834  -3.13672479
| 35> *
| 36>
| 37>                          ****END OF INPUT****

CARTESIAN COORDINATES (ANGSTROEM)
---------------------------------
  Sc     1.242904   -0.618681   -1.887697
  C      0.405888   -0.615153    0.247116
  N     -0.445756   -1.371153    0.956734
  C     -0.803361   -0.760514    2.127643
  C     -0.131711    0.427560    2.163706
  N      0.600921    0.480894    1.007217
  C      1.415587    1.608812    0.616302
  H      1.464039    2.312894    1.445383
  H      1.012103    2.127702   -0.252194
  H      2.430839    1.285260    0.402588
  C     -0.970409   -2.656798    0.549723
  H     -0.597488   -2.934274   -0.432689
  H     -2.058470   -2.635164    0.493246
  H     -0.666340   -3.417430    1.264808
  H     -1.458786   -1.213948    2.836723
  H     -0.120497    1.184965    2.915892
  C     -0.218385    1.529873   -2.796119
  H     -0.840153    1.506688   -3.711710
  H      0.430749    2.396487   -2.872453
  H     -0.890663    1.631876   -1.937770
  H      0.204388   -0.262208   -3.136725

 Total Charge           Charge          ....    1
 Multiplicity           Mult            ....    1
 Number of Electrons    NEL             ....   82
 Basis Dimension        Dim             ....  175

ORBITAL ENERGIES
----------------

  NO   OCC          E(Eh)            E(eV)
   0   2.0000    -162.827828     -4430.7705
   1   2.0000     -18.131974      -493.3961
   2   2.0000     -14.974144      -407.4672
   3   2.0000     -14.967407      -407.2839
   4   2.0000     -14.961339      -407.1187
   5   2.0000     -14.862544      -404.4304
   6   2.0000     -14.861588      -404.4044
   7   2.0000     -10.639371      -289.5120
   8   2.0000     -10.628375      -289.2128
   9   2.0000     -10.625385      -289.1314
  10   2.0000     -10.624881      -289.1177
  11   2.0000     -10.623734      -289.0865
  12   2.0000     -10.526425      -286.4386
  13   2.0000      -2.360454       -64.2312
  14   2.0000      -1.519050       -41.3354
  15   2.0000      -1.506673       -40.9986
  16   2.0000      -1.496149       -40.7123
  17   2.0000      -1.310914       -35.6718
  18   2.0000      -1.190482       -32.3947
  19   2.0000      -1.025541       -27.9064
  20   2.0000      -0.982567       -26.7370
  21   2.0000      -0.929540       -25.2941
  22   2.0000      -0.845407       -23.0047
  23   2.0000      -0.831851       -22.6358
  24   2.0000      -0.804563       -21.8933
  25   2.0000      -0.752931       -20.4883
  26   2.0000      -0.704567       -19.1722
  27   2.0000      -0.679518       -18.4906
  28   2.0000      -0.661603       -18.0031
  29   2.0000      -0.659550       -17.9473
  30   2.0000      -0.651171       -17.7193
  31   2.0000      -0.605259       -16.4699
  32   2.0000      -0.601670       -16.3723
  33   2.0000      -0.592488       -16.1224
  34   2.0000      -0.536707       -14.6045
  35   2.0000      -0.529020       -14.3954
  36   2.0000      -0.514070       -13.9886
  37   2.0000      -0.487333       -13.2610
  38   2.0000      -0.464531       -12.6405
  39   2.0000      -0.432766       -11.7762
  40   2.0000      -0.318576        -8.6689
  41   0.0000      -0.184001        -5.0069
  42   0.0000      -0.160522        -4.3680
  43   0.0000      -0.145617        -3.9624
  44   0.0000      -0.134170        -3.6510
  45   0.0000      -0.128727        -3.5028

MULLIKEN ATOMIC CHARGES
-----------------------
   0 Sc:    0.711431
   1 C :    0.188837
   2 N :   -0.416451
   3 C :   -0.073212
   4 C :   -0.066414
   5 N :   -0.407022
   6 C :   -0.550374
   7 H :    0.287815
   8 H :    0.297778
   9 H :    0.242883
  10 C :   -0.513927
  11 H :    0.232475
  12 H :    0.281901
  13 H :    0.276526
  14 H :    0.302402
  15 H :    0.304025
  16 C :   -0.874655
  17 H :    0.251556
  18 H :    0.217902
  19 H :    0.213033
  20 H :    0.093490
Sum of atomic charges:    1.0000000

LOEWDIN ATOMIC CHARGES
----------------------
   0 Sc:    0.489198
   1 C :   -0.036513
   2 N :    0.001864
   3 C :   -0.085456
   4 C :   -0.077655
   5 N :    0.000931
   6 C :   -0.240727
   7 H :    0.162137
   8 H :    0.162805
   9 H :    0.140238
  10 C :   -0.233443
  11 H :    0.139821
  12 H :    0.156641
  13 H :    0.153307
  14 H :    0.166789
  15 H :    0.167121
  16 C :   -0.548404
  17 H :    0.142218
  18 H :    0.126745
  19 H :    0.126496
  20 H :    0.085887

  Mayer bond orders larger than 0.100000
B(  0-Sc,  1-C ) :   0.6383 B(  0-Sc, 16-C ) :   0.7985 B(  0-Sc, 20-H ) :   0.8315
B(  1-C ,  2-N ) :   1.2333 B(  1-C ,  5-N ) :   1.2225 B(  2-N ,  3-C ) :   1.1546
B(  2-N , 10-C ) :   0.9207 B(  3-C ,  4-C ) :   1.6395 B(  3-C , 14-H ) :   0.8783
B(  4-C ,  5-N ) :   1.1423 B(  4-C , 15-H ) :   0.8771 B(  5-N ,  6-C ) :   0.9129
B(  6-C ,  7-H ) :   0.9026 B(  6-C ,  8-H ) :   0.8699 B(  6-C ,  9-H ) :   0.9019
B( 10-C , 11-H ) :   0.9188 B( 10-C , 12-H ) :   0.8936 B( 10-C , 13-H ) :   0.8953
B( 16-C , 17-H ) :   0.9148 B( 16-C , 18-H ) :   0.9154 B( 16-C , 19-H ) :   0.9148
B( 16-C , 20-H ) :   0.1307

Dispersion correction           -0.011184751
FINAL SINGLE POINT ENERGY     -1104.390751651089
Dispersion correction            ... done

DIPOLE MOMENT
-------------
                                X             Y             Z
Electronic contribution:      8.85634      -7.15029      -3.42545
Nuclear contribution   :     -7.33806       5.93873       3.79436
                        -----------------------------------------
Total Dipole Moment    :      1.51828      -1.21156       0.36891
                        -----------------------------------------
Magnitude (a.u.)       :      1.97715
Magnitude (Debye)      :      5.02552

Rotational constants in cm-1:     0.052785     0.029202     0.022572
Rotational constants in MHz :  1582.446668   875.446251   676.694350

                             ****ORCA TERMINATED NORMALLY****
TOTAL RUN TIME: 0 days 0 hours 2 minutes 35 seconds 889 msec
