                         Program Version 5.0.3 -  RELEASE  -
|  1> ! EnGrad PBEh-3c
|  2> %output
|  3> xyzfile=True
|  4> end
|  5> %scf
|  6> maxiter 250
|  7> end
|  8> %output
|  9> Print[P_Hirshfeld] = 1
| 10> end
| 11> % maxcore
| 12> 4000
| 13> *xyz 1 1
| 14> Sc   1.24528882  -0.56730459  -1.89363416
| 15> C    0.40143743  -0.61336762   0.24641933
| 16> N   -0.45181999  -1.36964066   0.95530540
| 17> C   -0.79366070  -0.75895645   2.12782977
| 18> C   -0.13473022   0.41728656   2.16300439
| 19> N    0.59358075   0.48365967   1.01006648
| 20> C    1.41596833   1.60655020   0.61732702
| 21> H    1.46280025   2.31786463   1.44381540
| 22> H    1.00867548   2.12413820  -0.24808348
| 23> H    2.43492400   1.28488483   0.40649586
| 24> C   -0.96935555  -2.65758888   0.55010822
| 25> H   -0.59566080  -2.92993220  -0.43208753
| 26> H   -2.05658702  -2.63169668   0.49678803
| 27> H   -0.66443864  -3.42217650   1.26264617
| 28> H   -1.46020092  -1.21172449   2.83860698
| 29> H   -0.11752407   1.18584708   2.91628532
| 30> C   -0.20176147   1.48036440  -2.79082793
| 31> H   -0.82745379   1.49494600  -3.69435092
| 32> H    0.44112555   2.34534295  -2.87364599
| 33> H   -0.88699389   1.62810803  -1.95323285
| 34> H    0.16263683  -0.19777022  -3.15036824
| 35> *
| 36>
| 37>                          ****END OF INPUT****

CARTESIAN COORDINATES (ANGSTROEM)
---------------------------------
  Sc     1.245289   -0.567305   -1.893634
  C      0.401437   -0.613368    0.246419
  N     -0.451820   -1.369641    0.955305
  C     -0.793661   -0.758956    2.127830
  C     -0.134730    0.417287    2.163004
  N      0.593581    0.483660    1.010066
  C      1.415968    1.606550    0.617327
  H      1.462800    2.317865    1.443815
  H      1.008675    2.124138   -0.248083
  H      2.434924    1.284885    0.406496
  C     -0.969356   -2.657589    0.550108
  H     -0.595661   -2.929932   -0.432088
  H     -2.056587   -2.631697    0.496788
  H     -0.664439   -3.422176    1.262646
  H     -1.460201   -1.211724    2.838607
  H     -0.117524    1.185847    2.916285
  C     -0.201761    1.480364   -2.790828
  H     -0.827454    1.494946   -3.694351
  H      0.441126    2.345343   -2.873646
  H     -0.886994    1.628108   -1.953233
  H      0.162637   -0.197770   -3.150368

 Total Charge           Charge          ....    1
 Multiplicity           Mult            ....    1
 Number of Electrons    NEL             ....   82
 Basis Dimension        Dim             ....  175

ORBITAL ENERGIES
----------------

  NO   OCC          E(Eh)            E(eV)
   0   2.0000    -162.820406     -4430.5685
   1   2.0000     -18.123772      -493.1729
   2   2.0000     -14.966403      -407.2565
   3   2.0000     -14.958802      -407.0497
   4   2.0000     -14.953253      -406.8987
   5   2.0000     -14.860647      -404.3788
   6   2.0000     -14.859874      -404.3577
   7   2.0000     -10.637972      -289.4739
   8   2.0000     -10.626449      -289.1604
   9   2.0000     -10.625861      -289.1444
  10   2.0000     -10.622189      -289.0445
  11   2.0000     -10.621715      -289.0316
  12   2.0000     -10.526506      -286.4408
  13   2.0000      -2.353238       -64.0349
  14   2.0000      -1.512805       -41.1655
  15   2.0000      -1.499697       -40.8088
  16   2.0000      -1.488644       -40.5081
  17   2.0000      -1.311121       -35.6774
  18   2.0000      -1.189471       -32.3672
  19   2.0000      -1.026898       -27.9433
  20   2.0000      -0.980876       -26.6910
  21   2.0000      -0.929215       -25.2852
  22   2.0000      -0.842772       -22.9330
  23   2.0000      -0.841155       -22.8890
  24   2.0000      -0.805097       -21.9078
  25   2.0000      -0.751662       -20.4538
  26   2.0000      -0.704273       -19.1642
  27   2.0000      -0.676365       -18.4048
  28   2.0000      -0.660384       -17.9700
  29   2.0000      -0.658117       -17.9083
  30   2.0000      -0.650697       -17.7064
  31   2.0000      -0.605580       -16.4787
  32   2.0000      -0.599734       -16.3196
  33   2.0000      -0.592828       -16.1317
  34   2.0000      -0.540657       -14.7120
  35   2.0000      -0.533786       -14.5251
  36   2.0000      -0.512035       -13.9332
  37   2.0000      -0.486553       -13.2398
  38   2.0000      -0.473551       -12.8860
  39   2.0000      -0.432946       -11.7811
  40   2.0000      -0.314615        -8.5611
  41   0.0000      -0.180651        -4.9158
  42   0.0000      -0.157647        -4.2898
  43   0.0000      -0.140579        -3.8254
  44   0.0000      -0.129477        -3.5232
  45   0.0000      -0.123375        -3.3572

MULLIKEN ATOMIC CHARGES
-----------------------
   0 Sc:    0.716406
   1 C :    0.187246
   2 N :   -0.416644
   3 C :   -0.071292
   4 C :   -0.065050
   5 N :   -0.404972
   6 C :   -0.552983
   7 H :    0.289020
   8 H :    0.294837
   9 H :    0.244643
  10 C :   -0.513507
  11 H :    0.235020
  12 H :    0.280270
  13 H :    0.275456
  14 H :    0.300803
  15 H :    0.301548
  16 C :   -0.906236
  17 H :    0.259520
  18 H :    0.222263
  19 H :    0.221253
  20 H :    0.102399
Sum of atomic charges:    1.0000000

LOEWDIN ATOMIC CHARGES
----------------------
   0 Sc:    0.464156
   1 C :   -0.034591
   2 N :    0.001844
   3 C :   -0.087263
   4 C :   -0.079554
   5 N :   -0.000295
   6 C :   -0.240605
   7 H :    0.162647
   8 H :    0.161305
   9 H :    0.141656
  10 C :   -0.233464
  11 H :    0.140961
  12 H :    0.155856
  13 H :    0.153018
  14 H :    0.167225
  15 H :    0.167294
  16 C :   -0.552131
  17 H :    0.143585
  18 H :    0.129518
  19 H :    0.131365
  20 H :    0.107471

  Mayer bond orders larger than 0.100000
B(  0-Sc,  1-C ) :   0.6340 B(  0-Sc, 16-C ) :   0.7616 B(  0-Sc, 20-H ) :   0.7918
B(  1-C ,  2-N ) :   1.2367 B(  1-C ,  5-N ) :   1.2219 B(  2-N ,  3-C ) :   1.1515
B(  2-N , 10-C ) :   0.9209 B(  3-C ,  4-C ) :   1.6439 B(  3-C , 14-H ) :   0.8793
B(  4-C ,  5-N ) :   1.1404 B(  4-C , 15-H ) :   0.8784 B(  5-N ,  6-C ) :   0.9136
B(  6-C ,  7-H ) :   0.9025 B(  6-C ,  8-H ) :   0.8711 B(  6-C ,  9-H ) :   0.8999
B( 10-C , 11-H ) :   0.9186 B( 10-C , 12-H ) :   0.8945 B( 10-C , 13-H ) :   0.8958
B( 16-C , 17-H ) :   0.9095 B( 16-C , 18-H ) :   0.9107 B( 16-C , 19-H ) :   0.9115
B( 16-C , 20-H ) :   0.1648

Dispersion correction           -0.011146425
FINAL SINGLE POINT ENERGY     -1104.396348308464
Dispersion correction            ... done

DIPOLE MOMENT
-------------
                                X             Y             Z
Electronic contribution:      8.86436      -6.76940      -3.53439
Nuclear contribution   :     -7.36099       5.71181       3.81858
                        -----------------------------------------
Total Dipole Moment    :      1.50338      -1.05759       0.28419
                        -----------------------------------------
Magnitude (a.u.)       :      1.85995
Magnitude (Debye)      :      4.72761

Rotational constants in cm-1:     0.053807     0.029198     0.022617
Rotational constants in MHz :  1613.087547   875.328870   678.052042

                             ****ORCA TERMINATED NORMALLY****
TOTAL RUN TIME: 0 days 0 hours 2 minutes 50 seconds 926 msec
