                         Program Version 5.0.3 -  RELEASE  -
|  1> ! EnGrad PBEh-3c
|  2> %output
|  3> xyzfile=True
|  4> end
|  5> %scf
|  6> maxiter 250
|  7> end
|  8> %output
|  9> Print[P_Hirshfeld] = 1
| 10> end
| 11> % maxcore
| 12> 4000
| 13> *xyz 1 1
| 14> Sc   1.23363955  -0.39654252  -1.92854709
| 15> C    0.39029933  -0.60828307   0.24372975
| 16> N   -0.46238590  -1.36529885   0.94650887
| 17> C   -0.78326950  -0.76912511   2.13606905
| 18> C   -0.13666257   0.40940897   2.16920468
| 19> N    0.57722555   0.48637144   1.01021863
| 20> C    1.41775956   1.60122906   0.62211616
| 21> H    1.46214587   2.32637136   1.43787078
| 22> H    0.99720901   2.11443645  -0.23820949
| 23> H    2.44563935   1.28083442   0.41358491
| 24> C   -0.96838655  -2.66123959   0.55279408
| 25> H   -0.58835477  -2.91811349  -0.42964670
| 26> H   -2.05179326  -2.62207985   0.50469785
| 27> H   -0.66129269  -3.43451570   1.25740810
| 28> H   -1.46437413  -1.20164690   2.84119400
| 29> H   -0.11204855   1.18662879   2.91195291
| 30> C   -0.15384119   1.32498625  -2.76783440
| 31> H   -0.79263110   1.44921339  -3.64556940
| 32> H    0.47896925   2.19927240  -2.87332837
| 33> H   -0.87809980   1.60857833  -1.98961789
| 34> H    0.05930026   0.00193105  -3.17975652
| 35> *
| 36>
| 37>                          ****END OF INPUT****

CARTESIAN COORDINATES (ANGSTROEM)
---------------------------------
  Sc     1.233640   -0.396543   -1.928547
  C      0.390299   -0.608283    0.243730
  N     -0.462386   -1.365299    0.946509
  C     -0.783269   -0.769125    2.136069
  C     -0.136663    0.409409    2.169205
  N      0.577226    0.486371    1.010219
  C      1.417760    1.601229    0.622116
  H      1.462146    2.326371    1.437871
  H      0.997209    2.114436   -0.238209
  H      2.445639    1.280834    0.413585
  C     -0.968387   -2.661240    0.552794
  H     -0.588355   -2.918113   -0.429647
  H     -2.051793   -2.622080    0.504698
  H     -0.661293   -3.434516    1.257408
  H     -1.464374   -1.201647    2.841194
  H     -0.112049    1.186629    2.911953
  C     -0.153841    1.324986   -2.767834
  H     -0.792631    1.449213   -3.645569
  H      0.478969    2.199272   -2.873328
  H     -0.878100    1.608578   -1.989618
  H      0.059300    0.001931   -3.179757

 Total Charge           Charge          ....    1
 Multiplicity           Mult            ....    1
 Number of Electrons    NEL             ....   82
 Basis Dimension        Dim             ....  175

ORBITAL ENERGIES
----------------

  NO   OCC          E(Eh)            E(eV)
   0   2.0000    -162.798433     -4429.9706
   1   2.0000     -18.101383      -492.5637
   2   2.0000     -14.944948      -406.6727
   3   2.0000     -14.934108      -406.3777
   4   2.0000     -14.932143      -406.3243
   5   2.0000     -14.857545      -404.2944
   6   2.0000     -14.857370      -404.2896
   7   2.0000     -10.633816      -289.3608
   8   2.0000     -10.628583      -289.2184
   9   2.0000     -10.623197      -289.0719
  10   2.0000     -10.619269      -288.9650
  11   2.0000     -10.615743      -288.8690
  12   2.0000     -10.545307      -286.9524
  13   2.0000      -2.335168       -63.5431
  14   2.0000      -1.496230       -40.7145
  15   2.0000      -1.482149       -40.3313
  16   2.0000      -1.471757       -40.0485
  17   2.0000      -1.309271       -35.6271
  18   2.0000      -1.186582       -32.2885
  19   2.0000      -1.025154       -27.8959
  20   2.0000      -0.978841       -26.6356
  21   2.0000      -0.926658       -25.2157
  22   2.0000      -0.888658       -24.1816
  23   2.0000      -0.840490       -22.8709
  24   2.0000      -0.802456       -21.8359
  25   2.0000      -0.749598       -20.3976
  26   2.0000      -0.702894       -19.1267
  27   2.0000      -0.673193       -18.3185
  28   2.0000      -0.659257       -17.9393
  29   2.0000      -0.655383       -17.8339
  30   2.0000      -0.649298       -17.6683
  31   2.0000      -0.603986       -16.4353
  32   2.0000      -0.596042       -16.2191
  33   2.0000      -0.593238       -16.1428
  34   2.0000      -0.584899       -15.9159
  35   2.0000      -0.561966       -15.2919
  36   2.0000      -0.528117       -14.3708
  37   2.0000      -0.499232       -13.5848
  38   2.0000      -0.484286       -13.1781
  39   2.0000      -0.430742       -11.7211
  40   2.0000      -0.299179        -8.1411
  41   0.0000      -0.170619        -4.6428
  42   0.0000      -0.149848        -4.0776
  43   0.0000      -0.125967        -3.4277
  44   0.0000      -0.118570        -3.2265
  45   0.0000      -0.112652        -3.0654

MULLIKEN ATOMIC CHARGES
-----------------------
   0 Sc:    0.661777
   1 C :    0.185372
   2 N :   -0.418322
   3 C :   -0.071001
   4 C :   -0.066001
   5 N :   -0.399318
   6 C :   -0.554604
   7 H :    0.291438
   8 H :    0.276653
   9 H :    0.257249
  10 C :   -0.512498
  11 H :    0.243783
  12 H :    0.275352
  13 H :    0.273918
  14 H :    0.299652
  15 H :    0.299124
  16 C :   -1.017076
  17 H :    0.296375
  18 H :    0.248142
  19 H :    0.259719
  20 H :    0.170266
Sum of atomic charges:    1.0000000

LOEWDIN ATOMIC CHARGES
----------------------
   0 Sc:    0.317099
   1 C :   -0.036580
   2 N :    0.002305
   3 C :   -0.087907
   4 C :   -0.081909
   5 N :   -0.002881
   6 C :   -0.239543
   7 H :    0.162510
   8 H :    0.153279
   9 H :    0.149520
  10 C :   -0.233689
  11 H :    0.144987
  12 H :    0.153431
  13 H :    0.152828
  14 H :    0.166679
  15 H :    0.165848
  16 C :   -0.535635
  17 H :    0.157276
  18 H :    0.151940
  19 H :    0.157952
  20 H :    0.182491

  Mayer bond orders larger than 0.100000
B(  0-Sc,  1-C ) :   0.6100 B(  0-Sc, 16-C ) :   0.6095 B(  0-Sc, 20-H ) :   0.6237
B(  1-C ,  2-N ) :   1.2442 B(  1-C ,  5-N ) :   1.2220 B(  2-N ,  3-C ) :   1.1483
B(  2-N , 10-C ) :   0.9192 B(  3-C ,  4-C ) :   1.6482 B(  3-C , 14-H ) :   0.8801
B(  4-C ,  5-N ) :   1.1386 B(  4-C , 15-H ) :   0.8795 B(  5-N ,  6-C ) :   0.9132
B(  6-C ,  7-H ) :   0.8999 B(  6-C ,  8-H ) :   0.8808 B(  6-C ,  9-H ) :   0.8926
B( 10-C , 11-H ) :   0.9172 B( 10-C , 12-H ) :   0.8971 B( 10-C , 13-H ) :   0.8966
B( 16-C , 17-H ) :   0.8811 B( 16-C , 18-H ) :   0.8778 B( 16-C , 19-H ) :   0.8902
B( 16-C , 20-H ) :   0.3257

Dispersion correction           -0.011173050
FINAL SINGLE POINT ENERGY     -1104.406333460297
Dispersion correction            ... done

DIPOLE MOMENT
-------------
                                X             Y             Z
Electronic contribution:      8.41519      -5.32022      -3.95509
Nuclear contribution   :     -7.31730       4.93778       3.97691
                        -----------------------------------------
Total Dipole Moment    :      1.09789      -0.38244       0.02182
                        -----------------------------------------
Magnitude (a.u.)       :      1.16279
Magnitude (Debye)      :      2.95558

Rotational constants in cm-1:     0.057007     0.029125     0.022611
Rotational constants in MHz :  1709.019935   873.132247   677.861918

                             ****ORCA TERMINATED NORMALLY****
TOTAL RUN TIME: 0 days 0 hours 3 minutes 10 seconds 800 msec
