                         Program Version 5.0.4 -  RELEASE  -
|  1> ! PBEh-3c OPT pal4
|  2>
|  3> %geom
|  4>  maxiter 600
|  5> end
|  6>
|  7> *xyzfile 0 1 reaction-0-prod-xtb.xyz
|  8>
|  9>                          ****END OF INPUT****
 Total Charge           Charge          ....    0
 Multiplicity           Mult            ....    1
 Number of Electrons    NEL             ....  106
Dispersion correction           -0.012709768
FINAL SINGLE POINT ENERGY      -737.124641201665
Dispersion correction            ... done
Dispersion correction           -0.012671156
FINAL SINGLE POINT ENERGY      -737.128010670944
Dispersion correction            ... done
Dispersion correction           -0.012607080
FINAL SINGLE POINT ENERGY      -737.131055799695
Dispersion correction            ... done
FINAL SINGLE POINT ENERGY      -737.132578721735
FINAL SINGLE POINT ENERGY      -737.133577217576
FINAL SINGLE POINT ENERGY      -737.134167383181
FINAL SINGLE POINT ENERGY      -737.134646964332
FINAL SINGLE POINT ENERGY      -737.135123668287
FINAL SINGLE POINT ENERGY      -737.135602767956
FINAL SINGLE POINT ENERGY      -737.135999508864
FINAL SINGLE POINT ENERGY      -737.137333915300
FINAL SINGLE POINT ENERGY      -737.137343430393
FINAL SINGLE POINT ENERGY      -737.137356222605
FINAL SINGLE POINT ENERGY      -737.137365514501
FINAL SINGLE POINT ENERGY      -737.137377817561
FINAL SINGLE POINT ENERGY      -737.137386111640
FINAL SINGLE POINT ENERGY      -737.137391828079
Dispersion correction            ... done
Dispersion correction           -0.012807436
FINAL SINGLE POINT ENERGY      -737.137391850922
Dispersion correction            ... done
Dispersion correction           -0.012808483
FINAL SINGLE POINT ENERGY      -737.137388456000
Dispersion correction            ... done
                    ***********************HURRAY********************

CARTESIAN COORDINATES (ANGSTROEM)
---------------------------------
  C     -1.265303    0.068942   -1.022408
  C     -2.328927   -0.824344   -1.089912
  C     -2.230220   -2.077411   -0.506004
  C     -1.056147   -2.437340    0.140068
  C     -0.085540   -0.288360   -0.374399
  C      0.012033   -1.552523    0.202433
  H     -1.365400    1.034490   -1.504556
  H     -3.234329   -0.538472   -1.610933
  H     -3.057621   -2.772730   -0.562766
  H      0.927344   -1.866080    0.689362
  H     -0.963878   -3.418446    0.589098
  Pd     1.448400    0.900536   -0.311641
  O      3.595046    1.580689   -0.464822
  O      2.873872   -0.460527   -0.782162
  O      0.188898    2.469442    0.210139
  C     -0.338400    2.587552    1.290111
  O     -0.106486    1.766801    2.278931
  H     -0.622756    1.984772    3.063007
  C      3.812444    0.390755   -0.744371
  H      4.830853    0.037754   -0.967526
  H     -1.033814    3.414482    1.478371

 Multiplicity           Mult            ....    1
 Number of Electrons    NEL             ....  106
 Basis Dimension        Dim             ....  227

ORBITAL ENERGIES
----------------

  NO   OCC          E(Eh)            E(eV)
   0   2.0000     -19.612104      -533.6725
   1   2.0000     -19.574875      -532.6594
   2   2.0000     -19.487573      -530.2838
   3   2.0000     -19.470752      -529.8261
   4   2.0000     -10.648381      -289.7572
   5   2.0000     -10.547386      -287.0090
   6   2.0000     -10.442846      -284.1643
   7   2.0000     -10.435489      -283.9641
   8   2.0000     -10.433643      -283.9139
   9   2.0000     -10.432751      -283.8896
  10   2.0000     -10.431667      -283.8601
  11   2.0000     -10.428836      -283.7831
  12   2.0000      -3.638704       -99.0142
  13   2.0000      -2.287916       -62.2574
  14   2.0000      -2.282440       -62.1084
  15   2.0000      -2.252291       -61.2879
  16   2.0000      -1.297729       -35.3130
  17   2.0000      -1.210740       -32.9459
  18   2.0000      -1.181662       -32.1547
  19   2.0000      -1.072414       -29.1819
  20   2.0000      -0.939205       -25.5571
  21   2.0000      -0.822432       -22.3795
  22   2.0000      -0.816785       -22.2258
  23   2.0000      -0.784674       -21.3521
  24   2.0000      -0.722724       -19.6663
  25   2.0000      -0.666402       -18.1337
  26   2.0000      -0.657431       -17.8896
  27   2.0000      -0.652255       -17.7488
  28   2.0000      -0.620087       -16.8734
  29   2.0000      -0.581701       -15.8289
  30   2.0000      -0.568246       -15.4627
  31   2.0000      -0.545516       -14.8442
  32   2.0000      -0.520095       -14.1525
  33   2.0000      -0.514827       -14.0091
  34   2.0000      -0.499743       -13.5987
  35   2.0000      -0.497861       -13.5475
  36   2.0000      -0.485739       -13.2176
  37   2.0000      -0.466824       -12.7029
  38   2.0000      -0.454298       -12.3621
  39   2.0000      -0.445633       -12.1263
  40   2.0000      -0.441845       -12.0232
  41   2.0000      -0.412486       -11.2243
  42   2.0000      -0.387010       -10.5311
  43   2.0000      -0.376678       -10.2499
  44   2.0000      -0.371825       -10.1179
  45   2.0000      -0.354904        -9.6574
  46   2.0000      -0.344745        -9.3810
  47   2.0000      -0.325781        -8.8650
  48   2.0000      -0.312844        -8.5129
  49   2.0000      -0.301952        -8.2165
  50   2.0000      -0.282203        -7.6791
  51   2.0000      -0.275249        -7.4899
  52   2.0000      -0.262221        -7.1354
  53   0.0000      -0.026369        -0.7175
  54   0.0000      -0.008625        -0.2347
  55   0.0000       0.032285         0.8785
  56   0.0000       0.033378         0.9083
  57   0.0000       0.051682         1.4063

MULLIKEN ATOMIC CHARGES
-----------------------
   0 C :   -0.269625
   1 C :   -0.220681
   2 C :   -0.231694
   3 C :   -0.221927
   4 C :   -0.091027
   5 C :   -0.233942
   6 H :    0.222785
   7 H :    0.209272
   8 H :    0.210837
   9 H :    0.234918
  10 H :    0.212128
  11 Pd:    0.356283
  12 O :   -0.468596
  13 O :   -0.486993
  14 O :   -0.371050
  15 C :    0.390473
  16 O :   -0.496215
  17 H :    0.469370
  18 C :    0.378635
  19 H :    0.179248
  20 H :    0.227801
Sum of atomic charges:   -0.0000000

LOEWDIN ATOMIC CHARGES
----------------------
   0 C :   -0.134686
   1 C :   -0.136509
   2 C :   -0.149841
   3 C :   -0.132279
   4 C :   -0.005018
   5 C :   -0.110380
   6 H :    0.146698
   7 H :    0.131886
   8 H :    0.132027
   9 H :    0.156897
  10 H :    0.133561
  11 Pd:   -0.316600
  12 O :   -0.209559
  13 O :   -0.169324
  14 O :   -0.034064
  15 C :    0.180236
  16 O :   -0.204585
  17 H :    0.353706
  18 C :    0.134719
  19 H :    0.106572
  20 H :    0.126543

  Mayer bond orders larger than 0.100000
B(  0-C ,  1-C ) :   1.4191 B(  0-C ,  4-C ) :   1.3805 B(  0-C ,  6-H ) :   0.9124
B(  1-C ,  2-C ) :   1.4329 B(  1-C ,  7-H ) :   0.9208 B(  2-C ,  3-C ) :   1.4207
B(  2-C ,  8-H ) :   0.9221 B(  3-C ,  5-C ) :   1.4211 B(  3-C , 10-H ) :   0.9204
B(  4-C ,  5-C ) :   1.3786 B(  4-C , 11-Pd) :   0.9384 B(  5-C ,  9-H ) :   0.9106
B( 11-Pd, 12-O ) :   0.3438 B( 11-Pd, 13-O ) :   0.5467 B( 11-Pd, 14-O ) :   0.3541
B( 12-O , 13-O ) :   0.1166 B( 12-O , 18-C ) :   1.6186 B( 13-O , 18-C ) :   1.4204
B( 14-O , 15-C ) :   1.7824 B( 15-C , 16-O ) :   1.2077 B( 15-C , 20-H ) :   0.8720
B( 16-O , 17-H ) :   0.7394 B( 18-C , 19-H ) :   0.8855

Dispersion correction           -0.012809348
FINAL SINGLE POINT ENERGY      -737.137386140381

DIPOLE MOMENT
-------------
                                X             Y             Z
Electronic contribution:     53.01933      35.26574     -11.73936
Nuclear contribution   :    -54.78126     -33.91847      13.80693
                        -----------------------------------------
Total Dipole Moment    :     -1.76193       1.34727       2.06756
                        -----------------------------------------
Magnitude (a.u.)       :      3.03222
Magnitude (Debye)      :      7.70728

Rotational constants in cm-1:     0.030836     0.016460     0.012495
Rotational constants in MHz :   924.430741   493.465839   374.593627

                             ****ORCA TERMINATED NORMALLY****
TOTAL RUN TIME: 0 days 0 hours 28 minutes 14 seconds 680 msec
