                         Program Version 5.0.3 -  RELEASE  -
|  1> ! EnGrad PBEh-3c
|  2> %output
|  3> xyzfile=True
|  4> end
|  5> %scf
|  6> maxiter 250
|  7> end
|  8> %output
|  9> Print[P_Hirshfeld] = 1
| 10> end
| 11> % maxcore
| 12> 4000
| 13> *xyz -1 1
| 14> Pt  -1.01082899  -0.88654805   0.54341561
| 15> Cl  -0.26825544  -0.60098522   2.74825688
| 16> Cl  -2.72043398  -2.31240685   1.17075938
| 17> Cl  -1.65178650  -1.07569549  -1.70185811
| 18> C    1.04927621   1.03238872  -0.60517839
| 19> H    1.45465544   1.89963212  -0.08366866
| 20> H    1.33029486  -0.07265012   0.37782152
| 21> H    1.72305820   0.71483122  -1.39730283
| 22> H    0.09402021   1.30142778  -1.05223718
| 23> *
| 24>
| 25>                          ****END OF INPUT****

CARTESIAN COORDINATES (ANGSTROEM)
---------------------------------
  Pt    -1.010829   -0.886548    0.543416
  Cl    -0.268255   -0.600985    2.748257
  Cl    -2.720434   -2.312407    1.170759
  Cl    -1.651787   -1.075695   -1.701858
  C      1.049276    1.032389   -0.605178
  H      1.454655    1.899632   -0.083669
  H      1.330295   -0.072650    0.377822
  H      1.723058    0.714831   -1.397303
  H      0.094020    1.301428   -1.052237

 Total Charge           Charge          ....   -1
 Multiplicity           Mult            ....    1
 Number of Electrons    NEL             ....   80
 Basis Dimension        Dim             ....  109

ORBITAL ENERGIES
----------------

  NO   OCC          E(Eh)            E(eV)
   0   2.0000    -102.109974     -2778.5537
   1   2.0000    -102.088405     -2777.9667
   2   2.0000    -102.088058     -2777.9573
   3   2.0000     -10.359719      -281.9023
   4   2.0000      -9.573095      -260.4971
   5   2.0000      -9.552240      -259.9297
   6   2.0000      -9.551875      -259.9197
   7   2.0000      -7.260567      -197.5701
   8   2.0000      -7.253297      -197.3722
   9   2.0000      -7.252980      -197.3636
  10   2.0000      -7.238123      -196.9593
  11   2.0000      -7.237802      -196.9506
  12   2.0000      -7.233255      -196.8269
  13   2.0000      -7.233143      -196.8238
  14   2.0000      -7.232851      -196.8159
  15   2.0000      -7.232783      -196.8140
  16   2.0000      -3.941422      -107.2515
  17   2.0000      -2.156513       -58.6817
  18   2.0000      -2.155078       -58.6426
  19   2.0000      -2.118421       -57.6452
  20   2.0000      -0.697965       -18.9926
  21   2.0000      -0.683012       -18.5857
  22   2.0000      -0.674648       -18.3581
  23   2.0000      -0.665622       -18.1125
  24   2.0000      -0.363224        -9.8838
  25   2.0000      -0.358983        -9.7684
  26   2.0000      -0.303077        -8.2471
  27   2.0000      -0.280134        -7.6228
  28   2.0000      -0.263625        -7.1736
  29   2.0000      -0.254586        -6.9276
  30   2.0000      -0.227053        -6.1784
  31   2.0000      -0.220328        -5.9954
  32   2.0000      -0.198957        -5.4139
  33   2.0000      -0.178397        -4.8544
  34   2.0000      -0.173266        -4.7148
  35   2.0000      -0.155005        -4.2179
  36   2.0000      -0.144210        -3.9242
  37   2.0000      -0.138739        -3.7753
  38   2.0000      -0.128944        -3.5088
  39   2.0000      -0.116551        -3.1715
  40   0.0000       0.067484         1.8363
  41   0.0000       0.152543         4.1509
  42   0.0000       0.195348         5.3157
  43   0.0000       0.217997         5.9320
  44   0.0000       0.263832         7.1792

MULLIKEN ATOMIC CHARGES
-----------------------
   0 Pt:    0.116211
   1 Cl:   -0.437845
   2 Cl:   -0.324461
   3 Cl:   -0.440530
   4 C :   -0.851840
   5 H :    0.224175
   6 H :    0.198274
   7 H :    0.232134
   8 H :    0.283882
Sum of atomic charges:   -1.0000000

LOEWDIN ATOMIC CHARGES
----------------------
   0 Pt:   -0.863551
   1 Cl:   -0.150284
   2 Cl:   -0.017016
   3 Cl:   -0.150767
   4 C :   -0.458440
   5 H :    0.126285
   6 H :    0.206529
   7 H :    0.130018
   8 H :    0.177227

  Mayer bond orders larger than 0.100000
B(  0-Pt,  1-Cl) :   0.7965 B(  0-Pt,  2-Cl) :   0.9791 B(  0-Pt,  3-Cl) :   0.7887
B(  0-Pt,  4-C ) :   0.1142 B(  1-Cl,  3-Cl) :   0.1109 B(  4-C ,  5-H ) :   0.9123
B(  4-C ,  6-H ) :   0.8440 B(  4-C ,  7-H ) :   0.9129 B(  4-C ,  8-H ) :   0.8887

Dispersion correction           -0.005052470
FINAL SINGLE POINT ENERGY     -1538.987381913477
Dispersion correction            ... done

DIPOLE MOMENT
-------------
                                X             Y             Z
Electronic contribution:      2.03368       0.14967       3.06072
Nuclear contribution   :     -0.88837       0.83514      -3.59443
                        -----------------------------------------
Total Dipole Moment    :      1.14532       0.98481      -0.53371
                        -----------------------------------------
Magnitude (a.u.)       :      1.60201
Magnitude (Debye)      :      4.07200

Rotational constants in cm-1:     0.050057     0.042567     0.023148
Rotational constants in MHz :  1500.680966  1276.140340   693.969301

                             ****ORCA TERMINATED NORMALLY****
TOTAL RUN TIME: 0 days 0 hours 0 minutes 38 seconds 84 msec
