                         Program Version 5.0.3 -  RELEASE  -
|  1> ! EnGrad PBEh-3c
|  2> %output
|  3> xyzfile=True
|  4> end
|  5> %scf
|  6> maxiter 250
|  7> end
|  8> %output
|  9> Print[P_Hirshfeld] = 1
| 10> end
| 11> % maxcore
| 12> 4000
| 13> *xyz -1 1
| 14> Pt  -1.01232849  -0.90814388   0.54446736
| 15> Cl  -0.26116280  -0.56932508   2.71662638
| 16> Cl  -2.66804102  -2.24496745   1.15553576
| 17> Cl  -1.60420798  -1.08093794  -1.69198779
| 18> C    1.13112115   0.88048960  -0.45753596
| 19> H    1.45178931   1.85773405  -0.05256822
| 20> H    1.21406388   0.05817825   0.18476991
| 21> H    1.68834868   0.72559592  -1.40334126
| 22> H    0.05740318   1.28100468  -0.99578512
| 23> *
| 24>
| 25>                          ****END OF INPUT****

CARTESIAN COORDINATES (ANGSTROEM)
---------------------------------
  Pt    -1.012328   -0.908144    0.544467
  Cl    -0.261163   -0.569325    2.716626
  Cl    -2.668041   -2.244967    1.155536
  Cl    -1.604208   -1.080938   -1.691988
  C      1.131121    0.880490   -0.457536
  H      1.451789    1.857734   -0.052568
  H      1.214064    0.058178    0.184770
  H      1.688349    0.725596   -1.403341
  H      0.057403    1.281005   -0.995785

 Total Charge           Charge          ....   -1
 Multiplicity           Mult            ....    1
 Number of Electrons    NEL             ....   80
 Basis Dimension        Dim             ....  109

ORBITAL ENERGIES
----------------

  NO   OCC          E(Eh)            E(eV)
   0   2.0000    -102.115038     -2778.6915
   1   2.0000    -102.089008     -2777.9831
   2   2.0000    -102.087824     -2777.9509
   3   2.0000     -10.335399      -281.2405
   4   2.0000      -9.579481      -260.6709
   5   2.0000      -9.553087      -259.9527
   6   2.0000      -9.551984      -259.9227
   7   2.0000      -7.267050      -197.7465
   8   2.0000      -7.259483      -197.5406
   9   2.0000      -7.259136      -197.5311
  10   2.0000      -7.238875      -196.9798
  11   2.0000      -7.237866      -196.9524
  12   2.0000      -7.234207      -196.8528
  13   2.0000      -7.233934      -196.8453
  14   2.0000      -7.232969      -196.8191
  15   2.0000      -7.232849      -196.8158
  16   2.0000      -3.940054      -107.2143
  17   2.0000      -2.158319       -58.7309
  18   2.0000      -2.153595       -58.6023
  19   2.0000      -2.116923       -57.6044
  20   2.0000      -0.709510       -19.3067
  21   2.0000      -0.686937       -18.6925
  22   2.0000      -0.676041       -18.3960
  23   2.0000      -0.669288       -18.2123
  24   2.0000      -0.388292       -10.5660
  25   2.0000      -0.340585        -9.2678
  26   2.0000      -0.306297        -8.3348
  27   2.0000      -0.285550        -7.7702
  28   2.0000      -0.276860        -7.5337
  29   2.0000      -0.269720        -7.3394
  30   2.0000      -0.233977        -6.3668
  31   2.0000      -0.228928        -6.2295
  32   2.0000      -0.202433        -5.5085
  33   2.0000      -0.179980        -4.8975
  34   2.0000      -0.176884        -4.8132
  35   2.0000      -0.156053        -4.2464
  36   2.0000      -0.142876        -3.8878
  37   2.0000      -0.134925        -3.6715
  38   2.0000      -0.125350        -3.4109
  39   2.0000      -0.114206        -3.1077
  40   0.0000       0.075499         2.0544
  41   0.0000       0.195522         5.3204
  42   0.0000       0.200520         5.4564
  43   0.0000       0.237103         6.4519
  44   0.0000       0.269577         7.3356

MULLIKEN ATOMIC CHARGES
-----------------------
   0 Pt:    0.112407
   1 Cl:   -0.438395
   2 Cl:   -0.297413
   3 Cl:   -0.438820
   4 C :   -0.908507
   5 H :    0.220916
   6 H :    0.285461
   7 H :    0.224125
   8 H :    0.240226
Sum of atomic charges:   -1.0000000

LOEWDIN ATOMIC CHARGES
----------------------
   0 Pt:   -0.892408
   1 Cl:   -0.142029
   2 Cl:    0.043283
   3 Cl:   -0.140792
   4 C :   -0.488201
   5 H :    0.126985
   6 H :    0.181094
   7 H :    0.129077
   8 H :    0.182990

  Mayer bond orders larger than 0.100000
B(  0-Pt,  1-Cl) :   0.8047 B(  0-Pt,  2-Cl) :   1.0279 B(  0-Pt,  3-Cl) :   0.7925
B(  1-Cl,  3-Cl) :   0.1105 B(  4-C ,  5-H ) :   0.9191 B(  4-C ,  6-H ) :   0.8605
B(  4-C ,  7-H ) :   0.9191 B(  4-C ,  8-H ) :   0.9048

Dispersion correction           -0.004764455
FINAL SINGLE POINT ENERGY     -1539.020156778530
Dispersion correction            ... done

DIPOLE MOMENT
-------------
                                X             Y             Z
Electronic contribution:     -0.14027      -1.96926       3.08125
Nuclear contribution   :      1.04901       2.78000      -3.54445
                        -----------------------------------------
Total Dipole Moment    :      0.90874       0.81073      -0.46319
                        -----------------------------------------
Magnitude (a.u.)       :      1.30293
Magnitude (Debye)      :      3.31179

Rotational constants in cm-1:     0.052877     0.043713     0.024064
Rotational constants in MHz :  1585.221438  1310.494057   721.420788

                             ****ORCA TERMINATED NORMALLY****
TOTAL RUN TIME: 0 days 0 hours 0 minutes 37 seconds 659 msec
