                         Program Version 5.0.3 -  RELEASE  -
|  1> ! EnGrad PBEh-3c
|  2> %output
|  3> xyzfile=True
|  4> end
|  5> %scf
|  6> maxiter 250
|  7> end
|  8> %output
|  9> Print[P_Hirshfeld] = 1
| 10> end
| 11> % maxcore
| 12> 4000
| 13> *xyz -1 1
| 14> Pt  -1.00426409  -0.90768864   0.53770570
| 15> Cl  -0.25402431  -0.54597837   2.69994352
| 16> Cl  -2.64769590  -2.21285927   1.15081186
| 17> Cl  -1.57372729  -1.08769933  -1.69117466
| 18> C    1.09183463   0.83165294  -0.42811068
| 19> H    1.45612873   1.82128070  -0.02405314
| 20> H    1.15645463   0.12996542   0.07877646
| 21> H    1.66987400   0.72671956  -1.40107394
| 22> H    0.10003739   1.24406104  -0.92262258
| 23> *
| 24>
| 25>                          ****END OF INPUT****

CARTESIAN COORDINATES (ANGSTROEM)
---------------------------------
  Pt    -1.004264   -0.907689    0.537706
  Cl    -0.254024   -0.545978    2.699944
  Cl    -2.647696   -2.212859    1.150812
  Cl    -1.573727   -1.087699   -1.691175
  C      1.091835    0.831653   -0.428111
  H      1.456129    1.821281   -0.024053
  H      1.156455    0.129965    0.078776
  H      1.669874    0.726720   -1.401074
  H      0.100037    1.244061   -0.922623

 Total Charge           Charge          ....   -1
 Multiplicity           Mult            ....    1
 Number of Electrons    NEL             ....   80
 Basis Dimension        Dim             ....  109

ORBITAL ENERGIES
----------------

  NO   OCC          E(Eh)            E(eV)
   0   2.0000    -102.115586     -2778.7064
   1   2.0000    -102.088341     -2777.9650
   2   2.0000    -102.088260     -2777.9628
   3   2.0000     -10.316369      -280.7227
   4   2.0000      -9.580497      -260.6986
   5   2.0000      -9.552592      -259.9392
   6   2.0000      -9.552502      -259.9368
   7   2.0000      -7.268068      -197.7742
   8   2.0000      -7.260442      -197.5667
   9   2.0000      -7.260091      -197.5571
  10   2.0000      -7.238445      -196.9681
  11   2.0000      -7.238265      -196.9632
  12   2.0000      -7.233647      -196.8375
  13   2.0000      -7.233589      -196.8360
  14   2.0000      -7.233432      -196.8317
  15   2.0000      -7.233337      -196.8291
  16   2.0000      -3.939381      -107.1960
  17   2.0000      -2.158659       -58.7401
  18   2.0000      -2.152963       -58.5851
  19   2.0000      -2.116245       -57.5860
  20   2.0000      -0.713020       -19.4023
  21   2.0000      -0.694410       -18.8959
  22   2.0000      -0.685811       -18.6619
  23   2.0000      -0.676429       -18.4066
  24   2.0000      -0.424348       -11.5471
  25   2.0000      -0.327158        -8.9024
  26   2.0000      -0.315531        -8.5860
  27   2.0000      -0.287152        -7.8138
  28   2.0000      -0.280880        -7.6431
  29   2.0000      -0.273930        -7.4540
  30   2.0000      -0.237511        -6.4630
  31   2.0000      -0.229864        -6.2549
  32   2.0000      -0.203330        -5.5329
  33   2.0000      -0.180494        -4.9115
  34   2.0000      -0.177874        -4.8402
  35   2.0000      -0.156108        -4.2479
  36   2.0000      -0.142241        -3.8706
  37   2.0000      -0.133186        -3.6242
  38   2.0000      -0.123589        -3.3630
  39   2.0000      -0.113063        -3.0766
  40   0.0000       0.078996         2.1496
  41   0.0000       0.199565         5.4304
  42   0.0000       0.203150         5.5280
  43   0.0000       0.257306         7.0017
  44   0.0000       0.270705         7.3662

MULLIKEN ATOMIC CHARGES
-----------------------
   0 Pt:    0.099154
   1 Cl:   -0.437427
   2 Cl:   -0.289535
   3 Cl:   -0.438293
   4 C :   -0.946705
   5 H :    0.212366
   6 H :    0.325643
   7 H :    0.212462
   8 H :    0.262335
Sum of atomic charges:   -1.0000000

LOEWDIN ATOMIC CHARGES
----------------------
   0 Pt:   -0.899665
   1 Cl:   -0.139139
   2 Cl:    0.059898
   3 Cl:   -0.134682
   4 C :   -0.481134
   5 H :    0.129175
   6 H :    0.148497
   7 H :    0.130571
   8 H :    0.186479

  Mayer bond orders larger than 0.100000
B(  0-Pt,  1-Cl) :   0.8080 B(  0-Pt,  2-Cl) :   1.0416 B(  0-Pt,  3-Cl) :   0.7936
B(  1-Cl,  3-Cl) :   0.1106 B(  4-C ,  5-H ) :   0.9293 B(  4-C ,  6-H ) :   0.8432
B(  4-C ,  7-H ) :   0.9311 B(  4-C ,  8-H ) :   0.8938

Dispersion correction           -0.004818731
FINAL SINGLE POINT ENERGY     -1538.977023753603
Dispersion correction            ... done

DIPOLE MOMENT
-------------
                                X             Y             Z
Electronic contribution:     -0.37201      -2.44248       2.83845
Nuclear contribution   :      1.21460       3.22768      -3.30790
                        -----------------------------------------
Total Dipole Moment    :      0.84259       0.78520      -0.46945
                        -----------------------------------------
Magnitude (a.u.)       :      1.24374
Magnitude (Debye)      :      3.16133

Rotational constants in cm-1:     0.054552     0.044151     0.024526
Rotational constants in MHz :  1635.436451  1323.606945   735.269799

                             ****ORCA TERMINATED NORMALLY****
TOTAL RUN TIME: 0 days 0 hours 0 minutes 37 seconds 560 msec
