                         Program Version 5.0.3 -  RELEASE  -
|  1> ! EnGrad PBEh-3c
|  2> %output
|  3> xyzfile=True
|  4> end
|  5> %scf
|  6> maxiter 250
|  7> end
|  8> %output
|  9> Print[P_Hirshfeld] = 1
| 10> end
| 11> % maxcore
| 12> 4000
| 13> *xyz -1 1
| 14> Pt  -1.00814453  -0.90094240   0.54102584
| 15> Cl  -0.26018560  -0.56886955   2.71921737
| 16> Cl  -2.67567531  -2.25207910   1.15829872
| 17> Cl  -1.60563509  -1.08234128  -1.69481088
| 18> C    1.08660265   0.90727735  -0.49184766
| 19> H    1.45470746   1.85458271  -0.04956119
| 20> H    1.22527913   0.04873852   0.19867009
| 21> H    1.69111490   0.72262563  -1.40034620
| 22> H    0.08881222   1.27067492  -0.98051112
| 23> *
| 24>
| 25>                          ****END OF INPUT****

CARTESIAN COORDINATES (ANGSTROEM)
---------------------------------
  Pt    -1.008145   -0.900942    0.541026
  Cl    -0.260186   -0.568870    2.719217
  Cl    -2.675675   -2.252079    1.158299
  Cl    -1.605635   -1.082341   -1.694811
  C      1.086603    0.907277   -0.491848
  H      1.454707    1.854583   -0.049561
  H      1.225279    0.048739    0.198670
  H      1.691115    0.722626   -1.400346
  H      0.088812    1.270675   -0.980511

 Total Charge           Charge          ....   -1
 Multiplicity           Mult            ....    1
 Number of Electrons    NEL             ....   80
 Basis Dimension        Dim             ....  109

ORBITAL ENERGIES
----------------

  NO   OCC          E(Eh)            E(eV)
   0   2.0000    -102.114441     -2778.6752
   1   2.0000    -102.088786     -2777.9771
   2   2.0000    -102.088313     -2777.9642
   3   2.0000     -10.333312      -281.1837
   4   2.0000      -9.578589      -260.6467
   5   2.0000      -9.552826      -259.9456
   6   2.0000      -9.552434      -259.9349
   7   2.0000      -7.266148      -197.7219
   8   2.0000      -7.258627      -197.5173
   9   2.0000      -7.258290      -197.5081
  10   2.0000      -7.238631      -196.9732
  11   2.0000      -7.238320      -196.9647
  12   2.0000      -7.233926      -196.8451
  13   2.0000      -7.233685      -196.8386
  14   2.0000      -7.233421      -196.8314
  15   2.0000      -7.233303      -196.8282
  16   2.0000      -3.940513      -107.2268
  17   2.0000      -2.158160       -58.7265
  18   2.0000      -2.154127       -58.6168
  19   2.0000      -2.117386       -57.6170
  20   2.0000      -0.707426       -19.2500
  21   2.0000      -0.686607       -18.6835
  22   2.0000      -0.676039       -18.3960
  23   2.0000      -0.669855       -18.2277
  24   2.0000      -0.375278       -10.2118
  25   2.0000      -0.340308        -9.2602
  26   2.0000      -0.322456        -8.7745
  27   2.0000      -0.285331        -7.7643
  28   2.0000      -0.273924        -7.4538
  29   2.0000      -0.269976        -7.3464
  30   2.0000      -0.231754        -6.3064
  31   2.0000      -0.228772        -6.2252
  32   2.0000      -0.202087        -5.4991
  33   2.0000      -0.179901        -4.8954
  34   2.0000      -0.176915        -4.8141
  35   2.0000      -0.156173        -4.2497
  36   2.0000      -0.143372        -3.9013
  37   2.0000      -0.136106        -3.7036
  38   2.0000      -0.126270        -3.4360
  39   2.0000      -0.114689        -3.1208
  40   0.0000       0.073917         2.0114
  41   0.0000       0.194502         5.2927
  42   0.0000       0.200509         5.4561
  43   0.0000       0.252180         6.8622
  44   0.0000       0.268932         7.3180

MULLIKEN ATOMIC CHARGES
-----------------------
   0 Pt:    0.115640
   1 Cl:   -0.438365
   2 Cl:   -0.301815
   3 Cl:   -0.438554
   4 C :   -0.918736
   5 H :    0.216817
   6 H :    0.275244
   7 H :    0.222825
   8 H :    0.266944
Sum of atomic charges:   -1.0000000

LOEWDIN ATOMIC CHARGES
----------------------
   0 Pt:   -0.883354
   1 Cl:   -0.143735
   2 Cl:    0.032088
   3 Cl:   -0.140680
   4 C :   -0.491986
   5 H :    0.125081
   6 H :    0.190945
   7 H :    0.128139
   8 H :    0.183500

  Mayer bond orders larger than 0.100000
B(  0-Pt,  1-Cl) :   0.8046 B(  0-Pt,  2-Cl) :   1.0195 B(  0-Pt,  3-Cl) :   0.7929
B(  1-Cl,  3-Cl) :   0.1108 B(  4-C ,  5-H ) :   0.9215 B(  4-C ,  6-H ) :   0.8592
B(  4-C ,  7-H ) :   0.9209 B(  4-C ,  8-H ) :   0.8940

Dispersion correction           -0.004752979
FINAL SINGLE POINT ENERGY     -1539.034375956836
Dispersion correction            ... done

DIPOLE MOMENT
-------------
                                X             Y             Z
Electronic contribution:      0.44484      -1.53008       2.97999
Nuclear contribution   :      0.49763       2.35556      -3.45215
                        -----------------------------------------
Total Dipole Moment    :      0.94248       0.82548      -0.47215
                        -----------------------------------------
Magnitude (a.u.)       :      1.33889
Magnitude (Debye)      :      3.40318

Rotational constants in cm-1:     0.052672     0.043570     0.023976
Rotational constants in MHz :  1579.079578  1306.196724   718.786952

                             ****ORCA TERMINATED NORMALLY****
TOTAL RUN TIME: 0 days 0 hours 0 minutes 37 seconds 66 msec
