                         Program Version 5.0.3 -  RELEASE  -
|  1> ! EnGrad PBEh-3c
|  2> %output
|  3> xyzfile=True
|  4> end
|  5> %scf
|  6> maxiter 250
|  7> end
|  8> %output
|  9> Print[P_Hirshfeld] = 1
| 10> end
| 11> % maxcore
| 12> 4000
| 13> *xyz -1 1
| 14> Pt  -1.00945921  -0.90626502   0.53850010
| 15> Cl  -0.25646435  -0.55445827   2.70189570
| 16> Cl  -2.65797959  -2.22714068   1.15524063
| 17> Cl  -1.58374788  -1.08426775  -1.68987349
| 18> C    1.09676984   0.90794374  -0.49231950
| 19> H    1.45525227   1.81379420  -0.03053604
| 20> H    1.16536527   0.10558609   0.12032263
| 21> H    1.67377585   0.72199549  -1.38576130
| 22> H    0.11037891   1.22240404  -0.91716336
| 23> *
| 24>
| 25>                          ****END OF INPUT****

CARTESIAN COORDINATES (ANGSTROEM)
---------------------------------
  Pt    -1.009459   -0.906265    0.538500
  Cl    -0.256464   -0.554458    2.701896
  Cl    -2.657980   -2.227141    1.155241
  Cl    -1.583748   -1.084268   -1.689873
  C      1.096770    0.907944   -0.492320
  H      1.455252    1.813794   -0.030536
  H      1.165365    0.105586    0.120323
  H      1.673776    0.721995   -1.385761
  H      0.110379    1.222404   -0.917163

 Total Charge           Charge          ....   -1
 Multiplicity           Mult            ....    1
 Number of Electrons    NEL             ....   80
 Basis Dimension        Dim             ....  109

ORBITAL ENERGIES
----------------

  NO   OCC          E(Eh)            E(eV)
   0   2.0000    -102.116064     -2778.7194
   1   2.0000    -102.089172     -2777.9876
   2   2.0000    -102.088856     -2777.9790
   3   2.0000     -10.309804      -280.5440
   4   2.0000      -9.580721      -260.7047
   5   2.0000      -9.553471      -259.9632
   6   2.0000      -9.553021      -259.9509
   7   2.0000      -7.268303      -197.7806
   8   2.0000      -7.260688      -197.5734
   9   2.0000      -7.260342      -197.5639
  10   2.0000      -7.239322      -196.9920
  11   2.0000      -7.238795      -196.9776
  12   2.0000      -7.234481      -196.8602
  13   2.0000      -7.234310      -196.8556
  14   2.0000      -7.234150      -196.8512
  15   2.0000      -7.233854      -196.8432
  16   2.0000      -3.940204      -107.2184
  17   2.0000      -2.158986       -58.7490
  18   2.0000      -2.153869       -58.6098
  19   2.0000      -2.117058       -57.6081
  20   2.0000      -0.711865       -19.3708
  21   2.0000      -0.689948       -18.7744
  22   2.0000      -0.683192       -18.5906
  23   2.0000      -0.676996       -18.4220
  24   2.0000      -0.385396       -10.4871
  25   2.0000      -0.346928        -9.4404
  26   2.0000      -0.331764        -9.0278
  27   2.0000      -0.287695        -7.8286
  28   2.0000      -0.279547        -7.6069
  29   2.0000      -0.275445        -7.4952
  30   2.0000      -0.236308        -6.4303
  31   2.0000      -0.230498        -6.2722
  32   2.0000      -0.203792        -5.5455
  33   2.0000      -0.181006        -4.9254
  34   2.0000      -0.178688        -4.8623
  35   2.0000      -0.156952        -4.2709
  36   2.0000      -0.143052        -3.8926
  37   2.0000      -0.134704        -3.6655
  38   2.0000      -0.124661        -3.3922
  39   2.0000      -0.113808        -3.0969
  40   0.0000       0.076487         2.0813
  41   0.0000       0.198385         5.3983
  42   0.0000       0.202245         5.5034
  43   0.0000       0.265911         7.2358
  44   0.0000       0.270987         7.3739

MULLIKEN ATOMIC CHARGES
-----------------------
   0 Pt:    0.105531
   1 Cl:   -0.436818
   2 Cl:   -0.293213
   3 Cl:   -0.437693
   4 C :   -0.933394
   5 H :    0.219549
   6 H :    0.285529
   7 H :    0.224070
   8 H :    0.266438
Sum of atomic charges:   -1.0000000

LOEWDIN ATOMIC CHARGES
----------------------
   0 Pt:   -0.894781
   1 Cl:   -0.139157
   2 Cl:    0.051953
   3 Cl:   -0.133969
   4 C :   -0.490560
   5 H :    0.127292
   6 H :    0.172010
   7 H :    0.130006
   8 H :    0.177206

  Mayer bond orders larger than 0.100000
B(  0-Pt,  1-Cl) :   0.8088 B(  0-Pt,  2-Cl) :   1.0340 B(  0-Pt,  3-Cl) :   0.7953
B(  1-Cl,  3-Cl) :   0.1107 B(  4-C ,  5-H ) :   0.9260 B(  4-C ,  6-H ) :   0.8585
B(  4-C ,  7-H ) :   0.9260 B(  4-C ,  8-H ) :   0.8960

Dispersion correction           -0.004795754
FINAL SINGLE POINT ENERGY     -1539.036875933923
Dispersion correction            ... done

DIPOLE MOMENT
-------------
                                X             Y             Z
Electronic contribution:     -0.36201      -2.44191       3.07815
Nuclear contribution   :      1.22257       3.19845      -3.52136
                        -----------------------------------------
Total Dipole Moment    :      0.86056       0.75654      -0.44321
                        -----------------------------------------
Magnitude (a.u.)       :      1.22855
Magnitude (Debye)      :      3.12274

Rotational constants in cm-1:     0.053374     0.044076     0.024261
Rotational constants in MHz :  1600.121851  1321.353310   727.321766

                             ****ORCA TERMINATED NORMALLY****
TOTAL RUN TIME: 0 days 0 hours 0 minutes 38 seconds 421 msec
