                         Program Version 5.0.3 -  RELEASE  -
|  1> ! EnGrad PBEh-3c
|  2> %output
|  3> xyzfile=True
|  4> end
|  5> %scf
|  6> maxiter 250
|  7> end
|  8> %output
|  9> Print[P_Hirshfeld] = 1
| 10> end
| 11> % maxcore
| 12> 4000
| 13> *xyz -1 1
| 14> Pt  -1.00449126  -0.90134975   0.53509556
| 15> Cl  -0.25430097  -0.54838148   2.69503939
| 16> Cl  -2.66123796  -2.22588564   1.15865281
| 17> Cl  -1.57568527  -1.08525724  -1.69031628
| 18> C    1.08021810   0.97534027  -0.55143436
| 19> H    1.46261567   1.80137307  -0.01458659
| 20> H    1.14696762   0.07229942   0.13697772
| 21> H    1.67490222   0.71777788  -1.38432155
| 22> H    0.12265201   1.19375513  -0.88463511
| 23> *
| 24>
| 25>                          ****END OF INPUT****

CARTESIAN COORDINATES (ANGSTROEM)
---------------------------------
  Pt    -1.004491   -0.901350    0.535096
  Cl    -0.254301   -0.548381    2.695039
  Cl    -2.661238   -2.225886    1.158653
  Cl    -1.575685   -1.085257   -1.690316
  C      1.080218    0.975340   -0.551434
  H      1.462616    1.801373   -0.014587
  H      1.146968    0.072299    0.136978
  H      1.674902    0.717778   -1.384322
  H      0.122652    1.193755   -0.884635

 Total Charge           Charge          ....   -1
 Multiplicity           Mult            ....    1
 Number of Electrons    NEL             ....   80
 Basis Dimension        Dim             ....  109

ORBITAL ENERGIES
----------------

  NO   OCC          E(Eh)            E(eV)
   0   2.0000    -102.115634     -2778.7077
   1   2.0000    -102.089678     -2778.0014
   2   2.0000    -102.088762     -2777.9764
   3   2.0000     -10.310293      -280.5573
   4   2.0000      -9.580136      -260.6888
   5   2.0000      -9.554004      -259.9777
   6   2.0000      -9.552994      -259.9502
   7   2.0000      -7.267704      -197.7643
   8   2.0000      -7.260129      -197.5582
   9   2.0000      -7.259786      -197.5488
  10   2.0000      -7.239841      -197.0061
  11   2.0000      -7.238783      -196.9773
  12   2.0000      -7.235026      -196.8751
  13   2.0000      -7.234842      -196.8701
  14   2.0000      -7.234095      -196.8497
  15   2.0000      -7.233826      -196.8424
  16   2.0000      -3.940514      -107.2268
  17   2.0000      -2.158889       -58.7464
  18   2.0000      -2.154313       -58.6218
  19   2.0000      -2.117378       -57.6168
  20   2.0000      -0.710754       -19.3406
  21   2.0000      -0.690200       -18.7813
  22   2.0000      -0.683417       -18.5967
  23   2.0000      -0.677327       -18.4310
  24   2.0000      -0.362248        -9.8573
  25   2.0000      -0.360484        -9.8093
  26   2.0000      -0.346290        -9.4230
  27   2.0000      -0.288352        -7.8465
  28   2.0000      -0.276897        -7.5347
  29   2.0000      -0.275715        -7.5026
  30   2.0000      -0.234951        -6.3933
  31   2.0000      -0.231170        -6.2904
  32   2.0000      -0.203995        -5.5510
  33   2.0000      -0.181361        -4.9351
  34   2.0000      -0.178899        -4.8681
  35   2.0000      -0.157235        -4.2786
  36   2.0000      -0.143353        -3.9008
  37   2.0000      -0.135312        -3.6820
  38   2.0000      -0.124778        -3.3954
  39   2.0000      -0.113741        -3.0950
  40   0.0000       0.075465         2.0535
  41   0.0000       0.196665         5.3515
  42   0.0000       0.201879         5.4934
  43   0.0000       0.267632         7.2826
  44   0.0000       0.270440         7.3590

MULLIKEN ATOMIC CHARGES
-----------------------
   0 Pt:    0.099277
   1 Cl:   -0.435221
   2 Cl:   -0.296870
   3 Cl:   -0.437505
   4 C :   -0.918256
   5 H :    0.224569
   6 H :    0.250473
   7 H :    0.230423
   8 H :    0.283110
Sum of atomic charges:   -1.0000000

LOEWDIN ATOMIC CHARGES
----------------------
   0 Pt:   -0.900393
   1 Cl:   -0.136945
   2 Cl:    0.044622
   3 Cl:   -0.132273
   4 C :   -0.483685
   5 H :    0.128062
   6 H :    0.181032
   7 H :    0.130888
   8 H :    0.168692

  Mayer bond orders larger than 0.100000
B(  0-Pt,  1-Cl) :   0.8105 B(  0-Pt,  2-Cl) :   1.0249 B(  0-Pt,  3-Cl) :   0.7959
B(  1-Cl,  3-Cl) :   0.1109 B(  4-C ,  5-H ) :   0.9226 B(  4-C ,  6-H ) :   0.8642
B(  4-C ,  7-H ) :   0.9229 B(  4-C ,  8-H ) :   0.8869

Dispersion correction           -0.004801219
FINAL SINGLE POINT ENERGY     -1539.041513960366
Dispersion correction            ... done

DIPOLE MOMENT
-------------
                                X             Y             Z
Electronic contribution:     -0.06448      -2.53385       3.19458
Nuclear contribution   :      0.95267       3.28505      -3.62708
                        -----------------------------------------
Total Dipole Moment    :      0.88818       0.75121      -0.43251
                        -----------------------------------------
Magnitude (a.u.)       :      1.24107
Magnitude (Debye)      :      3.15454

Rotational constants in cm-1:     0.052804     0.044130     0.024161
Rotational constants in MHz :  1583.020089  1322.975766   724.323970

                             ****ORCA TERMINATED NORMALLY****
TOTAL RUN TIME: 0 days 0 hours 0 minutes 38 seconds 186 msec
