                         Program Version 5.0.3 -  RELEASE  -
|  1> ! EnGrad PBEh-3c
|  2> %output
|  3> xyzfile=True
|  4> end
|  5> %scf
|  6> maxiter 250
|  7> end
|  8> %output
|  9> Print[P_Hirshfeld] = 1
| 10> end
| 11> % maxcore
| 12> 4000
| 13> *xyz -1 1
| 14> Pt  -1.00114180  -0.89819682   0.53387324
| 15> Cl  -0.25336208  -0.54653159   2.69356146
| 16> Cl  -2.66607398  -2.22864388   1.16144059
| 17> Cl  -1.57375330  -1.08536789  -1.69195270
| 18> C    1.08687206   0.96430982  -0.54334422
| 19> H    1.47025976   1.80864141  -0.00491472
| 20> H    1.14068201   0.07824228   0.13176630
| 21> H    1.68365195   0.71555952  -1.39548226
| 22> H    0.10328758   1.19166756  -0.88435612
| 23> *
| 24>
| 25>                          ****END OF INPUT****

CARTESIAN COORDINATES (ANGSTROEM)
---------------------------------
  Pt    -1.001142   -0.898197    0.533873
  Cl    -0.253362   -0.546532    2.693561
  Cl    -2.666074   -2.228644    1.161441
  Cl    -1.573753   -1.085368   -1.691953
  C      1.086872    0.964310   -0.543344
  H      1.470260    1.808641   -0.004915
  H      1.140682    0.078242    0.131766
  H      1.683652    0.715560   -1.395482
  H      0.103288    1.191668   -0.884356

 Total Charge           Charge          ....   -1
 Multiplicity           Mult            ....    1
 Number of Electrons    NEL             ....   80
 Basis Dimension        Dim             ....  109

ORBITAL ENERGIES
----------------

  NO   OCC          E(Eh)            E(eV)
   0   2.0000    -102.115740     -2778.7106
   1   2.0000    -102.089792     -2778.0045
   2   2.0000    -102.089238     -2777.9894
   3   2.0000     -10.314166      -280.6627
   4   2.0000      -9.580065      -260.6868
   5   2.0000      -9.554111      -259.9806
   6   2.0000      -9.553479      -259.9634
   7   2.0000      -7.267638      -197.7625
   8   2.0000      -7.260071      -197.5566
   9   2.0000      -7.259734      -197.5474
  10   2.0000      -7.239950      -197.0091
  11   2.0000      -7.239271      -196.9906
  12   2.0000      -7.235129      -196.8779
  13   2.0000      -7.234952      -196.8730
  14   2.0000      -7.234577      -196.8628
  15   2.0000      -7.234306      -196.8555
  16   2.0000      -3.940898      -107.2373
  17   2.0000      -2.158979       -58.7488
  18   2.0000      -2.154814       -58.6355
  19   2.0000      -2.117779       -57.6277
  20   2.0000      -0.709912       -19.3177
  21   2.0000      -0.689672       -18.7669
  22   2.0000      -0.680616       -18.5205
  23   2.0000      -0.677552       -18.4371
  24   2.0000      -0.358396        -9.7525
  25   2.0000      -0.355938        -9.6856
  26   2.0000      -0.348777        -9.4907
  27   2.0000      -0.288674        -7.8552
  28   2.0000      -0.276217        -7.5163
  29   2.0000      -0.274625        -7.4729
  30   2.0000      -0.233942        -6.3659
  31   2.0000      -0.231434        -6.2976
  32   2.0000      -0.204094        -5.5537
  33   2.0000      -0.181584        -4.9412
  34   2.0000      -0.179170        -4.8755
  35   2.0000      -0.157583        -4.2881
  36   2.0000      -0.143818        -3.9135
  37   2.0000      -0.136221        -3.7068
  38   2.0000      -0.125376        -3.4116
  39   2.0000      -0.114084        -3.1044
  40   0.0000       0.073926         2.0116
  41   0.0000       0.196810         5.3555
  42   0.0000       0.201275         5.4770
  43   0.0000       0.267593         7.2816
  44   0.0000       0.269682         7.3384

MULLIKEN ATOMIC CHARGES
-----------------------
   0 Pt:    0.100246
   1 Cl:   -0.434360
   2 Cl:   -0.298453
   3 Cl:   -0.437278
   4 C :   -0.914245
   5 H :    0.221391
   6 H :    0.257381
   7 H :    0.227534
   8 H :    0.277782
Sum of atomic charges:   -1.0000000

LOEWDIN ATOMIC CHARGES
----------------------
   0 Pt:   -0.896008
   1 Cl:   -0.135529
   2 Cl:    0.039313
   3 Cl:   -0.132570
   4 C :   -0.484312
   5 H :    0.127796
   6 H :    0.179124
   7 H :    0.130659
   8 H :    0.171527

  Mayer bond orders larger than 0.100000
B(  0-Pt,  1-Cl) :   0.8119 B(  0-Pt,  2-Cl) :   1.0215 B(  0-Pt,  3-Cl) :   0.7961
B(  1-Cl,  3-Cl) :   0.1112 B(  4-C ,  5-H ) :   0.9235 B(  4-C ,  6-H ) :   0.8603
B(  4-C ,  7-H ) :   0.9237 B(  4-C ,  8-H ) :   0.8882

Dispersion correction           -0.004800648
FINAL SINGLE POINT ENERGY     -1539.044864978347
Dispersion correction            ... done

DIPOLE MOMENT
-------------
                                X             Y             Z
Electronic contribution:      0.13540      -2.28284       3.09567
Nuclear contribution   :      0.75373       3.03716      -3.52463
                        -----------------------------------------
Total Dipole Moment    :      0.88914       0.75433      -0.42896
                        -----------------------------------------
Magnitude (a.u.)       :      1.24241
Magnitude (Debye)      :      3.15795

Rotational constants in cm-1:     0.052658     0.044136     0.024132
Rotational constants in MHz :  1578.649018  1323.151692   723.464392

                             ****ORCA TERMINATED NORMALLY****
TOTAL RUN TIME: 0 days 0 hours 0 minutes 36 seconds 884 msec
