                         Program Version 5.0.3 -  RELEASE  -
|  1> ! EnGrad PBEh-3c
|  2> %output
|  3> xyzfile=True
|  4> end
|  5> %scf
|  6> maxiter 250
|  7> end
|  8> %output
|  9> Print[P_Hirshfeld] = 1
| 10> end
| 11> % maxcore
| 12> 4000
| 13> *xyz -1 1
| 14> Pt  -0.99751650  -0.89371694   0.53174849
| 15> Cl  -0.24999351  -0.54063603   2.69061306
| 16> Cl  -2.67509480  -2.23279227   1.16751550
| 17> Cl  -1.56829801  -1.08595658  -1.69735463
| 18> C    1.08613914   0.95262772  -0.53552470
| 19> H    1.48490511   1.81585658   0.01236142
| 20> H    1.13008079   0.08580394   0.12472303
| 21> H    1.69867849   0.71330100  -1.41476609
| 22> H    0.07808785   1.18519822  -0.87835260
| 23> *
| 24>
| 25>                          ****END OF INPUT****

CARTESIAN COORDINATES (ANGSTROEM)
---------------------------------
  Pt    -0.997516   -0.893717    0.531748
  Cl    -0.249994   -0.540636    2.690613
  Cl    -2.675095   -2.232792    1.167515
  Cl    -1.568298   -1.085957   -1.697355
  C      1.086139    0.952628   -0.535525
  H      1.484905    1.815857    0.012361
  H      1.130081    0.085804    0.124723
  H      1.698678    0.713301   -1.414766
  H      0.078088    1.185198   -0.878353

 Total Charge           Charge          ....   -1
 Multiplicity           Mult            ....    1
 Number of Electrons    NEL             ....   80
 Basis Dimension        Dim             ....  109

ORBITAL ENERGIES
----------------

  NO   OCC          E(Eh)            E(eV)
   0   2.0000    -102.115875     -2778.7142
   1   2.0000    -102.090083     -2778.0124
   2   2.0000    -102.090031     -2778.0110
   3   2.0000     -10.320036      -280.8225
   4   2.0000      -9.579933      -260.6832
   5   2.0000      -9.554364      -259.9875
   6   2.0000      -9.554272      -259.9850
   7   2.0000      -7.267508      -197.7589
   8   2.0000      -7.259963      -197.5536
   9   2.0000      -7.259638      -197.5448
  10   2.0000      -7.240204      -197.0160
  11   2.0000      -7.240075      -197.0125
  12   2.0000      -7.235379      -196.8847
  13   2.0000      -7.235365      -196.8843
  14   2.0000      -7.235209      -196.8801
  15   2.0000      -7.235093      -196.8769
  16   2.0000      -3.941597      -107.2563
  17   2.0000      -2.159225       -58.7555
  18   2.0000      -2.155652       -58.6583
  19   2.0000      -2.118498       -57.6473
  20   2.0000      -0.708618       -19.2825
  21   2.0000      -0.689520       -18.7628
  22   2.0000      -0.678404       -18.4603
  23   2.0000      -0.676193       -18.4002
  24   2.0000      -0.358778        -9.7629
  25   2.0000      -0.349529        -9.5112
  26   2.0000      -0.347236        -9.4488
  27   2.0000      -0.288984        -7.8636
  28   2.0000      -0.274929        -7.4812
  29   2.0000      -0.272859        -7.4249
  30   2.0000      -0.232829        -6.3356
  31   2.0000      -0.231329        -6.2948
  32   2.0000      -0.204303        -5.5594
  33   2.0000      -0.181975        -4.9518
  34   2.0000      -0.179574        -4.8865
  35   2.0000      -0.158264        -4.3066
  36   2.0000      -0.144613        -3.9351
  37   2.0000      -0.137637        -3.7453
  38   2.0000      -0.126302        -3.4368
  39   2.0000      -0.114819        -3.1244
  40   0.0000       0.071432         1.9438
  41   0.0000       0.196452         5.3457
  42   0.0000       0.200261         5.4494
  43   0.0000       0.266444         7.2503
  44   0.0000       0.269052         7.3213

MULLIKEN ATOMIC CHARGES
-----------------------
   0 Pt:    0.101517
   1 Cl:   -0.433228
   2 Cl:   -0.301113
   3 Cl:   -0.437185
   4 C :   -0.906856
   5 H :    0.215979
   6 H :    0.265740
   7 H :    0.221047
   8 H :    0.274099
Sum of atomic charges:   -1.0000000

LOEWDIN ATOMIC CHARGES
----------------------
   0 Pt:   -0.888203
   1 Cl:   -0.133891
   2 Cl:    0.030752
   3 Cl:   -0.133732
   4 C :   -0.483317
   5 H :    0.127293
   6 H :    0.176640
   7 H :    0.130257
   8 H :    0.174200

  Mayer bond orders larger than 0.100000
B(  0-Pt,  1-Cl) :   0.8135 B(  0-Pt,  2-Cl) :   1.0160 B(  0-Pt,  3-Cl) :   0.7957
B(  1-Cl,  3-Cl) :   0.1115 B(  4-C ,  5-H ) :   0.9250 B(  4-C ,  6-H ) :   0.8538
B(  4-C ,  7-H ) :   0.9262 B(  4-C ,  8-H ) :   0.8876

Dispersion correction           -0.004800185
FINAL SINGLE POINT ENERGY     -1539.045673918575
Dispersion correction            ... done

DIPOLE MOMENT
-------------
                                X             Y             Z
Electronic contribution:      0.36496      -1.98088       2.97623
Nuclear contribution   :      0.52859       2.73858      -3.39698
                        -----------------------------------------
Total Dipole Moment    :      0.89355       0.75769      -0.42075
                        -----------------------------------------
Magnitude (a.u.)       :      1.24481
Magnitude (Debye)      :      3.16406

Rotational constants in cm-1:     0.052433     0.044090     0.024072
Rotational constants in MHz :  1571.913837  1321.781044   721.658238

                             ****ORCA TERMINATED NORMALLY****
TOTAL RUN TIME: 0 days 0 hours 0 minutes 37 seconds 517 msec
