                         Program Version 5.0.3 -  RELEASE  -
|  1> ! EnGrad PBEh-3c
|  2> %output
|  3> xyzfile=True
|  4> end
|  5> %scf
|  6> maxiter 250
|  7> end
|  8> %output
|  9> Print[P_Hirshfeld] = 1
| 10> end
| 11> % maxcore
| 12> 4000
| 13> *xyz -1 1
| 14> Pt  -0.94346827  -0.84824298   0.51666617
| 15> Cl  -0.24112411  -0.52038342   2.72821340
| 16> Cl  -2.69637747  -2.24226795   1.16218786
| 17> Cl  -1.56440816  -1.11220881  -1.72867172
| 18> C    0.99185047   1.02033260  -0.58738088
| 19> H    1.44789688   1.82678660  -0.01229411
| 20> H    1.31756517  -0.22896856   0.33554133
| 21> H    1.63991482   0.73336042  -1.41369529
| 22> H    0.04815068   1.37158689  -1.00055721
| 23> *
| 24>
| 25>                          ****END OF INPUT****

CARTESIAN COORDINATES (ANGSTROEM)
---------------------------------
  Pt    -0.943468   -0.848243    0.516666
  Cl    -0.241124   -0.520383    2.728213
  Cl    -2.696377   -2.242268    1.162188
  Cl    -1.564408   -1.112209   -1.728672
  C      0.991850    1.020333   -0.587381
  H      1.447897    1.826787   -0.012294
  H      1.317565   -0.228969    0.335541
  H      1.639915    0.733360   -1.413695
  H      0.048151    1.371587   -1.000557

 Total Charge           Charge          ....   -1
 Multiplicity           Mult            ....    1
 Number of Electrons    NEL             ....   80
 Basis Dimension        Dim             ....  109

ORBITAL ENERGIES
----------------

  NO   OCC          E(Eh)            E(eV)
   0   2.0000    -102.105114     -2778.4214
   1   2.0000    -102.087045     -2777.9297
   2   2.0000    -102.086353     -2777.9109
   3   2.0000     -10.367566      -282.1158
   4   2.0000      -9.568146      -260.3625
   5   2.0000      -9.550908      -259.8934
   6   2.0000      -9.550140      -259.8725
   7   2.0000      -7.255480      -197.4317
   8   2.0000      -7.248458      -197.2406
   9   2.0000      -7.248113      -197.2312
  10   2.0000      -7.236845      -196.9246
  11   2.0000      -7.236097      -196.9042
  12   2.0000      -7.231855      -196.7888
  13   2.0000      -7.231824      -196.7879
  14   2.0000      -7.231109      -196.7685
  15   2.0000      -7.231045      -196.7667
  16   2.0000      -3.942851      -107.2904
  17   2.0000      -2.157074       -58.6970
  18   2.0000      -2.155911       -58.6653
  19   2.0000      -2.120075       -57.6902
  20   2.0000      -0.694194       -18.8900
  21   2.0000      -0.680581       -18.5196
  22   2.0000      -0.673333       -18.3223
  23   2.0000      -0.667014       -18.1504
  24   2.0000      -0.366694        -9.9783
  25   2.0000      -0.361340        -9.8326
  26   2.0000      -0.304260        -8.2793
  27   2.0000      -0.279081        -7.5942
  28   2.0000      -0.261363        -7.1121
  29   2.0000      -0.247336        -6.7304
  30   2.0000      -0.226688        -6.1685
  31   2.0000      -0.216500        -5.8913
  32   2.0000      -0.196916        -5.3583
  33   2.0000      -0.177066        -4.8182
  34   2.0000      -0.170119        -4.6292
  35   2.0000      -0.152292        -4.1441
  36   2.0000      -0.145135        -3.9493
  37   2.0000      -0.138070        -3.7571
  38   2.0000      -0.128629        -3.5002
  39   2.0000      -0.116337        -3.1657
  40   0.0000       0.072878         1.9831
  41   0.0000       0.129294         3.5183
  42   0.0000       0.197548         5.3755
  43   0.0000       0.220403         5.9975
  44   0.0000       0.263834         7.1793

MULLIKEN ATOMIC CHARGES
-----------------------
   0 Pt:    0.097638
   1 Cl:   -0.435386
   2 Cl:   -0.333909
   3 Cl:   -0.440908
   4 C :   -0.838680
   5 H :    0.230068
   6 H :    0.194868
   7 H :    0.237282
   8 H :    0.289027
Sum of atomic charges:   -1.0000000

LOEWDIN ATOMIC CHARGES
----------------------
   0 Pt:   -0.888245
   1 Cl:   -0.149708
   2 Cl:   -0.037108
   3 Cl:   -0.152681
   4 C :   -0.437509
   5 H :    0.129758
   6 H :    0.220811
   7 H :    0.132984
   8 H :    0.181698

  Mayer bond orders larger than 0.100000
B(  0-Pt,  1-Cl) :   0.7957 B(  0-Pt,  2-Cl) :   0.9541 B(  0-Pt,  3-Cl) :   0.7842
B(  0-Pt,  4-C ) :   0.1640 B(  0-Pt,  6-H ) :   0.1413 B(  1-Cl,  3-Cl) :   0.1126
B(  4-C ,  5-H ) :   0.9076 B(  4-C ,  6-H ) :   0.7890 B(  4-C ,  7-H ) :   0.9089
B(  4-C ,  8-H ) :   0.8870

Dispersion correction           -0.005226332
FINAL SINGLE POINT ENERGY     -1538.974479816486
Dispersion correction            ... done

DIPOLE MOMENT
-------------
                                X             Y             Z
Electronic contribution:      4.42978       0.95024       2.13322
Nuclear contribution   :     -3.17182       0.12212      -2.71471
                        -----------------------------------------
Total Dipole Moment    :      1.25795       1.07236      -0.58149
                        -----------------------------------------
Magnitude (a.u.)       :      1.75229
Magnitude (Debye)      :      4.45397

Rotational constants in cm-1:     0.051528     0.042560     0.023492
Rotational constants in MHz :  1544.774509  1275.914433   704.283930

                             ****ORCA TERMINATED NORMALLY****
TOTAL RUN TIME: 0 days 0 hours 0 minutes 36 seconds 876 msec
