                         Program Version 5.0.3 -  RELEASE  -
|  1> ! EnGrad PBEh-3c
|  2> %output
|  3> xyzfile=True
|  4> end
|  5> %scf
|  6> maxiter 250
|  7> end
|  8> %output
|  9> Print[P_Hirshfeld] = 1
| 10> end
| 11> % maxcore
| 12> 4000
| 13> *xyz -1 1
| 14> Pt  -0.93595163  -0.87257970   0.51816635
| 15> Cl  -0.23533482  -0.49648905   2.70059390
| 16> Cl  -2.63979829  -2.17798752   1.14454913
| 17> Cl  -1.52596300  -1.11181485  -1.71591797
| 18> C    1.08061892   0.87497141  -0.47482405
| 19> H    1.44178648   1.78674252   0.01242791
| 20> H    1.18462055  -0.07756079   0.17568170
| 21> H    1.61194259   0.73590512  -1.40946376
| 22> H    0.01499274   1.33810376  -0.95093465
| 23> *
| 24>
| 25>                          ****END OF INPUT****

CARTESIAN COORDINATES (ANGSTROEM)
---------------------------------
  Pt    -0.935952   -0.872580    0.518166
  Cl    -0.235335   -0.496489    2.700594
  Cl    -2.639798   -2.177988    1.144549
  Cl    -1.525963   -1.111815   -1.715918
  C      1.080619    0.874971   -0.474824
  H      1.441786    1.786743    0.012428
  H      1.184621   -0.077561    0.175682
  H      1.611943    0.735905   -1.409464
  H      0.014993    1.338104   -0.950935

 Total Charge           Charge          ....   -1
 Multiplicity           Mult            ....    1
 Number of Electrons    NEL             ....   80
 Basis Dimension        Dim             ....  109

ORBITAL ENERGIES
----------------

  NO   OCC          E(Eh)            E(eV)
   0   2.0000    -102.110728     -2778.5742
   1   2.0000    -102.087279     -2777.9361
   2   2.0000    -102.086061     -2777.9029
   3   2.0000     -10.345766      -281.5226
   4   2.0000      -9.574940      -260.5474
   5   2.0000      -9.551396      -259.9067
   6   2.0000      -9.550173      -259.8734
   7   2.0000      -7.262420      -197.6205
   8   2.0000      -7.255028      -197.4193
   9   2.0000      -7.254674      -197.4097
  10   2.0000      -7.237241      -196.9353
  11   2.0000      -7.236081      -196.9038
  12   2.0000      -7.232426      -196.8043
  13   2.0000      -7.232276      -196.8002
  14   2.0000      -7.231117      -196.7687
  15   2.0000      -7.231080      -196.7677
  16   2.0000      -3.940397      -107.2237
  17   2.0000      -2.157788       -58.7164
  18   2.0000      -2.153802       -58.6079
  19   2.0000      -2.117356       -57.6162
  20   2.0000      -0.704790       -19.1783
  21   2.0000      -0.684877       -18.6365
  22   2.0000      -0.674479       -18.3535
  23   2.0000      -0.667413       -18.1612
  24   2.0000      -0.375073       -10.2063
  25   2.0000      -0.351659        -9.5691
  26   2.0000      -0.313198        -8.5225
  27   2.0000      -0.284301        -7.7362
  28   2.0000      -0.271480        -7.3873
  29   2.0000      -0.265541        -7.2257
  30   2.0000      -0.229991        -6.2584
  31   2.0000      -0.227442        -6.1890
  32   2.0000      -0.200048        -5.4436
  33   2.0000      -0.178131        -4.8472
  34   2.0000      -0.174266        -4.7420
  35   2.0000      -0.153401        -4.1743
  36   2.0000      -0.143126        -3.8946
  37   2.0000      -0.134679        -3.6648
  38   2.0000      -0.125606        -3.4179
  39   2.0000      -0.113589        -3.0909
  40   0.0000       0.080200         2.1823
  41   0.0000       0.191946         5.2231
  42   0.0000       0.201255         5.4764
  43   0.0000       0.233791         6.3618
  44   0.0000       0.269521         7.3340

MULLIKEN ATOMIC CHARGES
-----------------------
   0 Pt:    0.097448
   1 Cl:   -0.437162
   2 Cl:   -0.304925
   3 Cl:   -0.440159
   4 C :   -0.900593
   5 H :    0.229953
   6 H :    0.267894
   7 H :    0.238289
   8 H :    0.249254
Sum of atomic charges:   -1.0000000

LOEWDIN ATOMIC CHARGES
----------------------
   0 Pt:   -0.913348
   1 Cl:   -0.142580
   2 Cl:    0.023540
   3 Cl:   -0.143868
   4 C :   -0.477800
   5 H :    0.129975
   6 H :    0.202791
   7 H :    0.132153
   8 H :    0.189137

  Mayer bond orders larger than 0.100000
B(  0-Pt,  1-Cl) :   0.8022 B(  0-Pt,  2-Cl) :   1.0085 B(  0-Pt,  3-Cl) :   0.7874
B(  0-Pt,  4-C ) :   0.1138 B(  1-Cl,  3-Cl) :   0.1119 B(  4-C ,  5-H ) :   0.9111
B(  4-C ,  6-H ) :   0.8384 B(  4-C ,  7-H ) :   0.9078 B(  4-C ,  8-H ) :   0.9011

Dispersion correction           -0.004853511
FINAL SINGLE POINT ENERGY     -1539.021550665359
Dispersion correction            ... done

DIPOLE MOMENT
-------------
                                X             Y             Z
Electronic contribution:      2.85713      -1.28663       2.26711
Nuclear contribution   :     -1.82587       2.18229      -2.77821
                        -----------------------------------------
Total Dipole Moment    :      1.03126       0.89566      -0.51110
                        -----------------------------------------
Magnitude (a.u.)       :      1.45840
Magnitude (Debye)      :      3.70696

Rotational constants in cm-1:     0.054458     0.043581     0.024369
Rotational constants in MHz :  1632.615711  1306.535447   730.571844

                             ****ORCA TERMINATED NORMALLY****
TOTAL RUN TIME: 0 days 0 hours 0 minutes 36 seconds 998 msec
