                         Program Version 5.0.3 -  RELEASE  -
|  1> ! EnGrad PBEh-3c
|  2> %output
|  3> xyzfile=True
|  4> end
|  5> %scf
|  6> maxiter 250
|  7> end
|  8> %output
|  9> Print[P_Hirshfeld] = 1
| 10> end
| 11> % maxcore
| 12> 4000
| 13> *xyz -1 1
| 14> Pt  -0.94044725  -0.85802419   0.51726911
| 15> Cl  -0.23879733  -0.51077999   2.71711281
| 16> Cl  -2.67363764  -2.21643289   1.15509865
| 17> Cl  -1.54895660  -1.11205047  -1.72354584
| 18> C    1.02752754   0.96191024  -0.54214298
| 19> H    1.44544104   1.81069241  -0.00235804
| 20> H    1.26413318  -0.16811602   0.27129189
| 21> H    1.62867245   0.73438316  -1.41199459
| 22> H    0.03482412   1.35812963  -0.98061333
| 23> *
| 24>
| 25>                          ****END OF INPUT****

CARTESIAN COORDINATES (ANGSTROEM)
---------------------------------
  Pt    -0.940447   -0.858024    0.517269
  Cl    -0.238797   -0.510780    2.717113
  Cl    -2.673638   -2.216433    1.155099
  Cl    -1.548957   -1.112050   -1.723546
  C      1.027528    0.961910   -0.542143
  H      1.445441    1.810692   -0.002358
  H      1.264133   -0.168116    0.271292
  H      1.628672    0.734383   -1.411995
  H      0.034824    1.358130   -0.980613

 Total Charge           Charge          ....   -1
 Multiplicity           Mult            ....    1
 Number of Electrons    NEL             ....   80
 Basis Dimension        Dim             ....  109

ORBITAL ENERGIES
----------------

  NO   OCC          E(Eh)            E(eV)
   0   2.0000    -102.107638     -2778.4901
   1   2.0000    -102.087073     -2777.9305
   2   2.0000    -102.086231     -2777.9076
   3   2.0000     -10.359782      -281.9040
   4   2.0000      -9.571093      -260.4427
   5   2.0000      -9.551040      -259.8970
   6   2.0000      -9.550144      -259.8726
   7   2.0000      -7.258498      -197.5138
   8   2.0000      -7.251314      -197.3183
   9   2.0000      -7.250968      -197.3089
  10   2.0000      -7.236939      -196.9271
  11   2.0000      -7.236080      -196.9037
  12   2.0000      -7.232010      -196.7930
  13   2.0000      -7.231954      -196.7915
  14   2.0000      -7.231092      -196.7680
  15   2.0000      -7.231065      -196.7673
  16   2.0000      -3.941753      -107.2606
  17   2.0000      -2.157187       -58.7000
  18   2.0000      -2.155027       -58.6413
  19   2.0000      -2.118822       -57.6561
  20   2.0000      -0.698165       -18.9980
  21   2.0000      -0.682463       -18.5708
  22   2.0000      -0.673722       -18.3329
  23   2.0000      -0.664462       -18.0809
  24   2.0000      -0.359462        -9.7815
  25   2.0000      -0.348338        -9.4788
  26   2.0000      -0.322710        -8.7814
  27   2.0000      -0.281692        -7.6652
  28   2.0000      -0.264890        -7.2080
  29   2.0000      -0.256127        -6.9696
  30   2.0000      -0.227532        -6.1915
  31   2.0000      -0.221390        -6.0243
  32   2.0000      -0.198212        -5.3936
  33   2.0000      -0.177430        -4.8281
  34   2.0000      -0.172189        -4.6855
  35   2.0000      -0.152883        -4.1602
  36   2.0000      -0.144315        -3.9270
  37   2.0000      -0.136964        -3.7270
  38   2.0000      -0.127528        -3.4702
  39   2.0000      -0.115170        -3.1339
  40   0.0000       0.075809         2.0629
  41   0.0000       0.164094         4.4652
  42   0.0000       0.199702         5.4342
  43   0.0000       0.226762         6.1705
  44   0.0000       0.264323         7.1926

MULLIKEN ATOMIC CHARGES
-----------------------
   0 Pt:    0.102271
   1 Cl:   -0.436714
   2 Cl:   -0.322057
   3 Cl:   -0.440685
   4 C :   -0.872960
   5 H :    0.230062
   6 H :    0.225191
   7 H :    0.238846
   8 H :    0.276044
Sum of atomic charges:   -1.0000000

LOEWDIN ATOMIC CHARGES
----------------------
   0 Pt:   -0.897399
   1 Cl:   -0.147349
   2 Cl:   -0.012643
   3 Cl:   -0.149137
   4 C :   -0.462570
   5 H :    0.128640
   6 H :    0.221391
   7 H :    0.131576
   8 H :    0.187492

  Mayer bond orders larger than 0.100000
B(  0-Pt,  1-Cl) :   0.7988 B(  0-Pt,  2-Cl) :   0.9768 B(  0-Pt,  3-Cl) :   0.7857
B(  0-Pt,  4-C ) :   0.1363 B(  0-Pt,  6-H ) :   0.1039 B(  1-Cl,  3-Cl) :   0.1123
B(  4-C ,  5-H ) :   0.9077 B(  4-C ,  6-H ) :   0.8176 B(  4-C ,  7-H ) :   0.9064
B(  4-C ,  8-H ) :   0.8916

Dispersion correction           -0.004928506
FINAL SINGLE POINT ENERGY     -1539.001094519085
Dispersion correction            ... done

DIPOLE MOMENT
-------------
                                X             Y             Z
Electronic contribution:      3.79580       0.04185       2.19071
Nuclear contribution   :     -2.63087       0.95012      -2.74023
                        -----------------------------------------
Total Dipole Moment    :      1.16493       0.99197      -0.54952
                        -----------------------------------------
Magnitude (a.u.)       :      1.62575
Magnitude (Debye)      :      4.13232

Rotational constants in cm-1:     0.052683     0.042983     0.023843
Rotational constants in MHz :  1579.404132  1288.605023   714.801999

                             ****ORCA TERMINATED NORMALLY****
TOTAL RUN TIME: 0 days 0 hours 0 minutes 36 seconds 801 msec
