                         Program Version 5.0.3 -  RELEASE  -
|  1> ! EnGrad PBEh-3c
|  2> %output
|  3> xyzfile=True
|  4> end
|  5> %scf
|  6> maxiter 250
|  7> end
|  8> %output
|  9> Print[P_Hirshfeld] = 1
| 10> end
| 11> % maxcore
| 12> 4000
| 13> *xyz -1 1
| 14> Pt  -0.92258328  -0.87321483   0.51051319
| 15> Cl  -0.22631272  -0.47271739   2.68479684
| 16> Cl  -2.61307596  -2.14145315   1.13720085
| 17> Cl  -1.49475360  -1.11704928  -1.71510329
| 18> C    1.03607228   0.81868736  -0.43601010
| 19> H    1.44579694   1.75108224   0.04060022
| 20> H    1.11417902   0.00887669   0.07460132
| 21> H    1.59957838   0.73123583  -1.41262365
| 22> H    0.05585220   1.29368650  -0.88341450
| 23> *
| 24>
| 25>                          ****END OF INPUT****

CARTESIAN COORDINATES (ANGSTROEM)
---------------------------------
  Pt    -0.922583   -0.873215    0.510513
  Cl    -0.226313   -0.472717    2.684797
  Cl    -2.613076   -2.141453    1.137201
  Cl    -1.494754   -1.117049   -1.715103
  C      1.036072    0.818687   -0.436010
  H      1.445797    1.751082    0.040600
  H      1.114179    0.008877    0.074601
  H      1.599578    0.731236   -1.412624
  H      0.055852    1.293686   -0.883414

 Total Charge           Charge          ....   -1
 Multiplicity           Mult            ....    1
 Number of Electrons    NEL             ....   80
 Basis Dimension        Dim             ....  109

ORBITAL ENERGIES
----------------

  NO   OCC          E(Eh)            E(eV)
   0   2.0000    -102.111564     -2778.5969
   1   2.0000    -102.086632     -2777.9185
   2   2.0000    -102.086610     -2777.9179
   3   2.0000     -10.326800      -281.0065
   4   2.0000      -9.576288      -260.5840
   5   2.0000      -9.550905      -259.8933
   6   2.0000      -9.550806      -259.8906
   7   2.0000      -7.263779      -197.6575
   8   2.0000      -7.256307      -197.4542
   9   2.0000      -7.255953      -197.4445
  10   2.0000      -7.236788      -196.9230
  11   2.0000      -7.236625      -196.9186
  12   2.0000      -7.231863      -196.7890
  13   2.0000      -7.231858      -196.7889
  14   2.0000      -7.231786      -196.7869
  15   2.0000      -7.231675      -196.7839
  16   2.0000      -3.939681      -107.2042
  17   2.0000      -2.158311       -58.7306
  18   2.0000      -2.153154       -58.5903
  19   2.0000      -2.116598       -57.5955
  20   2.0000      -0.708947       -19.2914
  21   2.0000      -0.689291       -18.7566
  22   2.0000      -0.682105       -18.5610
  23   2.0000      -0.674905       -18.3651
  24   2.0000      -0.414407       -11.2766
  25   2.0000      -0.333797        -9.0831
  26   2.0000      -0.321502        -8.7485
  27   2.0000      -0.285911        -7.7800
  28   2.0000      -0.275941        -7.5087
  29   2.0000      -0.269903        -7.3444
  30   2.0000      -0.233549        -6.3552
  31   2.0000      -0.228854        -6.2274
  32   2.0000      -0.200995        -5.4693
  33   2.0000      -0.178709        -4.8629
  34   2.0000      -0.175401        -4.7729
  35   2.0000      -0.153397        -4.1742
  36   2.0000      -0.142476        -3.8770
  37   2.0000      -0.133001        -3.6191
  38   2.0000      -0.124205        -3.3798
  39   2.0000      -0.112535        -3.0622
  40   0.0000       0.084274         2.2932
  41   0.0000       0.199293         5.4230
  42   0.0000       0.204627         5.5682
  43   0.0000       0.253568         6.8999
  44   0.0000       0.272145         7.4054

MULLIKEN ATOMIC CHARGES
-----------------------
   0 Pt:    0.083030
   1 Cl:   -0.436758
   2 Cl:   -0.294470
   3 Cl:   -0.439286
   4 C :   -0.938363
   5 H :    0.221951
   6 H :    0.308038
   7 H :    0.222969
   8 H :    0.272887
Sum of atomic charges:   -1.0000000

LOEWDIN ATOMIC CHARGES
----------------------
   0 Pt:   -0.918417
   1 Cl:   -0.140622
   2 Cl:    0.043097
   3 Cl:   -0.137530
   4 C :   -0.477735
   5 H :    0.131716
   6 H :    0.173917
   7 H :    0.133171
   8 H :    0.192402

  Mayer bond orders larger than 0.100000
B(  0-Pt,  1-Cl) :   0.8046 B(  0-Pt,  2-Cl) :   1.0269 B(  0-Pt,  3-Cl) :   0.7882
B(  0-Pt,  4-C ) :   0.1162 B(  1-Cl,  3-Cl) :   0.1119 B(  4-C ,  5-H ) :   0.9208
B(  4-C ,  6-H ) :   0.8281 B(  4-C ,  7-H ) :   0.9219 B(  4-C ,  8-H ) :   0.8875

Dispersion correction           -0.004916976
FINAL SINGLE POINT ENERGY     -1539.013928391313
Dispersion correction            ... done

DIPOLE MOMENT
-------------
                                X             Y             Z
Electronic contribution:      2.82584      -1.89398       1.95986
Nuclear contribution   :     -1.86991       2.75217      -2.47283
                        -----------------------------------------
Total Dipole Moment    :      0.95594       0.85820      -0.51296
                        -----------------------------------------
Magnitude (a.u.)       :      1.38327
Magnitude (Debye)      :      3.51600

Rotational constants in cm-1:     0.056551     0.043977     0.024892
Rotational constants in MHz :  1695.345581  1318.402513   746.239679

                             ****ORCA TERMINATED NORMALLY****
TOTAL RUN TIME: 0 days 0 hours 0 minutes 37 seconds 987 msec
