                         Program Version 5.0.3 -  RELEASE  -
|  1> ! EnGrad PBEh-3c
|  2> %output
|  3> xyzfile=True
|  4> end
|  5> %scf
|  6> maxiter 250
|  7> end
|  8> %output
|  9> Print[P_Hirshfeld] = 1
| 10> end
| 11> % maxcore
| 12> 4000
| 13> *xyz -1 1
| 14> Pt  -0.93225464  -0.86499078   0.51417078
| 15> Cl  -0.23307176  -0.49332409   2.70229237
| 16> Cl  -2.64586342  -2.18204640   1.14689053
| 17> Cl  -1.52409854  -1.11434298  -1.71967400
| 18> C    1.03144625   0.89622674  -0.49346933
| 19> H    1.44560426   1.78335457   0.01734306
| 20> H    1.19536264  -0.08694532   0.18108754
| 21> H    1.61532961   0.73293976  -1.41228308
| 22> H    0.04446781   1.32857534  -0.93603694
| 23> *
| 24>
| 25>                          ****END OF INPUT****

CARTESIAN COORDINATES (ANGSTROEM)
---------------------------------
  Pt    -0.932255   -0.864991    0.514171
  Cl    -0.233072   -0.493324    2.702292
  Cl    -2.645863   -2.182046    1.146891
  Cl    -1.524099   -1.114343   -1.719674
  C      1.031446    0.896227   -0.493469
  H      1.445604    1.783355    0.017343
  H      1.195363   -0.086945    0.181088
  H      1.615330    0.732940   -1.412283
  H      0.044468    1.328575   -0.936037

 Total Charge           Charge          ....   -1
 Multiplicity           Mult            ....    1
 Number of Electrons    NEL             ....   80
 Basis Dimension        Dim             ....  109

ORBITAL ENERGIES
----------------

  NO   OCC          E(Eh)            E(eV)
   0   2.0000    -102.109752     -2778.5476
   1   2.0000    -102.086920     -2777.9263
   2   2.0000    -102.086440     -2777.9132
   3   2.0000     -10.345337      -281.5109
   4   2.0000      -9.573744      -260.5148
   5   2.0000      -9.550990      -259.8956
   6   2.0000      -9.550517      -259.8828
   7   2.0000      -7.261196      -197.5872
   8   2.0000      -7.253873      -197.3879
   9   2.0000      -7.253524      -197.3784
  10   2.0000      -7.236850      -196.9247
  11   2.0000      -7.236429      -196.9133
  12   2.0000      -7.232002      -196.7928
  13   2.0000      -7.231883      -196.7895
  14   2.0000      -7.231459      -196.7780
  15   2.0000      -7.231430      -196.7772
  16   2.0000      -3.940847      -107.2359
  17   2.0000      -2.157720       -58.7145
  18   2.0000      -2.154230       -58.6196
  19   2.0000      -2.117814       -57.6286
  20   2.0000      -0.702881       -19.1264
  21   2.0000      -0.684382       -18.6230
  22   2.0000      -0.674382       -18.3509
  23   2.0000      -0.668769       -18.1981
  24   2.0000      -0.369586       -10.0570
  25   2.0000      -0.346850        -9.4383
  26   2.0000      -0.328073        -8.9273
  27   2.0000      -0.283875        -7.7246
  28   2.0000      -0.269516        -7.3339
  29   2.0000      -0.263827        -7.1791
  30   2.0000      -0.228944        -6.2299
  31   2.0000      -0.226320        -6.1585
  32   2.0000      -0.199629        -5.4322
  33   2.0000      -0.178042        -4.8448
  34   2.0000      -0.173973        -4.7340
  35   2.0000      -0.153285        -4.1711
  36   2.0000      -0.143562        -3.9065
  37   2.0000      -0.135503        -3.6872
  38   2.0000      -0.126217        -3.4345
  39   2.0000      -0.113998        -3.1020
  40   0.0000       0.079577         2.1654
  41   0.0000       0.189726         5.1627
  42   0.0000       0.202088         5.4991
  43   0.0000       0.243031         6.6132
  44   0.0000       0.268887         7.3168

MULLIKEN ATOMIC CHARGES
-----------------------
   0 Pt:    0.097930
   1 Cl:   -0.437220
   2 Cl:   -0.309099
   3 Cl:   -0.439886
   4 C :   -0.910393
   5 H :    0.226208
   6 H :    0.263787
   7 H :    0.232700
   8 H :    0.275973
Sum of atomic charges:   -1.0000000

LOEWDIN ATOMIC CHARGES
----------------------
   0 Pt:   -0.906483
   1 Cl:   -0.144649
   2 Cl:    0.013058
   3 Cl:   -0.143711
   4 C :   -0.478582
   5 H :    0.128833
   6 H :    0.210260
   7 H :    0.131534
   8 H :    0.189741

  Mayer bond orders larger than 0.100000
B(  0-Pt,  1-Cl) :   0.8019 B(  0-Pt,  2-Cl) :   1.0002 B(  0-Pt,  3-Cl) :   0.7872
B(  0-Pt,  4-C ) :   0.1201 B(  1-Cl,  3-Cl) :   0.1122 B(  4-C ,  5-H ) :   0.9131
B(  4-C ,  6-H ) :   0.8307 B(  4-C ,  7-H ) :   0.9122 B(  4-C ,  8-H ) :   0.8890

Dispersion correction           -0.004848698
FINAL SINGLE POINT ENERGY     -1539.028465777610
Dispersion correction            ... done

DIPOLE MOMENT
-------------
                                X             Y             Z
Electronic contribution:      3.34939      -0.85999       2.09124
Nuclear contribution   :     -2.28188       1.77656      -2.61760
                        -----------------------------------------
Total Dipole Moment    :      1.06751       0.91657      -0.52635
                        -----------------------------------------
Magnitude (a.u.)       :      1.50224
Magnitude (Debye)      :      3.81839

Rotational constants in cm-1:     0.054411     0.043449     0.024320
Rotational constants in MHz :  1631.196027  1302.561266   729.103975

                             ****ORCA TERMINATED NORMALLY****
TOTAL RUN TIME: 0 days 0 hours 0 minutes 37 seconds 775 msec
