                         Program Version 5.0.3 -  RELEASE  -
|  1> ! EnGrad PBEh-3c
|  2> %output
|  3> xyzfile=True
|  4> end
|  5> %scf
|  6> maxiter 250
|  7> end
|  8> %output
|  9> Print[P_Hirshfeld] = 1
| 10> end
| 11> % maxcore
| 12> 4000
| 13> *xyz -1 1
| 14> Pt  -0.91938210  -0.86816457   0.50801352
| 15> Cl  -0.22507993  -0.47121176   2.68510438
| 16> Cl  -2.61731663  -2.14495188   1.13956650
| 17> Cl  -1.49368331  -1.11792260  -1.71727876
| 18> C    1.04115172   0.85655667  -0.46847876
| 19> H    1.44309857   1.73495143   0.04144187
| 20> H    1.11369153   0.00147071   0.08433293
| 21> H    1.59223756   0.72869898  -1.39821785
| 22> H    0.05956646   1.27998302  -0.87368994
| 23> *
| 24>
| 25>                          ****END OF INPUT****

CARTESIAN COORDINATES (ANGSTROEM)
---------------------------------
  Pt    -0.919382   -0.868165    0.508014
  Cl    -0.225080   -0.471212    2.685104
  Cl    -2.617317   -2.144952    1.139566
  Cl    -1.493683   -1.117923   -1.717279
  C      1.041152    0.856557   -0.468479
  H      1.443099    1.734951    0.041442
  H      1.113692    0.001471    0.084333
  H      1.592238    0.728699   -1.398218
  H      0.059566    1.279983   -0.873690

 Total Charge           Charge          ....   -1
 Multiplicity           Mult            ....    1
 Number of Electrons    NEL             ....   80
 Basis Dimension        Dim             ....  109

ORBITAL ENERGIES
----------------

  NO   OCC          E(Eh)            E(eV)
   0   2.0000    -102.111559     -2778.5968
   1   2.0000    -102.087053     -2777.9299
   2   2.0000    -102.086795     -2777.9229
   3   2.0000     -10.321077      -280.8508
   4   2.0000      -9.576085      -260.5785
   5   2.0000      -9.551310      -259.9043
   6   2.0000      -9.550964      -259.8949
   7   2.0000      -7.263576      -197.6519
   8   2.0000      -7.256128      -197.4493
   9   2.0000      -7.255774      -197.4397
  10   2.0000      -7.237195      -196.9341
  11   2.0000      -7.236791      -196.9231
  12   2.0000      -7.232266      -196.8000
  13   2.0000      -7.232194      -196.7980
  14   2.0000      -7.232013      -196.7931
  15   2.0000      -7.231835      -196.7882
  16   2.0000      -3.940202      -107.2184
  17   2.0000      -2.158438       -58.7341
  18   2.0000      -2.153700       -58.6051
  19   2.0000      -2.117117       -57.6097
  20   2.0000      -0.707875       -19.2623
  21   2.0000      -0.689382       -18.7590
  22   2.0000      -0.682506       -18.5719
  23   2.0000      -0.675084       -18.3700
  24   2.0000      -0.397806       -10.8249
  25   2.0000      -0.347025        -9.4430
  26   2.0000      -0.330895        -9.0041
  27   2.0000      -0.286004        -7.7826
  28   2.0000      -0.274801        -7.4777
  29   2.0000      -0.269903        -7.3444
  30   2.0000      -0.232436        -6.3249
  31   2.0000      -0.228979        -6.2308
  32   2.0000      -0.201056        -5.4710
  33   2.0000      -0.178855        -4.8669
  34   2.0000      -0.175626        -4.7790
  35   2.0000      -0.153750        -4.1838
  36   2.0000      -0.142988        -3.8909
  37   2.0000      -0.134033        -3.6472
  38   2.0000      -0.124928        -3.3995
  39   2.0000      -0.112995        -3.0747
  40   0.0000       0.082839         2.2542
  41   0.0000       0.198379         5.3982
  42   0.0000       0.204420         5.5625
  43   0.0000       0.260388         7.0855
  44   0.0000       0.272305         7.4098

MULLIKEN ATOMIC CHARGES
-----------------------
   0 Pt:    0.084621
   1 Cl:   -0.436324
   2 Cl:   -0.297554
   3 Cl:   -0.439225
   4 C :   -0.934046
   5 H :    0.226995
   6 H :    0.289525
   7 H :    0.232696
   8 H :    0.273312
Sum of atomic charges:   -1.0000000

LOEWDIN ATOMIC CHARGES
----------------------
   0 Pt:   -0.913606
   1 Cl:   -0.141201
   2 Cl:    0.036177
   3 Cl:   -0.137518
   4 C :   -0.478712
   5 H :    0.131620
   6 H :    0.181810
   7 H :    0.133957
   8 H :    0.187473

  Mayer bond orders larger than 0.100000
B(  0-Pt,  1-Cl) :   0.8053 B(  0-Pt,  2-Cl) :   1.0204 B(  0-Pt,  3-Cl) :   0.7888
B(  0-Pt,  4-C ) :   0.1168 B(  1-Cl,  3-Cl) :   0.1121 B(  4-C ,  5-H ) :   0.9192
B(  4-C ,  6-H ) :   0.8320 B(  4-C ,  7-H ) :   0.9179 B(  4-C ,  8-H ) :   0.8897

Dispersion correction           -0.004912907
FINAL SINGLE POINT ENERGY     -1539.033650877162
Dispersion correction            ... done

DIPOLE MOMENT
-------------
                                X             Y             Z
Electronic contribution:      3.04129      -1.72272       1.94896
Nuclear contribution   :     -2.06536       2.57557      -2.45649
                        -----------------------------------------
Total Dipole Moment    :      0.97593       0.85285      -0.50753
                        -----------------------------------------
Magnitude (a.u.)       :      1.39190
Magnitude (Debye)      :      3.53792

Rotational constants in cm-1:     0.055934     0.043913     0.024751
Rotational constants in MHz :  1676.853386  1316.479813   742.013735

                             ****ORCA TERMINATED NORMALLY****
TOTAL RUN TIME: 0 days 0 hours 0 minutes 37 seconds 546 msec
