                         Program Version 5.0.3 -  RELEASE  -
|  1> ! EnGrad PBEh-3c
|  2> %output
|  3> xyzfile=True
|  4> end
|  5> %scf
|  6> maxiter 250
|  7> end
|  8> %output
|  9> Print[P_Hirshfeld] = 1
| 10> end
| 11> % maxcore
| 12> 4000
| 13> *xyz -1 1
| 14> Pt  -0.91909846  -0.86625742   0.50545742
| 15> Cl  -0.22253991  -0.46581725   2.67952847
| 16> Cl  -2.61553776  -2.14094368   1.14147868
| 17> Cl  -1.48594068  -1.11831674  -1.71752792
| 18> C    1.02537427   0.93148370  -0.52092075
| 19> H    1.44760835   1.71314304   0.05391208
| 20> H    1.09090464  -0.01578058   0.08943137
| 21> H    1.59197874   0.72174066  -1.39145245
| 22> H    0.07956447   1.24034867  -0.83864913
| 23> *
| 24>
| 25>                          ****END OF INPUT****

CARTESIAN COORDINATES (ANGSTROEM)
---------------------------------
  Pt    -0.919098   -0.866257    0.505457
  Cl    -0.222540   -0.465817    2.679528
  Cl    -2.615538   -2.140944    1.141479
  Cl    -1.485941   -1.118317   -1.717528
  C      1.025374    0.931484   -0.520921
  H      1.447608    1.713143    0.053912
  H      1.090905   -0.015781    0.089431
  H      1.591979    0.721741   -1.391452
  H      0.079564    1.240349   -0.838649

 Total Charge           Charge          ....   -1
 Multiplicity           Mult            ....    1
 Number of Electrons    NEL             ....   80
 Basis Dimension        Dim             ....  109

ORBITAL ENERGIES
----------------

  NO   OCC          E(Eh)            E(eV)
   0   2.0000    -102.111537     -2778.5962
   1   2.0000    -102.087775     -2777.9496
   2   2.0000    -102.086600     -2777.9176
   3   2.0000     -10.315718      -280.7050
   4   2.0000      -9.576098      -260.5789
   5   2.0000      -9.552064      -259.9249
   6   2.0000      -9.550804      -259.8906
   7   2.0000      -7.263571      -197.6518
   8   2.0000      -7.256150      -197.4499
   9   2.0000      -7.255791      -197.4401
  10   2.0000      -7.237933      -196.9542
  11   2.0000      -7.236638      -196.9189
  12   2.0000      -7.233036      -196.8209
  13   2.0000      -7.232943      -196.8184
  14   2.0000      -7.231840      -196.7884
  15   2.0000      -7.231673      -196.7838
  16   2.0000      -3.940580      -107.2286
  17   2.0000      -2.158779       -58.7434
  18   2.0000      -2.154024       -58.6140
  19   2.0000      -2.117486       -57.6197
  20   2.0000      -0.708155       -19.2699
  21   2.0000      -0.691451       -18.8153
  22   2.0000      -0.683935       -18.6108
  23   2.0000      -0.675419       -18.3791
  24   2.0000      -0.371874       -10.1192
  25   2.0000      -0.362170        -9.8551
  26   2.0000      -0.353138        -9.6094
  27   2.0000      -0.286649        -7.8001
  28   2.0000      -0.274805        -7.4778
  29   2.0000      -0.270777        -7.3682
  30   2.0000      -0.232727        -6.3328
  31   2.0000      -0.229648        -6.2490
  32   2.0000      -0.201549        -5.4844
  33   2.0000      -0.179306        -4.8792
  34   2.0000      -0.175987        -4.7888
  35   2.0000      -0.154127        -4.1940
  36   2.0000      -0.143257        -3.8982
  37   2.0000      -0.134229        -3.6525
  38   2.0000      -0.124779        -3.3954
  39   2.0000      -0.113008        -3.0751
  40   0.0000       0.082687         2.2500
  41   0.0000       0.196219         5.3394
  42   0.0000       0.204720         5.5707
  43   0.0000       0.268252         7.2995
  44   0.0000       0.271654         7.3921

MULLIKEN ATOMIC CHARGES
-----------------------
   0 Pt:    0.076967
   1 Cl:   -0.435322
   2 Cl:   -0.299194
   3 Cl:   -0.439167
   4 C :   -0.918038
   5 H :    0.232765
   6 H :    0.255933
   7 H :    0.237055
   8 H :    0.289000
Sum of atomic charges:   -1.0000000

LOEWDIN ATOMIC CHARGES
----------------------
   0 Pt:   -0.920093
   1 Cl:   -0.140672
   2 Cl:    0.035228
   3 Cl:   -0.135484
   4 C :   -0.469995
   5 H :    0.132066
   6 H :    0.188432
   7 H :    0.134393
   8 H :    0.176124

  Mayer bond orders larger than 0.100000
B(  0-Pt,  1-Cl) :   0.8067 B(  0-Pt,  2-Cl) :   1.0148 B(  0-Pt,  3-Cl) :   0.7894
B(  0-Pt,  4-C ) :   0.1245 B(  1-Cl,  3-Cl) :   0.1120 B(  4-C ,  5-H ) :   0.9168
B(  4-C ,  6-H ) :   0.8337 B(  4-C ,  7-H ) :   0.9176 B(  4-C ,  8-H ) :   0.8824

Dispersion correction           -0.004920027
FINAL SINGLE POINT ENERGY     -1539.041613237166
Dispersion correction            ... done

DIPOLE MOMENT
-------------
                                X             Y             Z
Electronic contribution:      2.96934      -2.08039       2.09038
Nuclear contribution   :     -1.98303       2.90984      -2.58380
                        -----------------------------------------
Total Dipole Moment    :      0.98631       0.82945      -0.49342
                        -----------------------------------------
Magnitude (a.u.)       :      1.37995
Magnitude (Debye)      :      3.50754

Rotational constants in cm-1:     0.055447     0.043976     0.024680
Rotational constants in MHz :  1662.261553  1318.357422   739.874003

                             ****ORCA TERMINATED NORMALLY****
TOTAL RUN TIME: 0 days 0 hours 0 minutes 37 seconds 889 msec
