                         Program Version 5.0.3 -  RELEASE  -
|  1> ! EnGrad PBEh-3c
|  2> %output
|  3> xyzfile=True
|  4> end
|  5> %scf
|  6> maxiter 250
|  7> end
|  8> %output
|  9> Print[P_Hirshfeld] = 1
| 10> end
| 11> % maxcore
| 12> 4000
| 13> *xyz -1 1
| 14> Pt  -0.91790115  -0.86362091   0.50466661
| 15> Cl  -0.22164297  -0.46445265   2.67841475
| 16> Cl  -2.61938224  -2.14363009   1.14420178
| 17> Cl  -1.48427585  -1.11829744  -1.71908184
| 18> C    1.02995010   0.92788103  -0.52030488
| 19> H    1.45557345   1.71711344   0.06375623
| 20> H    1.08398618  -0.00933539   0.08569184
| 21> H    1.60009203   0.71895676  -1.40001688
| 22> H    0.06484250   1.23512789  -0.83574961
| 23> *
| 24>
| 25>                          ****END OF INPUT****

CARTESIAN COORDINATES (ANGSTROEM)
---------------------------------
  Pt    -0.917901   -0.863621    0.504667
  Cl    -0.221643   -0.464453    2.678415
  Cl    -2.619382   -2.143630    1.144202
  Cl    -1.484276   -1.118297   -1.719082
  C      1.029950    0.927881   -0.520305
  H      1.455573    1.717113    0.063756
  H      1.083986   -0.009335    0.085692
  H      1.600092    0.718957   -1.400017
  H      0.064842    1.235128   -0.835750

 Total Charge           Charge          ....   -1
 Multiplicity           Mult            ....    1
 Number of Electrons    NEL             ....   80
 Basis Dimension        Dim             ....  109

ORBITAL ENERGIES
----------------

  NO   OCC          E(Eh)            E(eV)
   0   2.0000    -102.111702     -2778.6007
   1   2.0000    -102.087974     -2777.9550
   2   2.0000    -102.086997     -2777.9284
   3   2.0000     -10.318547      -280.7820
   4   2.0000      -9.576129      -260.5797
   5   2.0000      -9.552253      -259.9300
   6   2.0000      -9.551204      -259.9015
   7   2.0000      -7.263607      -197.6528
   8   2.0000      -7.256192      -197.4510
   9   2.0000      -7.255838      -197.4414
  10   2.0000      -7.238123      -196.9593
  11   2.0000      -7.237040      -196.9299
  12   2.0000      -7.233225      -196.8260
  13   2.0000      -7.233134      -196.8236
  14   2.0000      -7.232237      -196.7992
  15   2.0000      -7.232068      -196.7946
  16   2.0000      -3.940921      -107.2379
  17   2.0000      -2.158925       -58.7473
  18   2.0000      -2.154444       -58.6254
  19   2.0000      -2.117835       -57.6292
  20   2.0000      -0.707565       -19.2538
  21   2.0000      -0.689909       -18.7734
  22   2.0000      -0.683174       -18.5901
  23   2.0000      -0.675691       -18.3865
  24   2.0000      -0.370099       -10.0709
  25   2.0000      -0.359732        -9.7888
  26   2.0000      -0.353315        -9.6142
  27   2.0000      -0.286892        -7.8067
  28   2.0000      -0.274292        -7.4639
  29   2.0000      -0.270116        -7.3502
  30   2.0000      -0.232129        -6.3166
  31   2.0000      -0.229781        -6.2527
  32   2.0000      -0.201703        -5.4886
  33   2.0000      -0.179520        -4.8850
  34   2.0000      -0.176263        -4.7964
  35   2.0000      -0.154488        -4.2038
  36   2.0000      -0.143657        -3.9091
  37   2.0000      -0.134933        -3.6717
  38   2.0000      -0.125252        -3.4083
  39   2.0000      -0.113344        -3.0842
  40   0.0000       0.081334         2.2132
  41   0.0000       0.196398         5.3443
  42   0.0000       0.203957         5.5500
  43   0.0000       0.267972         7.2919
  44   0.0000       0.271300         7.3824

MULLIKEN ATOMIC CHARGES
-----------------------
   0 Pt:    0.077176
   1 Cl:   -0.434645
   2 Cl:   -0.300203
   3 Cl:   -0.438986
   4 C :   -0.913720
   5 H :    0.230302
   6 H :    0.258857
   7 H :    0.235267
   8 H :    0.285951
Sum of atomic charges:   -1.0000000

LOEWDIN ATOMIC CHARGES
----------------------
   0 Pt:   -0.916734
   1 Cl:   -0.139705
   2 Cl:    0.031395
   3 Cl:   -0.135708
   4 C :   -0.469891
   5 H :    0.132064
   6 H :    0.186438
   7 H :    0.134374
   8 H :    0.177768

  Mayer bond orders larger than 0.100000
B(  0-Pt,  1-Cl) :   0.8077 B(  0-Pt,  2-Cl) :   1.0123 B(  0-Pt,  3-Cl) :   0.7896
B(  0-Pt,  4-C ) :   0.1246 B(  1-Cl,  3-Cl) :   0.1122 B(  4-C ,  5-H ) :   0.9175
B(  4-C ,  6-H ) :   0.8317 B(  4-C ,  7-H ) :   0.9181 B(  4-C ,  8-H ) :   0.8828

Dispersion correction           -0.004918608
FINAL SINGLE POINT ENERGY     -1539.043661314829
Dispersion correction            ... done

DIPOLE MOMENT
-------------
                                X             Y             Z
Electronic contribution:      3.03909      -1.89140       2.04424
Nuclear contribution   :     -2.05380       2.72044      -2.53317
                        -----------------------------------------
Total Dipole Moment    :      0.98529       0.82904      -0.48894
                        -----------------------------------------
Magnitude (a.u.)       :      1.37737
Magnitude (Debye)      :      3.50101

Rotational constants in cm-1:     0.055268     0.043968     0.024640
Rotational constants in MHz :  1656.890291  1318.118010   738.690517

                             ****ORCA TERMINATED NORMALLY****
TOTAL RUN TIME: 0 days 0 hours 0 minutes 38 seconds 265 msec
