                         Program Version 5.0.3 -  RELEASE  -
|  1> ! EnGrad PBEh-3c
|  2> %output
|  3> xyzfile=True
|  4> end
|  5> %scf
|  6> maxiter 250
|  7> end
|  8> %output
|  9> Print[P_Hirshfeld] = 1
| 10> end
| 11> % maxcore
| 12> 4000
| 13> *xyz -1 1
| 14> Pt  -0.91609660  -0.85821724   0.50304437
| 15> Cl  -0.21817139  -0.45896792   2.67589380
| 16> Cl  -2.62707170  -2.14830644   1.15065413
| 17> Cl  -1.47841408  -1.11896057  -1.72465993
| 18> C    1.03530210   0.92249033  -0.51789515
| 19> H    1.47218928   1.72081502   0.08386692
| 20> H    1.07020179   0.00111864   0.07930554
| 21> H    1.61637980   0.71421586  -1.41845335
| 22> H    0.03399367   1.22599863  -0.82920746
| 23> *
| 24>
| 25>                          ****END OF INPUT****

CARTESIAN COORDINATES (ANGSTROEM)
---------------------------------
  Pt    -0.916097   -0.858217    0.503044
  Cl    -0.218171   -0.458968    2.675894
  Cl    -2.627072   -2.148306    1.150654
  Cl    -1.478414   -1.118961   -1.724660
  C      1.035302    0.922490   -0.517895
  H      1.472189    1.720815    0.083867
  H      1.070202    0.001119    0.079306
  H      1.616380    0.714216   -1.418453
  H      0.033994    1.225999   -0.829207

 Total Charge           Charge          ....   -1
 Multiplicity           Mult            ....    1
 Number of Electrons    NEL             ....   80
 Basis Dimension        Dim             ....  109

ORBITAL ENERGIES
----------------

  NO   OCC          E(Eh)            E(eV)
   0   2.0000    -102.111993     -2778.6086
   1   2.0000    -102.088369     -2777.9657
   2   2.0000    -102.087856     -2777.9518
   3   2.0000     -10.324552      -280.9453
   4   2.0000      -9.576171      -260.5809
   5   2.0000      -9.552606      -259.9396
   6   2.0000      -9.552057      -259.9247
   7   2.0000      -7.263653      -197.6540
   8   2.0000      -7.256254      -197.4527
   9   2.0000      -7.255911      -197.4434
  10   2.0000      -7.238477      -196.9690
  11   2.0000      -7.237904      -196.9534
  12   2.0000      -7.233579      -196.8357
  13   2.0000      -7.233492      -196.8333
  14   2.0000      -7.233085      -196.8223
  15   2.0000      -7.232914      -196.8176
  16   2.0000      -3.941686      -107.2587
  17   2.0000      -2.159318       -58.7580
  18   2.0000      -2.155322       -58.6493
  19   2.0000      -2.118612       -57.6504
  20   2.0000      -0.706452       -19.2235
  21   2.0000      -0.688296       -18.7295
  22   2.0000      -0.680445       -18.5158
  23   2.0000      -0.676161       -18.3993
  24   2.0000      -0.368047       -10.0151
  25   2.0000      -0.355106        -9.6629
  26   2.0000      -0.351785        -9.5725
  27   2.0000      -0.287198        -7.8151
  28   2.0000      -0.273189        -7.4339
  29   2.0000      -0.268727        -7.3124
  30   2.0000      -0.231461        -6.2984
  31   2.0000      -0.229488        -6.2447
  32   2.0000      -0.202017        -5.4971
  33   2.0000      -0.179935        -4.8963
  34   2.0000      -0.176761        -4.8099
  35   2.0000      -0.155267        -4.2250
  36   2.0000      -0.144511        -3.9323
  37   2.0000      -0.136299        -3.7089
  38   2.0000      -0.126203        -3.4342
  39   2.0000      -0.114174        -3.1068
  40   0.0000       0.078688         2.1412
  41   0.0000       0.196419         5.3448
  42   0.0000       0.202272         5.5041
  43   0.0000       0.266705         7.2574
  44   0.0000       0.270736         7.3671

MULLIKEN ATOMIC CHARGES
-----------------------
   0 Pt:    0.077604
   1 Cl:   -0.433455
   2 Cl:   -0.302262
   3 Cl:   -0.438892
   4 C :   -0.904484
   5 H :    0.226333
   6 H :    0.264407
   7 H :    0.230467
   8 H :    0.280283
Sum of atomic charges:   -1.0000000

LOEWDIN ATOMIC CHARGES
----------------------
   0 Pt:   -0.909811
   1 Cl:   -0.138138
   2 Cl:    0.023778
   3 Cl:   -0.137043
   4 C :   -0.469131
   5 H :    0.132042
   6 H :    0.182989
   7 H :    0.134378
   8 H :    0.180935

  Mayer bond orders larger than 0.100000
B(  0-Pt,  1-Cl) :   0.8093 B(  0-Pt,  2-Cl) :   1.0075 B(  0-Pt,  3-Cl) :   0.7892
B(  0-Pt,  4-C ) :   0.1255 B(  1-Cl,  3-Cl) :   0.1125 B(  4-C ,  5-H ) :   0.9181
B(  4-C ,  6-H ) :   0.8268 B(  4-C ,  7-H ) :   0.9198 B(  4-C ,  8-H ) :   0.8831

Dispersion correction           -0.004916259
FINAL SINGLE POINT ENERGY     -1539.044897872306
Dispersion correction            ... done

DIPOLE MOMENT
-------------
                                X             Y             Z
Electronic contribution:      3.10348      -1.55181       1.97084
Nuclear contribution   :     -2.11870       2.38052      -2.44868
                        -----------------------------------------
Total Dipole Moment    :      0.98478       0.82871      -0.47784
                        -----------------------------------------
Magnitude (a.u.)       :      1.37291
Magnitude (Debye)      :      3.48966

Rotational constants in cm-1:     0.054930     0.043906     0.024552
Rotational constants in MHz :  1646.756244  1316.280407   736.045560

                             ****ORCA TERMINATED NORMALLY****
TOTAL RUN TIME: 0 days 0 hours 0 minutes 37 seconds 785 msec
