                         Program Version 5.0.3 -  RELEASE  -
|  1> ! EnGrad PBEh-3c
|  2> %output
|  3> xyzfile=True
|  4> end
|  5> %scf
|  6> maxiter 250
|  7> end
|  8> %output
|  9> Print[P_Hirshfeld] = 1
| 10> end
| 11> % maxcore
| 12> 4000
| 13> %pal nprocs 4
| 14> end
| 15> *xyz 0 1
| 16> Lu   0.13111000  -0.50802000   0.36757000
| 17> C    0.61193000   0.31185000   2.74454000
| 18> C    1.81608000  -0.27162000   2.29224000
| 19> C    2.32957000   0.53465000   1.25633000
| 20> C    1.43818000   1.60555000   1.05464000
| 21> C    0.37678000   1.46758000   1.97669000
| 22> H    1.56434000   2.40515000   0.33816000
| 23> H   -0.46641000   2.13543000   2.08091000
| 24> H   -0.02377000  -0.06565000   3.53094000
| 25> H    2.28605000  -1.15754000   2.69658000
| 26> H    3.24896000   0.36501000   0.71638000
| 27> C    0.51614000  -0.19466000  -2.17519000
| 28> C   -0.59535000  -1.05764000  -2.05819000
| 29> C    1.24028000  -2.16116000  -1.27792000
| 30> C    1.65142000  -0.88215000  -1.70424000
| 31> H    0.50712000   0.80019000  -2.59746000
| 32> C   -0.14981000  -2.27091000  -1.50672000
| 33> H   -1.61099000  -0.83070000  -2.34714000
| 34> H    2.66113000  -0.50063000  -1.69114000
| 35> H    1.88617000  -2.94079000  -0.89899000
| 36> H   -0.76610000  -3.13206000  -1.29644000
| 37> C   -1.99763000  -1.15350000   1.05346000
| 38> H   -2.37406000  -0.74151000   1.99465000
| 39> H   -2.05364000  -2.24652000   1.15834000
| 40> H   -2.75313000  -0.91636000   0.29263000
| 41> C   -1.89263000   2.28084000  -1.20132000
| 42> H   -2.01089000   1.49015000  -0.46162000
| 43> H   -0.86844000   2.64667000  -1.19905000
| 44> H   -2.56572000   3.09649000  -0.95251000
| 45> H   -2.13670000   1.89189000  -2.18615000
| 46> *
| 47>
| 48>                          ****END OF INPUT****

CARTESIAN COORDINATES (ANGSTROEM)
---------------------------------
  Lu     0.131110   -0.508020    0.367570
  C      0.611930    0.311850    2.744540
  C      1.816080   -0.271620    2.292240
  C      2.329570    0.534650    1.256330
  C      1.438180    1.605550    1.054640
  C      0.376780    1.467580    1.976690
  H      1.564340    2.405150    0.338160
  H     -0.466410    2.135430    2.080910
  H     -0.023770   -0.065650    3.530940
  H      2.286050   -1.157540    2.696580
  H      3.248960    0.365010    0.716380
  C      0.516140   -0.194660   -2.175190
  C     -0.595350   -1.057640   -2.058190
  C      1.240280   -2.161160   -1.277920
  C      1.651420   -0.882150   -1.704240
  H      0.507120    0.800190   -2.597460
  C     -0.149810   -2.270910   -1.506720
  H     -1.610990   -0.830700   -2.347140
  H      2.661130   -0.500630   -1.691140
  H      1.886170   -2.940790   -0.898990
  H     -0.766100   -3.132060   -1.296440
  C     -1.997630   -1.153500    1.053460
  H     -2.374060   -0.741510    1.994650
  H     -2.053640   -2.246520    1.158340
  H     -2.753130   -0.916360    0.292630
  C     -1.892630    2.280840   -1.201320
  H     -2.010890    1.490150   -0.461620
  H     -0.868440    2.646670   -1.199050
  H     -2.565720    3.096490   -0.952510
  H     -2.136700    1.891890   -2.186150

 Total Charge           Charge          ....    0
 Multiplicity           Mult            ....    1
 Number of Electrons    NEL             ....  132
 Basis Dimension        Dim             ....  295

ORBITAL ENERGIES
----------------

  NO   OCC          E(Eh)            E(eV)
   0   2.0000     -19.243380      -523.6390
   1   2.0000     -12.615984      -343.2984
   2   2.0000     -12.613271      -343.2246
   3   2.0000     -12.612719      -343.2095
   4   2.0000     -10.448963      -284.3307
   5   2.0000     -10.447842      -284.3002
   6   2.0000     -10.447673      -284.2956
   7   2.0000     -10.446896      -284.2745
   8   2.0000     -10.446808      -284.2721
   9   2.0000     -10.445685      -284.2415
  10   2.0000     -10.445412      -284.2341
  11   2.0000     -10.444967      -284.2220
  12   2.0000     -10.443873      -284.1922
  13   2.0000     -10.443259      -284.1755
  14   2.0000     -10.430347      -283.8242
  15   2.0000     -10.360261      -281.9170
  16   2.0000      -5.884917      -160.1367
  17   2.0000      -5.884578      -160.1275
  18   2.0000      -5.883984      -160.1114
  19   2.0000      -5.882385      -160.0678
  20   2.0000      -5.882237      -160.0638
  21   2.0000      -2.427566       -66.0574
  22   2.0000      -1.268333       -34.5131
  23   2.0000      -1.267100       -34.4795
  24   2.0000      -1.255678       -34.1687
  25   2.0000      -0.982667       -26.7397
  26   2.0000      -0.971841       -26.4451
  27   2.0000      -0.797123       -21.6908
  28   2.0000      -0.796619       -21.6771
  29   2.0000      -0.795436       -21.6449
  30   2.0000      -0.793006       -21.5788
  31   2.0000      -0.789636       -21.4871
  32   2.0000      -0.701921       -19.1002
  33   2.0000      -0.616915       -16.7871
  34   2.0000      -0.614872       -16.7315
  35   2.0000      -0.611740       -16.6463
  36   2.0000      -0.610953       -16.6249
  37   2.0000      -0.598840       -16.2953
  38   2.0000      -0.593524       -16.1506
  39   2.0000      -0.552978       -15.0473
  40   2.0000      -0.551376       -15.0037
  41   2.0000      -0.551283       -15.0012
  42   2.0000      -0.550029       -14.9671
  43   2.0000      -0.549639       -14.9564
  44   2.0000      -0.548281       -14.9195
  45   2.0000      -0.546400       -14.8683
  46   2.0000      -0.470549       -12.8043
  47   2.0000      -0.465082       -12.6555
  48   2.0000      -0.462931       -12.5970
  49   2.0000      -0.460133       -12.5209
  50   2.0000      -0.454980       -12.3806
  51   2.0000      -0.453498       -12.3403
  52   2.0000      -0.450959       -12.2712
  53   2.0000      -0.449204       -12.2235
  54   2.0000      -0.435745       -11.8572
  55   2.0000      -0.434749       -11.8301
  56   2.0000      -0.431959       -11.7542
  57   2.0000      -0.431508       -11.7419
  58   2.0000      -0.430715       -11.7203
  59   2.0000      -0.396662       -10.7937
  60   2.0000      -0.393457       -10.7065
  61   2.0000      -0.292325        -7.9546
  62   2.0000      -0.290362        -7.9011
  63   2.0000      -0.280368        -7.6292
  64   2.0000      -0.268991        -7.3196
  65   2.0000      -0.259433        -7.0595
  66   0.0000      -0.022391        -0.6093
  67   0.0000       0.007521         0.2047
  68   0.0000       0.042741         1.1630
  69   0.0000       0.051549         1.4027
  70   0.0000       0.053715         1.4617

MULLIKEN ATOMIC CHARGES
-----------------------
   0 Lu:    0.850179
   1 C :   -0.264750
   2 C :   -0.324845
   3 C :   -0.256919
   4 C :   -0.300927
   5 C :   -0.291663
   6 H :    0.237720
   7 H :    0.248262
   8 H :    0.249989
   9 H :    0.242065
  10 H :    0.235792
  11 C :   -0.306947
  12 C :   -0.273944
  13 C :   -0.326195
  14 C :   -0.258942
  15 H :    0.235671
  16 C :   -0.261227
  17 H :    0.242729
  18 H :    0.233115
  19 H :    0.239109
  20 H :    0.245636
  21 C :   -1.077675
  22 H :    0.219293
  23 H :    0.216039
  24 H :    0.216073
  25 C :   -0.922759
  26 H :    0.247275
  27 H :    0.226548
  28 H :    0.244118
  29 H :    0.237179
Sum of atomic charges:   -0.0000000

LOEWDIN ATOMIC CHARGES
----------------------
   0 Lu:    0.001145
   1 C :   -0.127137
   2 C :   -0.150714
   3 C :   -0.128153
   4 C :   -0.145642
   5 C :   -0.136268
   6 H :    0.154243
   7 H :    0.159122
   8 H :    0.161084
   9 H :    0.155750
  10 H :    0.153025
  11 C :   -0.150046
  12 C :   -0.131564
  13 C :   -0.153586
  14 C :   -0.129338
  15 H :    0.153365
  16 C :   -0.128933
  17 H :    0.156720
  18 H :    0.151973
  19 H :    0.154426
  20 H :    0.158621
  21 C :   -0.646248
  22 H :    0.133193
  23 H :    0.141512
  24 H :    0.138230
  25 C :   -0.505344
  26 H :    0.150037
  27 H :    0.135008
  28 H :    0.138187
  29 H :    0.137332

  Mayer bond orders larger than 0.100000
B(  0-Lu,  1-C ) :   0.2422 B(  0-Lu,  2-C ) :   0.2796 B(  0-Lu,  3-C ) :   0.2532
B(  0-Lu,  4-C ) :   0.2689 B(  0-Lu,  5-C ) :   0.2652 B(  0-Lu, 11-C ) :   0.2710
B(  0-Lu, 12-C ) :   0.2488 B(  0-Lu, 13-C ) :   0.2788 B(  0-Lu, 14-C ) :   0.2559
B(  0-Lu, 16-C ) :   0.2432 B(  0-Lu, 21-C ) :   0.8186 B(  1-C ,  2-C ) :   1.2775
B(  1-C ,  5-C ) :   1.3067 B(  1-C ,  8-H ) :   0.9110 B(  2-C ,  3-C ) :   1.2877
B(  2-C ,  9-H ) :   0.9145 B(  3-C ,  4-C ) :   1.2969 B(  3-C , 10-H ) :   0.9160
B(  4-C ,  5-C ) :   1.2719 B(  4-C ,  6-H ) :   0.9152 B(  5-C ,  7-H ) :   0.9105
B( 11-C , 12-C ) :   1.2753 B( 11-C , 14-C ) :   1.2951 B( 11-C , 15-H ) :   0.9162
B( 12-C , 16-C ) :   1.3190 B( 12-C , 17-H ) :   0.9129 B( 13-C , 14-C ) :   1.2877
B( 13-C , 16-C ) :   1.2753 B( 13-C , 19-H ) :   0.9158 B( 14-C , 18-H ) :   0.9176
B( 16-C , 20-H ) :   0.9126 B( 21-C , 22-H ) :   0.9096 B( 21-C , 23-H ) :   0.8996
B( 21-C , 24-H ) :   0.8999 B( 25-C , 26-H ) :   0.8929 B( 25-C , 27-H ) :   0.9194
B( 25-C , 28-H ) :   0.9229 B( 25-C , 29-H ) :   0.9224

Dispersion correction           -0.017646524
FINAL SINGLE POINT ENERGY     -1702.395119200827
Dispersion correction            ... done

DIPOLE MOMENT
-------------
                                X             Y             Z
Electronic contribution:      0.10570     -22.68891      17.48911
Nuclear contribution   :      0.35804      22.93899     -17.67934
                        -----------------------------------------
Total Dipole Moment    :      0.46374       0.25007      -0.19023
                        -----------------------------------------
Magnitude (a.u.)       :      0.56016
Magnitude (Debye)      :      1.42382

Rotational constants in cm-1:     0.027938     0.019767     0.017601
Rotational constants in MHz :   837.553460   592.588043   527.670663

                             ****ORCA TERMINATED NORMALLY****
TOTAL RUN TIME: 0 days 0 hours 2 minutes 39 seconds 906 msec
