                         Program Version 5.0.3 -  RELEASE  -
|  1> ! EnGrad PBEh-3c
|  2> %output
|  3> xyzfile=True
|  4> end
|  5> %scf
|  6> maxiter 250
|  7> end
|  8> %output
|  9> Print[P_Hirshfeld] = 1
| 10> end
| 11> % maxcore
| 12> 4000
| 13> *xyz -1 1
| 14> C   -2.73298609  -0.32933623   0.87782992
| 15> C   -2.10833393   0.88687669   1.17040263
| 16> C   -3.98762263  -0.61850662   1.40392352
| 17> C   -4.65954413   0.33225353   2.15957748
| 18> C   -4.02503862   1.51768163   2.49363836
| 19> C   -2.72132700   1.74571049   2.07898556
| 20> H   -2.40918319  -1.21883096  -0.11234750
| 21> H   -4.49018099  -1.54467505   1.15143657
| 22> H   -2.22894481   2.66473501   2.37898391
| 23> H   -5.65902477   0.12187680   2.52029359
| 24> H   -4.53375283   2.24796338   3.11115806
| 25> C   -0.78516272   1.26610207   0.56891959
| 26> C    0.37384898   0.55398829   1.27153860
| 27> H   -0.62188924   2.34826647   0.59931866
| 28> H   -0.81397905   1.04071483  -0.49765644
| 29> C    1.65811105   0.62252057   0.48736747
| 30> H    0.10779181  -0.48993435   1.45761162
| 31> H    0.50375250   0.99790460   2.26419053
| 32> C    1.88830494  -0.19333951  -0.63137104
| 33> C    3.07112923  -0.01700062  -1.34619078
| 34> C    4.00415340   0.94505271  -0.97957052
| 35> C    2.65525940   1.49738878   0.91662250
| 36> C    3.78221192   1.72872884   0.14219740
| 37> H    3.27412548  -0.63529668  -2.21165829
| 38> H    4.90002857   1.08094311  -1.57445390
| 39> H    2.47535671   2.10747588   1.79675517
| 40> H    4.48538800   2.50563580   0.41708609
| 41> Pd   0.58021352  -1.55734862  -1.23458887
| 42> Br  -1.14883113  -3.44509685  -1.79145979
| 43> P    1.09340243  -2.92718495   0.38505799
| 44> H    0.11050904  -3.28700092   1.31928994
| 45> C    0.83635999  -0.80505472  -3.99763958
| 46> O    1.75726077  -1.59560459  -4.11373269
| 47> O    0.04625020  -0.56377580  -3.03695502
| 48> O    0.49877378   0.00838180  -5.03776522
| 49> H    2.13439341  -2.61532349   1.28168366
| 50> H    1.53944392  -4.20827039   0.02654924
| 51> H    1.14974982  -0.16861399  -5.71500306
| 52> *
| 53>
| 54>                          ****END OF INPUT****

CARTESIAN COORDINATES (ANGSTROEM)
---------------------------------
  C     -2.732986   -0.329336    0.877830
  C     -2.108334    0.886877    1.170403
  C     -3.987623   -0.618507    1.403924
  C     -4.659544    0.332254    2.159577
  C     -4.025039    1.517682    2.493638
  C     -2.721327    1.745710    2.078986
  H     -2.409183   -1.218831   -0.112347
  H     -4.490181   -1.544675    1.151437
  H     -2.228945    2.664735    2.378984
  H     -5.659025    0.121877    2.520294
  H     -4.533753    2.247963    3.111158
  C     -0.785163    1.266102    0.568920
  C      0.373849    0.553988    1.271539
  H     -0.621889    2.348266    0.599319
  H     -0.813979    1.040715   -0.497656
  C      1.658111    0.622521    0.487367
  H      0.107792   -0.489934    1.457612
  H      0.503753    0.997905    2.264191
  C      1.888305   -0.193340   -0.631371
  C      3.071129   -0.017001   -1.346191
  C      4.004153    0.945053   -0.979571
  C      2.655259    1.497389    0.916623
  C      3.782212    1.728729    0.142197
  H      3.274125   -0.635297   -2.211658
  H      4.900029    1.080943   -1.574454
  H      2.475357    2.107476    1.796755
  H      4.485388    2.505636    0.417086
  Pd     0.580214   -1.557349   -1.234589
  Br    -1.148831   -3.445097   -1.791460
  P      1.093402   -2.927185    0.385058
  H      0.110509   -3.287001    1.319290
  C      0.836360   -0.805055   -3.997640
  O      1.757261   -1.595605   -4.113733
  O      0.046250   -0.563776   -3.036955
  O      0.498774    0.008382   -5.037765
  H      2.134393   -2.615323    1.281684
  H      1.539444   -4.208270    0.026549
  H      1.149750   -0.168614   -5.715003

 Total Charge           Charge          ....   -1
 Multiplicity           Mult            ....    1
 Number of Electrons    NEL             ....  200
 Basis Dimension        Dim             ....  385

ORBITAL ENERGIES
----------------

  NO   OCC          E(Eh)            E(eV)
   0   2.0000    -484.320283    -13179.0249
   1   2.0000     -77.675903     -2113.6688
   2   2.0000     -62.981829     -1713.8227
   3   2.0000     -56.685445     -1542.4894
   4   2.0000     -56.684514     -1542.4640
   5   2.0000     -56.684435     -1542.4619
   6   2.0000     -19.369866      -527.0808
   7   2.0000     -19.323598      -525.8218
   8   2.0000     -19.302103      -525.2369
   9   2.0000     -10.437292      -284.0132
  10   2.0000     -10.369768      -282.1757
  11   2.0000     -10.364814      -282.0409
  12   2.0000     -10.360682      -281.9285
  13   2.0000     -10.357514      -281.8423
  14   2.0000     -10.357414      -281.8396
  15   2.0000     -10.355635      -281.7912
  16   2.0000     -10.339423      -281.3500
  17   2.0000     -10.339046      -281.3397
  18   2.0000     -10.337805      -281.3060
  19   2.0000     -10.336239      -281.2634
  20   2.0000     -10.335213      -281.2354
  21   2.0000     -10.333168      -281.1798
  22   2.0000     -10.332133      -281.1516
  23   2.0000     -10.321539      -280.8634
  24   2.0000      -8.809087      -239.7074
  25   2.0000      -6.750850      -183.7000
  26   2.0000      -6.578298      -179.0046
  27   2.0000      -6.573913      -178.8853
  28   2.0000      -6.573717      -178.8799
  29   2.0000      -4.841920      -131.7553
  30   2.0000      -4.841702      -131.7494
  31   2.0000      -4.840155      -131.7073
  32   2.0000      -3.525121       -95.9234
  33   2.0000      -2.592444       -70.5440
  34   2.0000      -2.591205       -70.5103
  35   2.0000      -2.591063       -70.5064
  36   2.0000      -2.587209       -70.4015
  37   2.0000      -2.587197       -70.4012
  38   2.0000      -2.171235       -59.0823
  39   2.0000      -2.168019       -58.9948
  40   2.0000      -2.138956       -58.2040
  41   2.0000      -1.072254       -29.1775
  42   2.0000      -0.955520       -26.0010
  43   2.0000      -0.931481       -25.3469
  44   2.0000      -0.869127       -23.6501
  45   2.0000      -0.843211       -22.9449
  46   2.0000      -0.791901       -21.5487
  47   2.0000      -0.748235       -20.3605
  48   2.0000      -0.741194       -20.1689
  49   2.0000      -0.715183       -19.4611
  50   2.0000      -0.690642       -18.7933
  51   2.0000      -0.653994       -17.7961
  52   2.0000      -0.628608       -17.1053
  53   2.0000      -0.619026       -16.8446
  54   2.0000      -0.585667       -15.9368
  55   2.0000      -0.561717       -15.2851
  56   2.0000      -0.560326       -15.2473
  57   2.0000      -0.536109       -14.5883
  58   2.0000      -0.525201       -14.2915
  59   2.0000      -0.483396       -13.1539
  60   2.0000      -0.460119       -12.5205
  61   2.0000      -0.440572       -11.9886
  62   2.0000      -0.421035       -11.4569
  63   2.0000      -0.414143       -11.2694
  64   2.0000      -0.400900       -10.9091
  65   2.0000      -0.396286       -10.7835
  66   2.0000      -0.388406       -10.5691
  67   2.0000      -0.382402       -10.4057
  68   2.0000      -0.379658       -10.3310
  69   2.0000      -0.375577       -10.2200
  70   2.0000      -0.371701       -10.1145
  71   2.0000      -0.366821        -9.9817
  72   2.0000      -0.363698        -9.8967
  73   2.0000      -0.354518        -9.6469
  74   2.0000      -0.348506        -9.4833
  75   2.0000      -0.335087        -9.1182
  76   2.0000      -0.329711        -8.9719
  77   2.0000      -0.323835        -8.8120
  78   2.0000      -0.310032        -8.4364
  79   2.0000      -0.304584        -8.2881
  80   2.0000      -0.298344        -8.1184
  81   2.0000      -0.288866        -7.8604
  82   2.0000      -0.282409        -7.6847
  83   2.0000      -0.269913        -7.3447
  84   2.0000      -0.262858        -7.1527
  85   2.0000      -0.259809        -7.0698
  86   2.0000      -0.233966        -6.3665
  87   2.0000      -0.222431        -6.0527
  88   2.0000      -0.214981        -5.8499
  89   2.0000      -0.202502        -5.5104
  90   2.0000      -0.198509        -5.4017
  91   2.0000      -0.192876        -5.2484
  92   2.0000      -0.188593        -5.1319
  93   2.0000      -0.179580        -4.8866
  94   2.0000      -0.172371        -4.6904
  95   2.0000      -0.159551        -4.3416
  96   2.0000      -0.157965        -4.2985
  97   2.0000      -0.147437        -4.0120
  98   2.0000      -0.144293        -3.9264
  99   2.0000      -0.143893        -3.9155
 100   0.0000       0.101182         2.7533
 101   0.0000       0.106891         2.9087
 102   0.0000       0.110802         3.0151
 103   0.0000       0.131652         3.5824
 104   0.0000       0.137588         3.7440

MULLIKEN ATOMIC CHARGES
-----------------------
   0 C :   -0.280346
   1 C :    0.106081
   2 C :   -0.203348
   3 C :   -0.231737
   4 C :   -0.216726
   5 C :   -0.259524
   6 H :    0.269454
   7 H :    0.221596
   8 H :    0.195905
   9 H :    0.194320
  10 H :    0.192812
  11 C :   -0.505174
  12 C :   -0.505470
  13 H :    0.215878
  14 H :    0.314993
  15 C :    0.127822
  16 H :    0.244563
  17 H :    0.210305
  18 C :   -0.142007
  19 C :   -0.261891
  20 C :   -0.231065
  21 C :   -0.287616
  22 C :   -0.227224
  23 H :    0.258364
  24 H :    0.185583
  25 H :    0.174226
  26 H :    0.178925
  27 Pd:    0.112059
  28 Br:   -0.492249
  29 P :   -0.121116
  30 H :    0.122611
  31 C :    0.702790
  32 O :   -0.530040
  33 O :   -0.529444
  34 O :   -0.618719
  35 H :    0.088376
  36 H :    0.125016
  37 H :    0.402017
Sum of atomic charges:   -1.0000000

LOEWDIN ATOMIC CHARGES
----------------------
   0 C :   -0.120553
   1 C :   -0.039876
   2 C :   -0.142456
   3 C :   -0.158094
   4 C :   -0.147546
   5 C :   -0.143798
   6 H :    0.192770
   7 H :    0.134335
   8 H :    0.127324
   9 H :    0.123957
  10 H :    0.123595
  11 C :   -0.211313
  12 C :   -0.203999
  13 H :    0.125902
  14 H :    0.174742
  15 C :   -0.046101
  16 H :    0.141052
  17 H :    0.119638
  18 C :   -0.022993
  19 C :   -0.118178
  20 C :   -0.150122
  21 C :   -0.149421
  22 C :   -0.164923
  23 H :    0.162165
  24 H :    0.121834
  25 H :    0.118475
  26 H :    0.118124
  27 Pd:   -0.816720
  28 Br:   -0.282714
  29 P :    0.431357
  30 H :    0.055582
  31 C :    0.125144
  32 O :   -0.323777
  33 O :   -0.213271
  34 O :   -0.336803
  35 H :    0.030740
  36 H :    0.059357
  37 H :    0.306567

  Mayer bond orders larger than 0.100000
B(  0-C ,  1-C ) :   1.3699 B(  0-C ,  2-C ) :   1.4100 B(  0-C ,  6-H ) :   0.8583
B(  1-C ,  5-C ) :   1.4082 B(  1-C , 11-C ) :   0.9579 B(  2-C ,  3-C ) :   1.4227
B(  2-C ,  7-H ) :   0.9181 B(  3-C ,  4-C ) :   1.4310 B(  3-C ,  9-H ) :   0.9258
B(  4-C ,  5-C ) :   1.4301 B(  4-C , 10-H ) :   0.9269 B(  5-C ,  8-H ) :   0.9255
B( 11-C , 12-C ) :   0.9350 B( 11-C , 13-H ) :   0.9240 B( 11-C , 14-H ) :   0.8714
B( 12-C , 15-C ) :   0.9642 B( 12-C , 16-H ) :   0.8940 B( 12-C , 17-H ) :   0.9265
B( 15-C , 18-C ) :   1.3465 B( 15-C , 21-C ) :   1.4075 B( 18-C , 19-C ) :   1.4213
B( 18-C , 27-Pd) :   0.7963 B( 18-C , 28-Br) :   0.1143 B( 19-C , 20-C ) :   1.4035
B( 19-C , 23-H ) :   0.8849 B( 20-C , 22-C ) :   1.4301 B( 20-C , 24-H ) :   0.9274
B( 21-C , 22-C ) :   1.4246 B( 21-C , 25-H ) :   0.9276 B( 22-C , 26-H ) :   0.9299
B( 27-Pd, 28-Br) :   0.5612 B( 27-Pd, 29-P ) :   0.7870 B( 27-Pd, 33-O ) :   0.5065
B( 28-Br, 29-P ) :   0.1001 B( 29-P , 30-H ) :   0.9252 B( 29-P , 35-H ) :   0.9077
B( 29-P , 36-H ) :   0.9319 B( 31-C , 32-O ) :   1.8042 B( 31-C , 33-O ) :   1.3726
B( 31-C , 34-O ) :   1.0602 B( 34-O , 37-H ) :   0.7930

Dispersion correction           -0.030808048
FINAL SINGLE POINT ENERGY     -3847.742475452593
Dispersion correction            ... done

DIPOLE MOMENT
-------------
                                X             Y             Z
Electronic contribution:     28.29142     -78.69303     -54.31995
Nuclear contribution   :    -27.90252      79.23846      57.36502
                        -----------------------------------------
Total Dipole Moment    :      0.38890       0.54542       3.04507
                        -----------------------------------------
Magnitude (a.u.)       :      3.11788
Magnitude (Debye)      :      7.92502

Rotational constants in cm-1:     0.007310     0.005474     0.004036
Rotational constants in MHz :   219.145906   164.107271   120.987507

                             ****ORCA TERMINATED NORMALLY****
TOTAL RUN TIME: 0 days 0 hours 35 minutes 18 seconds 124 msec
