                         Program Version 5.0.3 -  RELEASE  -
|  1> ! EnGrad PBEh-3c
|  2> %output
|  3> xyzfile=True
|  4> end
|  5> %scf
|  6> maxiter 250
|  7> end
|  8> %output
|  9> Print[P_Hirshfeld] = 1
| 10> end
| 11> % maxcore
| 12> 4000
| 13> *xyz -1 1
| 14> C   -2.72198520  -0.43279908   0.74446743
| 15> C   -2.08306104   0.87965602   1.18224821
| 16> C   -3.98539967  -0.60277358   1.38836334
| 17> C   -4.66568286   0.33283159   2.13940219
| 18> C   -4.03202439   1.51776761   2.48783207
| 19> C   -2.74252722   1.74921869   2.07437203
| 20> H   -2.42387648  -1.10522059  -0.01369064
| 21> H   -4.47859966  -1.54161898   1.13718406
| 22> H   -2.23081031   2.65679036   2.39548689
| 23> H   -5.67270370   0.13626745   2.46856822
| 24> H   -4.54997632   2.25507136   3.08179753
| 25> C   -0.78106978   1.26859014   0.58367997
| 26> C    0.39004509   0.54922758   1.28201410
| 27> H   -0.61461768   2.35426116   0.64427931
| 28> H   -0.79805821   1.05720170  -0.48003100
| 29> C    1.67401154   0.60988241   0.51341948
| 30> H    0.10795888  -0.48954362   1.46386105
| 31> H    0.51933117   0.99234271   2.27855982
| 32> C    1.88421847  -0.18236398  -0.62857520
| 33> C    3.06864428  -0.01506387  -1.34880312
| 34> C    3.99377802   0.95567160  -0.98539274
| 35> C    2.65098609   1.51328397   0.90410849
| 36> C    3.79356605   1.72131144   0.14725039
| 37> H    3.25892917  -0.62721398  -2.21864123
| 38> H    4.88619097   1.09335701  -1.58888656
| 39> H    2.49562034   2.09176115   1.81149163
| 40> H    4.48860614   2.50546683   0.41522453
| 41> Pd   0.54591545  -1.56666021  -1.27581071
| 42> Br  -1.14246895  -3.45694403  -1.76334597
| 43> P    1.11377878  -2.93197960   0.39622626
| 44> H    0.13199294  -3.29581653   1.32476632
| 45> C    0.78771765  -0.79734685  -3.99289976
| 46> O    1.75460372  -1.60225967  -4.11084532
| 47> O    0.04046866  -0.62021975  -2.99307647
| 48> O    0.49128835   0.00989940  -5.03741396
| 49> H    2.15463016  -2.62064079   1.27326450
| 50> H    1.54890917  -4.20853668   0.01190716
| 51> H    1.14486778  -0.15199742  -5.71031148
| 52> *
| 53>
| 54>                          ****END OF INPUT****

CARTESIAN COORDINATES (ANGSTROEM)
---------------------------------
  C     -2.721985   -0.432799    0.744467
  C     -2.083061    0.879656    1.182248
  C     -3.985400   -0.602774    1.388363
  C     -4.665683    0.332832    2.139402
  C     -4.032024    1.517768    2.487832
  C     -2.742527    1.749219    2.074372
  H     -2.423876   -1.105221   -0.013691
  H     -4.478600   -1.541619    1.137184
  H     -2.230810    2.656790    2.395487
  H     -5.672704    0.136267    2.468568
  H     -4.549976    2.255071    3.081798
  C     -0.781070    1.268590    0.583680
  C      0.390045    0.549228    1.282014
  H     -0.614618    2.354261    0.644279
  H     -0.798058    1.057202   -0.480031
  C      1.674012    0.609882    0.513419
  H      0.107959   -0.489544    1.463861
  H      0.519331    0.992343    2.278560
  C      1.884218   -0.182364   -0.628575
  C      3.068644   -0.015064   -1.348803
  C      3.993778    0.955672   -0.985393
  C      2.650986    1.513284    0.904108
  C      3.793566    1.721311    0.147250
  H      3.258929   -0.627214   -2.218641
  H      4.886191    1.093357   -1.588887
  H      2.495620    2.091761    1.811492
  H      4.488606    2.505467    0.415225
  Pd     0.545915   -1.566660   -1.275811
  Br    -1.142469   -3.456944   -1.763346
  P      1.113779   -2.931980    0.396226
  H      0.131993   -3.295817    1.324766
  C      0.787718   -0.797347   -3.992900
  O      1.754604   -1.602260   -4.110845
  O      0.040469   -0.620220   -2.993076
  O      0.491288    0.009899   -5.037414
  H      2.154630   -2.620641    1.273265
  H      1.548909   -4.208537    0.011907
  H      1.144868   -0.151997   -5.710311

 Total Charge           Charge          ....   -1
 Multiplicity           Mult            ....    1
 Number of Electrons    NEL             ....  200
 Basis Dimension        Dim             ....  385

ORBITAL ENERGIES
----------------

  NO   OCC          E(Eh)            E(eV)
   0   2.0000    -484.319613    -13179.0067
   1   2.0000     -77.673865     -2113.6133
   2   2.0000     -62.981293     -1713.8081
   3   2.0000     -56.684929     -1542.4753
   4   2.0000     -56.683979     -1542.4495
   5   2.0000     -56.683893     -1542.4471
   6   2.0000     -19.381558      -527.3990
   7   2.0000     -19.334882      -526.1289
   8   2.0000     -19.294783      -525.0377
   9   2.0000     -10.445480      -284.2360
  10   2.0000     -10.376179      -282.3502
  11   2.0000     -10.363060      -281.9932
  12   2.0000     -10.360661      -281.9279
  13   2.0000     -10.357526      -281.8426
  14   2.0000     -10.357405      -281.8393
  15   2.0000     -10.356377      -281.8113
  16   2.0000     -10.338603      -281.3277
  17   2.0000     -10.336379      -281.2672
  18   2.0000     -10.336180      -281.2618
  19   2.0000     -10.334349      -281.2119
  20   2.0000     -10.333199      -281.1806
  21   2.0000     -10.331414      -281.1321
  22   2.0000     -10.330136      -281.0973
  23   2.0000     -10.319077      -280.7963
  24   2.0000      -8.808613      -239.6945
  25   2.0000      -6.749183      -183.6546
  26   2.0000      -6.577869      -178.9929
  27   2.0000      -6.573389      -178.8710
  28   2.0000      -6.573289      -178.8683
  29   2.0000      -4.840266      -131.7103
  30   2.0000      -4.840056      -131.7046
  31   2.0000      -4.838335      -131.6578
  32   2.0000      -3.520119       -95.7873
  33   2.0000      -2.592011       -70.5322
  34   2.0000      -2.590745       -70.4978
  35   2.0000      -2.590627       -70.4946
  36   2.0000      -2.586730       -70.3885
  37   2.0000      -2.586718       -70.3882
  38   2.0000      -2.166663       -58.9579
  39   2.0000      -2.162415       -58.8423
  40   2.0000      -2.133674       -58.0602
  41   2.0000      -1.075290       -29.2601
  42   2.0000      -0.968061       -26.3423
  43   2.0000      -0.913404       -24.8550
  44   2.0000      -0.858611       -23.3640
  45   2.0000      -0.842069       -22.9139
  46   2.0000      -0.790347       -21.5064
  47   2.0000      -0.745791       -20.2940
  48   2.0000      -0.740139       -20.1402
  49   2.0000      -0.712687       -19.3932
  50   2.0000      -0.686755       -18.6876
  51   2.0000      -0.654112       -17.7993
  52   2.0000      -0.629114       -17.1191
  53   2.0000      -0.621245       -16.9049
  54   2.0000      -0.586928       -15.9711
  55   2.0000      -0.559495       -15.2246
  56   2.0000      -0.554865       -15.0986
  57   2.0000      -0.543740       -14.7959
  58   2.0000      -0.534298       -14.5390
  59   2.0000      -0.488464       -13.2918
  60   2.0000      -0.459162       -12.4944
  61   2.0000      -0.438375       -11.9288
  62   2.0000      -0.434136       -11.8134
  63   2.0000      -0.409788       -11.1509
  64   2.0000      -0.409085       -11.1318
  65   2.0000      -0.398799       -10.8519
  66   2.0000      -0.390941       -10.6380
  67   2.0000      -0.389387       -10.5958
  68   2.0000      -0.378293       -10.2939
  69   2.0000      -0.376786       -10.2529
  70   2.0000      -0.372699       -10.1417
  71   2.0000      -0.369640       -10.0584
  72   2.0000      -0.362562        -9.8658
  73   2.0000      -0.357300        -9.7226
  74   2.0000      -0.346228        -9.4213
  75   2.0000      -0.335770        -9.1368
  76   2.0000      -0.334340        -9.0979
  77   2.0000      -0.319511        -8.6943
  78   2.0000      -0.310184        -8.4405
  79   2.0000      -0.306422        -8.3382
  80   2.0000      -0.296563        -8.0699
  81   2.0000      -0.292791        -7.9672
  82   2.0000      -0.275778        -7.5043
  83   2.0000      -0.272113        -7.4046
  84   2.0000      -0.263583        -7.1725
  85   2.0000      -0.258809        -7.0426
  86   2.0000      -0.240857        -6.5540
  87   2.0000      -0.222962        -6.0671
  88   2.0000      -0.213762        -5.8168
  89   2.0000      -0.202239        -5.5032
  90   2.0000      -0.192912        -5.2494
  91   2.0000      -0.183884        -5.0037
  92   2.0000      -0.183105        -4.9825
  93   2.0000      -0.175621        -4.7789
  94   2.0000      -0.169562        -4.6140
  95   2.0000      -0.160634        -4.3711
  96   2.0000      -0.152433        -4.1479
  97   2.0000      -0.146234        -3.9792
  98   2.0000      -0.142448        -3.8762
  99   2.0000      -0.138801        -3.7770
 100   0.0000       0.093153         2.5348
 101   0.0000       0.106947         2.9102
 102   0.0000       0.115014         3.1297
 103   0.0000       0.133364         3.6290
 104   0.0000       0.138515         3.7692

MULLIKEN ATOMIC CHARGES
-----------------------
   0 C :   -0.247904
   1 C :    0.046235
   2 C :   -0.244462
   3 C :   -0.205891
   4 C :   -0.221913
   5 C :   -0.240850
   6 H :    0.309218
   7 H :    0.207095
   8 H :    0.195550
   9 H :    0.197055
  10 H :    0.194320
  11 C :   -0.504973
  12 C :   -0.502844
  13 H :    0.213195
  14 H :    0.312799
  15 C :    0.129826
  16 H :    0.241788
  17 H :    0.207106
  18 C :   -0.148493
  19 C :   -0.262370
  20 C :   -0.234864
  21 C :   -0.288242
  22 C :   -0.222496
  23 H :    0.263081
  24 H :    0.182780
  25 H :    0.172190
  26 H :    0.178195
  27 Pd:    0.122113
  28 Br:   -0.490452
  29 P :   -0.116419
  30 H :    0.122096
  31 C :    0.717497
  32 O :   -0.568384
  33 O :   -0.531892
  34 O :   -0.613705
  35 H :    0.092325
  36 H :    0.126692
  37 H :    0.415002
Sum of atomic charges:   -1.0000000

LOEWDIN ATOMIC CHARGES
----------------------
   0 C :   -0.120197
   1 C :   -0.016162
   2 C :   -0.133838
   3 C :   -0.165810
   4 C :   -0.141592
   5 C :   -0.157552
   6 H :    0.179637
   7 H :    0.128031
   8 H :    0.128333
   9 H :    0.126970
  10 H :    0.123834
  11 C :   -0.217985
  12 C :   -0.203821
  13 H :    0.124517
  14 H :    0.173489
  15 C :   -0.054025
  16 H :    0.138711
  17 H :    0.118997
  18 C :   -0.025658
  19 C :   -0.122149
  20 C :   -0.149187
  21 C :   -0.147945
  22 C :   -0.167522
  23 H :    0.163142
  24 H :    0.120718
  25 H :    0.117524
  26 H :    0.118405
  27 Pd:   -0.826243
  28 Br:   -0.269084
  29 P :    0.422164
  30 H :    0.055139
  31 C :    0.154006
  32 O :   -0.373782
  33 O :   -0.186465
  34 O :   -0.324030
  35 H :    0.033433
  36 H :    0.060794
  37 H :    0.315201

  Mayer bond orders larger than 0.100000
B(  0-C ,  1-C ) :   1.3478 B(  0-C ,  2-C ) :   1.4462 B(  0-C ,  4-C ) :   0.1064
B(  0-C ,  6-H ) :   0.8613 B(  1-C ,  5-C ) :   1.4324 B(  1-C , 11-C ) :   0.9568
B(  2-C ,  3-C ) :   1.4046 B(  2-C ,  7-H ) :   0.9225 B(  3-C ,  4-C ) :   1.4351
B(  3-C ,  9-H ) :   0.9266 B(  4-C ,  5-C ) :   1.4160 B(  4-C , 10-H ) :   0.9246
B(  5-C ,  8-H ) :   0.9260 B( 11-C , 12-C ) :   0.9301 B( 11-C , 13-H ) :   0.9256
B( 11-C , 14-H ) :   0.8728 B( 12-C , 15-C ) :   0.9660 B( 12-C , 16-H ) :   0.8951
B( 12-C , 17-H ) :   0.9268 B( 15-C , 18-C ) :   1.3457 B( 15-C , 21-C ) :   1.4138
B( 18-C , 19-C ) :   1.4274 B( 18-C , 27-Pd) :   0.7767 B( 18-C , 28-Br) :   0.1125
B( 19-C , 20-C ) :   1.3991 B( 19-C , 23-H ) :   0.8810 B( 20-C , 22-C ) :   1.4325
B( 20-C , 24-H ) :   0.9283 B( 21-C , 22-C ) :   1.4212 B( 21-C , 25-H ) :   0.9277
B( 22-C , 26-H ) :   0.9302 B( 27-Pd, 28-Br) :   0.5889 B( 27-Pd, 29-P ) :   0.7426
B( 27-Pd, 33-O ) :   0.4980 B( 29-P , 30-H ) :   0.9277 B( 29-P , 35-H ) :   0.9099
B( 29-P , 36-H ) :   0.9348 B( 31-C , 32-O ) :   1.7437 B( 31-C , 33-O ) :   1.3824
B( 31-C , 34-O ) :   1.0803 B( 34-O , 37-H ) :   0.7819

Dispersion correction           -0.030675930
FINAL SINGLE POINT ENERGY     -3847.757680410523
Dispersion correction            ... done

DIPOLE MOMENT
-------------
                                X             Y             Z
Electronic contribution:     26.36459     -79.00295     -56.68849
Nuclear contribution   :    -26.04459      79.62933      59.58765
                        -----------------------------------------
Total Dipole Moment    :      0.32000       0.62639       2.89916
                        -----------------------------------------
Magnitude (a.u.)       :      2.98327
Magnitude (Debye)      :      7.58287

Rotational constants in cm-1:     0.007291     0.005497     0.004045
Rotational constants in MHz :   218.588425   164.799503   121.276558

                             ****ORCA TERMINATED NORMALLY****
TOTAL RUN TIME: 0 days 0 hours 31 minutes 38 seconds 142 msec
