                         Program Version 5.0.3 -  RELEASE  -
|  1> ! EnGrad PBEh-3c
|  2> %output
|  3> xyzfile=True
|  4> end
|  5> %scf
|  6> maxiter 250
|  7> end
|  8> %output
|  9> Print[P_Hirshfeld] = 1
| 10> end
| 11> % maxcore
| 12> 4000
| 13> *xyz -1 1
| 14> C   -2.72884834  -0.42623200   0.73593276
| 15> C   -2.08526119   0.86159090   1.17786912
| 16> C   -3.97725951  -0.60763580   1.37009320
| 17> C   -4.66429911   0.33643580   2.13464201
| 18> C   -4.03849183   1.51527104   2.48627361
| 19> C   -2.74239719   1.74635231   2.06783457
| 20> H   -2.42200033  -1.07955429   0.00612350
| 21> H   -4.47623525  -1.53948514   1.13346660
| 22> H   -2.23202280   2.65327554   2.39968973
| 23> H   -5.67790474   0.14015532   2.45192794
| 24> H   -4.55572197   2.25794074   3.07284904
| 25> C   -0.77563662   1.27136982   0.59045700
| 26> C    0.39455496   0.54781833   1.28669135
| 27> H   -0.61248807   2.35509505   0.65947549
| 28> H   -0.79230078   1.06165102  -0.47544506
| 29> C    1.67867720   0.60513475   0.51908044
| 30> H    0.10774120  -0.48980427   1.46584877
| 31> H    0.52436133   0.99025267   2.28274059
| 32> C    1.88164630  -0.18094804  -0.62987419
| 33> C    3.06631197  -0.01352106  -1.34859463
| 34> C    3.99217089   0.95806346  -0.98817688
| 35> C    2.65077807   1.51937849   0.90197182
| 36> C    3.79614004   1.71995064   0.14869756
| 37> H    3.25375718  -0.62467471  -2.22160511
| 38> H    4.88130796   1.09751108  -1.59335471
| 39> H    2.50217264   2.08702166   1.81574254
| 40> H    4.49035052   2.50517905   0.41511069
| 41> Pd   0.53819395  -1.57330614  -1.28384183
| 42> Br  -1.14093167  -3.46080512  -1.75371039
| 43> P    1.11834777  -2.93189530   0.39636316
| 44> H    0.13911435  -3.29913229   1.32729209
| 45> C    0.78865823  -0.80830970  -3.99169894
| 46> O    1.74141920  -1.59350338  -4.10913456
| 47> O    0.03625926  -0.63349204  -2.98299689
| 48> O    0.48436439   0.01253398  -5.03447136
| 49> H    2.16256171  -2.62189145   1.27181876
| 50> H    1.55199569  -4.20854019   0.00705332
| 51> H    1.14495329  -0.14805993  -5.70938082
| 52> *
| 53>
| 54>                          ****END OF INPUT****

CARTESIAN COORDINATES (ANGSTROEM)
---------------------------------
  C     -2.728848   -0.426232    0.735933
  C     -2.085261    0.861591    1.177869
  C     -3.977260   -0.607636    1.370093
  C     -4.664299    0.336436    2.134642
  C     -4.038492    1.515271    2.486274
  C     -2.742397    1.746352    2.067835
  H     -2.422000   -1.079554    0.006123
  H     -4.476235   -1.539485    1.133467
  H     -2.232023    2.653276    2.399690
  H     -5.677905    0.140155    2.451928
  H     -4.555722    2.257941    3.072849
  C     -0.775637    1.271370    0.590457
  C      0.394555    0.547818    1.286691
  H     -0.612488    2.355095    0.659475
  H     -0.792301    1.061651   -0.475445
  C      1.678677    0.605135    0.519080
  H      0.107741   -0.489804    1.465849
  H      0.524361    0.990253    2.282741
  C      1.881646   -0.180948   -0.629874
  C      3.066312   -0.013521   -1.348595
  C      3.992171    0.958063   -0.988177
  C      2.650778    1.519378    0.901972
  C      3.796140    1.719951    0.148698
  H      3.253757   -0.624675   -2.221605
  H      4.881308    1.097511   -1.593355
  H      2.502173    2.087022    1.815743
  H      4.490351    2.505179    0.415111
  Pd     0.538194   -1.573306   -1.283842
  Br    -1.140932   -3.460805   -1.753710
  P      1.118348   -2.931895    0.396363
  H      0.139114   -3.299132    1.327292
  C      0.788658   -0.808310   -3.991699
  O      1.741419   -1.593503   -4.109135
  O      0.036259   -0.633492   -2.982997
  O      0.484364    0.012534   -5.034471
  H      2.162562   -2.621891    1.271819
  H      1.551996   -4.208540    0.007053
  H      1.144953   -0.148060   -5.709381

 Total Charge           Charge          ....   -1
 Multiplicity           Mult            ....    1
 Number of Electrons    NEL             ....  200
 Basis Dimension        Dim             ....  385

ORBITAL ENERGIES
----------------

  NO   OCC          E(Eh)            E(eV)
   0   2.0000    -484.319557    -13179.0051
   1   2.0000     -77.673026     -2113.5905
   2   2.0000     -62.981270     -1713.8075
   3   2.0000     -56.684908     -1542.4748
   4   2.0000     -56.683962     -1542.4490
   5   2.0000     -56.683862     -1542.4463
   6   2.0000     -19.380870      -527.3803
   7   2.0000     -19.333649      -526.0953
   8   2.0000     -19.299502      -525.1661
   9   2.0000     -10.445644      -284.2404
  10   2.0000     -10.375103      -282.3209
  11   2.0000     -10.360011      -281.9102
  12   2.0000     -10.357878      -281.8522
  13   2.0000     -10.357676      -281.8467
  14   2.0000     -10.357104      -281.8311
  15   2.0000     -10.356558      -281.8163
  16   2.0000     -10.337704      -281.3032
  17   2.0000     -10.335945      -281.2554
  18   2.0000     -10.335832      -281.2523
  19   2.0000     -10.333770      -281.1962
  20   2.0000     -10.332720      -281.1676
  21   2.0000     -10.330977      -281.1202
  22   2.0000     -10.329270      -281.0737
  23   2.0000     -10.318811      -280.7891
  24   2.0000      -8.808613      -239.6945
  25   2.0000      -6.748307      -183.6308
  26   2.0000      -6.577883      -178.9933
  27   2.0000      -6.573377      -178.8707
  28   2.0000      -6.573294      -178.8684
  29   2.0000      -4.839381      -131.6863
  30   2.0000      -4.839180      -131.6808
  31   2.0000      -4.837444      -131.6335
  32   2.0000      -3.518977       -95.7562
  33   2.0000      -2.592024       -70.5326
  34   2.0000      -2.590743       -70.4977
  35   2.0000      -2.590642       -70.4950
  36   2.0000      -2.586726       -70.3884
  37   2.0000      -2.586712       -70.3880
  38   2.0000      -2.165780       -58.9339
  39   2.0000      -2.160943       -58.8022
  40   2.0000      -2.132503       -58.0283
  41   2.0000      -1.074054       -29.2265
  42   2.0000      -0.965751       -26.2794
  43   2.0000      -0.924327       -25.1522
  44   2.0000      -0.858259       -23.3544
  45   2.0000      -0.841231       -22.8911
  46   2.0000      -0.788919       -21.4676
  47   2.0000      -0.744687       -20.2640
  48   2.0000      -0.742009       -20.1911
  49   2.0000      -0.712206       -19.3801
  50   2.0000      -0.686271       -18.6744
  51   2.0000      -0.653373       -17.7792
  52   2.0000      -0.629121       -17.1193
  53   2.0000      -0.620363       -16.8809
  54   2.0000      -0.587296       -15.9811
  55   2.0000      -0.558658       -15.2019
  56   2.0000      -0.556108       -15.1325
  57   2.0000      -0.539753       -14.6874
  58   2.0000      -0.533737       -14.5237
  59   2.0000      -0.488505       -13.2929
  60   2.0000      -0.458593       -12.4789
  61   2.0000      -0.439131       -11.9494
  62   2.0000      -0.434550       -11.8247
  63   2.0000      -0.409936       -11.1549
  64   2.0000      -0.408807       -11.1242
  65   2.0000      -0.399488       -10.8706
  66   2.0000      -0.392423       -10.6784
  67   2.0000      -0.390758       -10.6331
  68   2.0000      -0.377038       -10.2597
  69   2.0000      -0.375946       -10.2300
  70   2.0000      -0.371775       -10.1165
  71   2.0000      -0.369661       -10.0590
  72   2.0000      -0.361896        -9.8477
  73   2.0000      -0.356858        -9.7106
  74   2.0000      -0.345799        -9.4097
  75   2.0000      -0.335856        -9.1391
  76   2.0000      -0.334338        -9.0978
  77   2.0000      -0.319251        -8.6873
  78   2.0000      -0.309772        -8.4293
  79   2.0000      -0.305752        -8.3199
  80   2.0000      -0.297325        -8.0906
  81   2.0000      -0.291522        -7.9327
  82   2.0000      -0.278312        -7.5733
  83   2.0000      -0.270958        -7.3731
  84   2.0000      -0.263627        -7.1737
  85   2.0000      -0.258364        -7.0304
  86   2.0000      -0.241431        -6.5697
  87   2.0000      -0.223004        -6.0683
  88   2.0000      -0.213288        -5.8039
  89   2.0000      -0.201343        -5.4788
  90   2.0000      -0.193128        -5.2553
  91   2.0000      -0.186266        -5.0686
  92   2.0000      -0.184136        -5.0106
  93   2.0000      -0.177409        -4.8275
  94   2.0000      -0.169736        -4.6188
  95   2.0000      -0.160597        -4.3701
  96   2.0000      -0.153472        -4.1762
  97   2.0000      -0.146119        -3.9761
  98   2.0000      -0.142028        -3.8648
  99   2.0000      -0.138165        -3.7597
 100   0.0000       0.096507         2.6261
 101   0.0000       0.108500         2.9524
 102   0.0000       0.113475         3.0878
 103   0.0000       0.133583         3.6350
 104   0.0000       0.139081         3.7846

MULLIKEN ATOMIC CHARGES
-----------------------
   0 C :   -0.237121
   1 C :    0.045524
   2 C :   -0.245892
   3 C :   -0.211675
   4 C :   -0.217149
   5 C :   -0.246328
   6 H :    0.306735
   7 H :    0.208404
   8 H :    0.195536
   9 H :    0.196168
  10 H :    0.194391
  11 C :   -0.504123
  12 C :   -0.502148
  13 H :    0.214177
  14 H :    0.311502
  15 C :    0.121995
  16 H :    0.241377
  17 H :    0.206287
  18 C :   -0.142439
  19 C :   -0.264802
  20 C :   -0.233435
  21 C :   -0.283692
  22 C :   -0.224380
  23 H :    0.260904
  24 H :    0.182529
  25 H :    0.172027
  26 H :    0.177646
  27 Pd:    0.119933
  28 Br:   -0.488253
  29 P :   -0.116692
  30 H :    0.121257
  31 C :    0.718185
  32 O :   -0.545314
  33 O :   -0.542575
  34 O :   -0.619156
  35 H :    0.092046
  36 H :    0.125990
  37 H :    0.412560
Sum of atomic charges:   -1.0000000

LOEWDIN ATOMIC CHARGES
----------------------
   0 C :   -0.117804
   1 C :   -0.015675
   2 C :   -0.131671
   3 C :   -0.164543
   4 C :   -0.143515
   5 C :   -0.156765
   6 H :    0.174582
   7 H :    0.128466
   8 H :    0.127986
   9 H :    0.126345
  10 H :    0.123815
  11 C :   -0.217299
  12 C :   -0.204765
  13 H :    0.124892
  14 H :    0.173148
  15 C :   -0.054630
  16 H :    0.138269
  17 H :    0.118749
  18 C :   -0.027200
  19 C :   -0.123027
  20 C :   -0.149669
  21 C :   -0.148387
  22 C :   -0.167748
  23 H :    0.161832
  24 H :    0.120575
  25 H :    0.117518
  26 H :    0.118200
  27 Pd:   -0.832414
  28 Br:   -0.263638
  29 P :    0.420023
  30 H :    0.054579
  31 C :    0.150760
  32 O :   -0.345147
  33 O :   -0.192719
  34 O :   -0.331467
  35 H :    0.033310
  36 H :    0.060424
  37 H :    0.314609

  Mayer bond orders larger than 0.100000
B(  0-C ,  1-C ) :   1.3467 B(  0-C ,  2-C ) :   1.4621 B(  0-C ,  4-C ) :   0.1002
B(  0-C ,  6-H ) :   0.8646 B(  1-C ,  5-C ) :   1.4374 B(  1-C , 11-C ) :   0.9552
B(  2-C ,  3-C ) :   1.3918 B(  2-C ,  7-H ) :   0.9222 B(  3-C ,  4-C ) :   1.4485
B(  3-C ,  9-H ) :   0.9270 B(  4-C ,  5-C ) :   1.4067 B(  4-C , 10-H ) :   0.9246
B(  5-C ,  8-H ) :   0.9264 B( 11-C , 12-C ) :   0.9296 B( 11-C , 13-H ) :   0.9258
B( 11-C , 14-H ) :   0.8737 B( 12-C , 15-C ) :   0.9681 B( 12-C , 16-H ) :   0.8957
B( 12-C , 17-H ) :   0.9267 B( 15-C , 18-C ) :   1.3457 B( 15-C , 21-C ) :   1.4133
B( 18-C , 19-C ) :   1.4271 B( 18-C , 27-Pd) :   0.7704 B( 18-C , 28-Br) :   0.1118
B( 19-C , 20-C ) :   1.3997 B( 19-C , 23-H ) :   0.8830 B( 20-C , 22-C ) :   1.4321
B( 20-C , 24-H ) :   0.9283 B( 21-C , 22-C ) :   1.4221 B( 21-C , 25-H ) :   0.9276
B( 22-C , 26-H ) :   0.9302 B( 27-Pd, 28-Br) :   0.5962 B( 27-Pd, 29-P ) :   0.7345
B( 27-Pd, 33-O ) :   0.5080 B( 29-P , 30-H ) :   0.9278 B( 29-P , 35-H ) :   0.9100
B( 29-P , 36-H ) :   0.9351 B( 31-C , 32-O ) :   1.7774 B( 31-C , 33-O ) :   1.3600
B( 31-C , 34-O ) :   1.0705 B( 34-O , 37-H ) :   0.7840

Dispersion correction           -0.030680954
FINAL SINGLE POINT ENERGY     -3847.761447490515
Dispersion correction            ... done

DIPOLE MOMENT
-------------
                                X             Y             Z
Electronic contribution:     25.99441     -79.39194     -57.17704
Nuclear contribution   :    -25.64295      79.97212      60.01998
                        -----------------------------------------
Total Dipole Moment    :      0.35146       0.58018       2.84294
                        -----------------------------------------
Magnitude (a.u.)       :      2.92275
Magnitude (Debye)      :      7.42904

Rotational constants in cm-1:     0.007287     0.005506     0.004050
Rotational constants in MHz :   218.460387   165.051259   121.403548

                             ****ORCA TERMINATED NORMALLY****
TOTAL RUN TIME: 0 days 0 hours 34 minutes 46 seconds 542 msec
