                         Program Version 5.0.3 -  RELEASE  -
|  1> ! EnGrad PBEh-3c
|  2> %output
|  3> xyzfile=True
|  4> end
|  5> %scf
|  6> maxiter 250
|  7> end
|  8> %output
|  9> Print[P_Hirshfeld] = 1
| 10> end
| 11> % maxcore
| 12> 4000
| 13> *xyz -1 1
| 14> C   -2.74259020  -0.39273395   0.75007124
| 15> C   -2.09254477   0.83925924   1.17031800
| 16> C   -3.96954279  -0.61331117   1.34744428
| 17> C   -4.66061843   0.33713071   2.12740547
| 18> C   -4.04461049   1.51270216   2.48374269
| 19> C   -2.73980535   1.73878302   2.05758393
| 20> H   -2.41274052  -1.06245588   0.01537526
| 21> H   -4.47471745  -1.53796796   1.12878610
| 22> H   -2.23364043   2.64804335   2.40302387
| 23> H   -5.68347348   0.14398701   2.43304730
| 24> H   -4.56269671   2.26154498   3.06327638
| 25> C   -0.76850410   1.27308924   0.59865862
| 26> C    0.39911931   0.54620927   1.29266481
| 27> H   -0.61058568   2.35562903   0.67725358
| 28> H   -0.78493584   1.06635190  -0.47058525
| 29> C    1.68354656   0.60011395   0.52313709
| 30> H    0.10733911  -0.49043691   1.46812769
| 31> H    0.53010408   0.98768455   2.28739357
| 32> C    1.87763450  -0.18109157  -0.63241122
| 33> C    3.06293214  -0.01123336  -1.34849295
| 34> C    3.99101750   0.95996116  -0.99117239
| 35> C    2.65121866   1.52539743   0.90076019
| 36> C    3.79833605   1.71945305   0.14958722
| 37> H    3.24775997  -0.62154512  -2.22503409
| 38> H    4.87590678   1.10229159  -1.59849377
| 39> H    2.50942600   2.08229727   1.82037988
| 40> H    4.49289297   2.50466471   0.41533386
| 41> Pd   0.53256979  -1.58313323  -1.28784302
| 42> Br  -1.13983185  -3.46539171  -1.74258368
| 43> P    1.12220201  -2.93094935   0.39442570
| 44> H    0.14741086  -3.30318660   1.33060898
| 45> C    0.78961294  -0.82010671  -3.98806410
| 46> O    1.72715754  -1.58401345  -4.10791675
| 47> O    0.03152454  -0.64519448  -2.97764117
| 48> O    0.47597566   0.01498971  -5.02969753
| 49> H    2.17221005  -2.62301287   1.27080587
| 50> H    1.55546585  -4.20833384   0.00159711
| 51> H    1.14427207  -0.14384472  -5.70724297
| 52> *
| 53>
| 54>                          ****END OF INPUT****

CARTESIAN COORDINATES (ANGSTROEM)
---------------------------------
  C     -2.742590   -0.392734    0.750071
  C     -2.092545    0.839259    1.170318
  C     -3.969543   -0.613311    1.347444
  C     -4.660618    0.337131    2.127405
  C     -4.044610    1.512702    2.483743
  C     -2.739805    1.738783    2.057584
  H     -2.412741   -1.062456    0.015375
  H     -4.474717   -1.537968    1.128786
  H     -2.233640    2.648043    2.403024
  H     -5.683473    0.143987    2.433047
  H     -4.562697    2.261545    3.063276
  C     -0.768504    1.273089    0.598659
  C      0.399119    0.546209    1.292665
  H     -0.610586    2.355629    0.677254
  H     -0.784936    1.066352   -0.470585
  C      1.683547    0.600114    0.523137
  H      0.107339   -0.490437    1.468128
  H      0.530104    0.987685    2.287394
  C      1.877635   -0.181092   -0.632411
  C      3.062932   -0.011233   -1.348493
  C      3.991017    0.959961   -0.991172
  C      2.651219    1.525397    0.900760
  C      3.798336    1.719453    0.149587
  H      3.247760   -0.621545   -2.225034
  H      4.875907    1.102292   -1.598494
  H      2.509426    2.082297    1.820380
  H      4.492893    2.504665    0.415334
  Pd     0.532570   -1.583133   -1.287843
  Br    -1.139832   -3.465392   -1.742584
  P      1.122202   -2.930949    0.394426
  H      0.147411   -3.303187    1.330609
  C      0.789613   -0.820107   -3.988064
  O      1.727158   -1.584013   -4.107917
  O      0.031525   -0.645194   -2.977641
  O      0.475976    0.014990   -5.029698
  H      2.172210   -2.623013    1.270806
  H      1.555466   -4.208334    0.001597
  H      1.144272   -0.143845   -5.707243

 Total Charge           Charge          ....   -1
 Multiplicity           Mult            ....    1
 Number of Electrons    NEL             ....  200
 Basis Dimension        Dim             ....  385

ORBITAL ENERGIES
----------------

  NO   OCC          E(Eh)            E(eV)
   0   2.0000    -484.320072    -13179.0192
   1   2.0000     -77.672845     -2113.5856
   2   2.0000     -62.981808     -1713.8221
   3   2.0000     -56.685451     -1542.4895
   4   2.0000     -56.684497     -1542.4636
   5   2.0000     -56.684397     -1542.4608
   6   2.0000     -19.378231      -527.3085
   7   2.0000     -19.331804      -526.0451
   8   2.0000     -19.303480      -525.2744
   9   2.0000     -10.444230      -284.2020
  10   2.0000     -10.370678      -282.2005
  11   2.0000     -10.359322      -281.8915
  12   2.0000     -10.358196      -281.8608
  13   2.0000     -10.357245      -281.8350
  14   2.0000     -10.354569      -281.7621
  15   2.0000     -10.351368      -281.6750
  16   2.0000     -10.336836      -281.2796
  17   2.0000     -10.336346      -281.2663
  18   2.0000     -10.335774      -281.2507
  19   2.0000     -10.333473      -281.1881
  20   2.0000     -10.332535      -281.1626
  21   2.0000     -10.330741      -281.1137
  22   2.0000     -10.328796      -281.0608
  23   2.0000     -10.318831      -280.7897
  24   2.0000      -8.809177      -239.7099
  25   2.0000      -6.747964      -183.6214
  26   2.0000      -6.578474      -179.0094
  27   2.0000      -6.573927      -178.8856
  28   2.0000      -6.573851      -178.8836
  29   2.0000      -4.839025      -131.6766
  30   2.0000      -4.838840      -131.6715
  31   2.0000      -4.837112      -131.6245
  32   2.0000      -3.518736       -95.7497
  33   2.0000      -2.592613       -70.5486
  34   2.0000      -2.591313       -70.5132
  35   2.0000      -2.591226       -70.5108
  36   2.0000      -2.587273       -70.4033
  37   2.0000      -2.587257       -70.4029
  38   2.0000      -2.165776       -58.9338
  39   2.0000      -2.160427       -58.7882
  40   2.0000      -2.132240       -58.0212
  41   2.0000      -1.073684       -29.2164
  42   2.0000      -0.964352       -26.2414
  43   2.0000      -0.933761       -25.4089
  44   2.0000      -0.860865       -23.4253
  45   2.0000      -0.840443       -22.8696
  46   2.0000      -0.787569       -21.4308
  47   2.0000      -0.747338       -20.3361
  48   2.0000      -0.741512       -20.1776
  49   2.0000      -0.711989       -19.3742
  50   2.0000      -0.685950       -18.6656
  51   2.0000      -0.652790       -17.7633
  52   2.0000      -0.629479       -17.1290
  53   2.0000      -0.618461       -16.8292
  54   2.0000      -0.586200       -15.9513
  55   2.0000      -0.559348       -15.2206
  56   2.0000      -0.557944       -15.1824
  57   2.0000      -0.534287       -14.5387
  58   2.0000      -0.532891       -14.5007
  59   2.0000      -0.486623       -13.2417
  60   2.0000      -0.457911       -12.4604
  61   2.0000      -0.438664       -11.9367
  62   2.0000      -0.431425       -11.7397
  63   2.0000      -0.410273       -11.1641
  64   2.0000      -0.409324       -11.1383
  65   2.0000      -0.399493       -10.8707
  66   2.0000      -0.393597       -10.7103
  67   2.0000      -0.391557       -10.6548
  68   2.0000      -0.376784       -10.2528
  69   2.0000      -0.374645       -10.1946
  70   2.0000      -0.370674       -10.0866
  71   2.0000      -0.369369       -10.0510
  72   2.0000      -0.361466        -9.8360
  73   2.0000      -0.355938        -9.6856
  74   2.0000      -0.345624        -9.4049
  75   2.0000      -0.337028        -9.1710
  76   2.0000      -0.331778        -9.0281
  77   2.0000      -0.320403        -8.7186
  78   2.0000      -0.310757        -8.4561
  79   2.0000      -0.303337        -8.2542
  80   2.0000      -0.298564        -8.1243
  81   2.0000      -0.290239        -7.8978
  82   2.0000      -0.283148        -7.7048
  83   2.0000      -0.269141        -7.3237
  84   2.0000      -0.263332        -7.1656
  85   2.0000      -0.258316        -7.0291
  86   2.0000      -0.241387        -6.5685
  87   2.0000      -0.223490        -6.0815
  88   2.0000      -0.213583        -5.8119
  89   2.0000      -0.202360        -5.5065
  90   2.0000      -0.194540        -5.2937
  91   2.0000      -0.188968        -5.1421
  92   2.0000      -0.185891        -5.0584
  93   2.0000      -0.178772        -4.8646
  94   2.0000      -0.169869        -4.6224
  95   2.0000      -0.160673        -4.3721
  96   2.0000      -0.154705        -4.2097
  97   2.0000      -0.146382        -3.9833
  98   2.0000      -0.142061        -3.8657
  99   2.0000      -0.138098        -3.7578
 100   0.0000       0.102809         2.7976
 101   0.0000       0.109096         2.9686
 102   0.0000       0.112234         3.0540
 103   0.0000       0.133627         3.6362
 104   0.0000       0.139431         3.7941

MULLIKEN ATOMIC CHARGES
-----------------------
   0 C :   -0.249312
   1 C :    0.065233
   2 C :   -0.233290
   3 C :   -0.225078
   4 C :   -0.210592
   5 C :   -0.258280
   6 H :    0.305032
   7 H :    0.212258
   8 H :    0.194649
   9 H :    0.194116
  10 H :    0.194327
  11 C :   -0.503369
  12 C :   -0.501183
  13 H :    0.215279
  14 H :    0.309826
  15 C :    0.111310
  16 H :    0.241163
  17 H :    0.205730
  18 C :   -0.134022
  19 C :   -0.268027
  20 C :   -0.230976
  21 C :   -0.277811
  22 C :   -0.227325
  23 H :    0.258572
  24 H :    0.182734
  25 H :    0.172196
  26 H :    0.177217
  27 Pd:    0.115164
  28 Br:   -0.484401
  29 P :   -0.116223
  30 H :    0.120281
  31 C :    0.715037
  32 O :   -0.520926
  33 O :   -0.548685
  34 O :   -0.625891
  35 H :    0.091275
  36 H :    0.125242
  37 H :    0.408749
Sum of atomic charges:   -1.0000000

LOEWDIN ATOMIC CHARGES
----------------------
   0 C :   -0.119892
   1 C :   -0.020701
   2 C :   -0.131439
   3 C :   -0.160802
   4 C :   -0.147386
   5 C :   -0.152026
   6 H :    0.176401
   7 H :    0.130280
   8 H :    0.126958
   9 H :    0.124740
  10 H :    0.123875
  11 C :   -0.214669
  12 C :   -0.206158
  13 H :    0.125466
  14 H :    0.172588
  15 C :   -0.054339
  16 H :    0.137920
  17 H :    0.118560
  18 C :   -0.028840
  19 C :   -0.123410
  20 C :   -0.150427
  21 C :   -0.149297
  22 C :   -0.167517
  23 H :    0.160517
  24 H :    0.120640
  25 H :    0.117689
  26 H :    0.117950
  27 Pd:   -0.839068
  28 Br:   -0.257031
  29 P :    0.420093
  30 H :    0.053932
  31 C :    0.142020
  32 O :   -0.315020
  33 O :   -0.196722
  34 O :   -0.340916
  35 H :    0.032928
  36 H :    0.059986
  37 H :    0.313118

  Mayer bond orders larger than 0.100000
B(  0-C ,  1-C ) :   1.3543 B(  0-C ,  2-C ) :   1.4647 B(  0-C ,  6-H ) :   0.8666
B(  1-C ,  5-C ) :   1.4358 B(  1-C , 11-C ) :   0.9520 B(  2-C ,  3-C ) :   1.3874
B(  2-C ,  7-H ) :   0.9210 B(  3-C ,  4-C ) :   1.4579 B(  3-C ,  9-H ) :   0.9274
B(  4-C ,  5-C ) :   1.4027 B(  4-C , 10-H ) :   0.9250 B(  5-C ,  8-H ) :   0.9270
B( 11-C , 12-C ) :   0.9298 B( 11-C , 13-H ) :   0.9261 B( 11-C , 14-H ) :   0.8751
B( 12-C , 15-C ) :   0.9707 B( 12-C , 16-H ) :   0.8963 B( 12-C , 17-H ) :   0.9265
B( 15-C , 18-C ) :   1.3455 B( 15-C , 21-C ) :   1.4118 B( 18-C , 19-C ) :   1.4260
B( 18-C , 27-Pd) :   0.7643 B( 18-C , 28-Br) :   0.1118 B( 19-C , 20-C ) :   1.4007
B( 19-C , 23-H ) :   0.8849 B( 20-C , 22-C ) :   1.4315 B( 20-C , 24-H ) :   0.9283
B( 21-C , 22-C ) :   1.4236 B( 21-C , 25-H ) :   0.9275 B( 22-C , 26-H ) :   0.9301
B( 27-Pd, 28-Br) :   0.6030 B( 27-Pd, 29-P ) :   0.7347 B( 27-Pd, 33-O ) :   0.5157
B( 29-P , 30-H ) :   0.9275 B( 29-P , 35-H ) :   0.9099 B( 29-P , 36-H ) :   0.9350
B( 31-C , 32-O ) :   1.8124 B( 31-C , 33-O ) :   1.3450 B( 31-C , 34-O ) :   1.0576
B( 34-O , 37-H ) :   0.7874

Dispersion correction           -0.030685296
FINAL SINGLE POINT ENERGY     -3847.771229866139
Dispersion correction            ... done

DIPOLE MOMENT
-------------
                                X             Y             Z
Electronic contribution:     25.73646     -79.97390     -57.41859
Nuclear contribution   :    -25.36202      80.49501      60.23417
                        -----------------------------------------
Total Dipole Moment    :      0.37444       0.52111       2.81558
                        -----------------------------------------
Magnitude (a.u.)       :      2.88778
Magnitude (Debye)      :      7.34014

Rotational constants in cm-1:     0.007283     0.005514     0.004054
Rotational constants in MHz :   218.346501   165.291022   121.538776

                             ****ORCA TERMINATED NORMALLY****
TOTAL RUN TIME: 0 days 0 hours 32 minutes 13 seconds 914 msec
