                         Program Version 5.0.3 -  RELEASE  -
|  1> ! EnGrad PBEh-3c
|  2> %output
|  3> xyzfile=True
|  4> end
|  5> %scf
|  6> maxiter 250
|  7> end
|  8> %output
|  9> Print[P_Hirshfeld] = 1
| 10> end
| 11> % maxcore
| 12> 4000
| 13> *xyz -1 1
| 14> C   -2.75901943  -0.32359375   0.77120080
| 15> C   -2.10600110   0.81152471   1.15982828
| 16> C   -3.97335596  -0.61439600   1.31116879
| 17> C   -4.65440099   0.32803705   2.10467904
| 18> C   -4.05002653   1.50935637   2.47327171
| 19> C   -2.73675882   1.71809805   2.03581734
| 20> H   -2.38998103  -1.02120113   0.03758209
| 21> H   -4.47166900  -1.53852084   1.11419866
| 22> H   -2.23796281   2.63179523   2.40750475
| 23> H   -5.69363307   0.15220059   2.38742414
| 24> H   -4.57943783   2.26968635   3.04071260
| 25> C   -0.75523888   1.27019668   0.61697348
| 26> C    0.40933161   0.54186035   1.30692571
| 27> H   -0.60753954   2.35630634   0.72047513
| 28> H   -0.76555752   1.07834488  -0.45809729
| 29> C    1.69336659   0.59084911   0.52920572
| 30> H    0.10666303  -0.49253022   1.47400617
| 31> H    0.54405740   0.98127909   2.29931335
| 32> C    1.86729842  -0.18369488  -0.63790991
| 33> C    3.05426392  -0.00559306  -1.35046974
| 34> C    3.98766366   0.96351067  -0.99641216
| 35> C    2.65342759   1.53425579   0.89935480
| 36> C    3.80241148   1.72029311   0.14942131
| 37> H    3.23343853  -0.61311259  -2.23239091
| 38> H    4.86401190   1.11361869  -1.61127599
| 39> H    2.52613523   2.07256479   1.83156184
| 40> H    4.49967880   2.50325099   0.41610878
| 41> Pd   0.52467030  -1.60713872  -1.28836746
| 42> Br  -1.13902562  -3.47722544  -1.71597258
| 43> P    1.13068448  -2.92884839   0.38888011
| 44> H    0.16800188  -3.31303624   1.33854626
| 45> C    0.77289673  -0.82980581  -3.97735564
| 46> O    1.71346872  -1.57846779  -4.10832711
| 47> O    0.01894892  -0.66895901  -2.97343258
| 48> O    0.45925456   0.01734089  -5.01764584
| 49> H    2.19477427  -2.62559645   1.26748330
| 50> H    1.56360977  -4.20713343  -0.01126357
| 51> H    1.13766644  -0.13267311  -5.69698156
| 52> *
| 53>
| 54>                          ****END OF INPUT****

CARTESIAN COORDINATES (ANGSTROEM)
---------------------------------
  C     -2.759019   -0.323594    0.771201
  C     -2.106001    0.811525    1.159828
  C     -3.973356   -0.614396    1.311169
  C     -4.654401    0.328037    2.104679
  C     -4.050027    1.509356    2.473272
  C     -2.736759    1.718098    2.035817
  H     -2.389981   -1.021201    0.037582
  H     -4.471669   -1.538521    1.114199
  H     -2.237963    2.631795    2.407505
  H     -5.693633    0.152201    2.387424
  H     -4.579438    2.269686    3.040713
  C     -0.755239    1.270197    0.616973
  C      0.409332    0.541860    1.306926
  H     -0.607540    2.356306    0.720475
  H     -0.765558    1.078345   -0.458097
  C      1.693367    0.590849    0.529206
  H      0.106663   -0.492530    1.474006
  H      0.544057    0.981279    2.299313
  C      1.867298   -0.183695   -0.637910
  C      3.054264   -0.005593   -1.350470
  C      3.987664    0.963511   -0.996412
  C      2.653428    1.534256    0.899355
  C      3.802411    1.720293    0.149421
  H      3.233439   -0.613113   -2.232391
  H      4.864012    1.113619   -1.611276
  H      2.526135    2.072565    1.831562
  H      4.499679    2.503251    0.416109
  Pd     0.524670   -1.607139   -1.288367
  Br    -1.139026   -3.477225   -1.715973
  P      1.130684   -2.928848    0.388880
  H      0.168002   -3.313036    1.338546
  C      0.772897   -0.829806   -3.977356
  O      1.713469   -1.578468   -4.108327
  O      0.018949   -0.668959   -2.973433
  O      0.459255    0.017341   -5.017646
  H      2.194774   -2.625596    1.267483
  H      1.563610   -4.207133   -0.011264
  H      1.137666   -0.132673   -5.696982

 Total Charge           Charge          ....   -1
 Multiplicity           Mult            ....    1
 Number of Electrons    NEL             ....  200
 Basis Dimension        Dim             ....  385

ORBITAL ENERGIES
----------------

  NO   OCC          E(Eh)            E(eV)
   0   2.0000    -484.321947    -13179.0702
   1   2.0000     -77.673968     -2113.6161
   2   2.0000     -62.983737     -1713.8746
   3   2.0000     -56.687395     -1542.5424
   4   2.0000     -56.686413     -1542.5157
   5   2.0000     -56.686312     -1542.5130
   6   2.0000     -19.375337      -527.2297
   7   2.0000     -19.332066      -526.0523
   8   2.0000     -19.302328      -525.2431
   9   2.0000     -10.442246      -284.1479
  10   2.0000     -10.361032      -281.9380
  11   2.0000     -10.359625      -281.8997
  12   2.0000     -10.358198      -281.8609
  13   2.0000     -10.357125      -281.8317
  14   2.0000     -10.351748      -281.6854
  15   2.0000     -10.342156      -281.4244
  16   2.0000     -10.338026      -281.3120
  17   2.0000     -10.336629      -281.2740
  18   2.0000     -10.335926      -281.2549
  19   2.0000     -10.333668      -281.1934
  20   2.0000     -10.332751      -281.1684
  21   2.0000     -10.330692      -281.1124
  22   2.0000     -10.329069      -281.0683
  23   2.0000     -10.318940      -280.7926
  24   2.0000      -8.811158      -239.7638
  25   2.0000      -6.748676      -183.6408
  26   2.0000      -6.580544      -179.0657
  27   2.0000      -6.575862      -178.9383
  28   2.0000      -6.575791      -178.9364
  29   2.0000      -4.839717      -131.6954
  30   2.0000      -4.839565      -131.6913
  31   2.0000      -4.837881      -131.6454
  32   2.0000      -3.520167       -95.7886
  33   2.0000      -2.594672       -70.6046
  34   2.0000      -2.593327       -70.5680
  35   2.0000      -2.593252       -70.5660
  36   2.0000      -2.589184       -70.4553
  37   2.0000      -2.589164       -70.4547
  38   2.0000      -2.167701       -58.9861
  39   2.0000      -2.161527       -58.8181
  40   2.0000      -2.133544       -58.0567
  41   2.0000      -1.072902       -29.1951
  42   2.0000      -0.963484       -26.2177
  43   2.0000      -0.936994       -25.4969
  44   2.0000      -0.869256       -23.6537
  45   2.0000      -0.839319       -22.8390
  46   2.0000      -0.786834       -21.4108
  47   2.0000      -0.750404       -20.4195
  48   2.0000      -0.742278       -20.1984
  49   2.0000      -0.711862       -19.3707
  50   2.0000      -0.686629       -18.6841
  51   2.0000      -0.652749       -17.7622
  52   2.0000      -0.630782       -17.1644
  53   2.0000      -0.615703       -16.7541
  54   2.0000      -0.589810       -16.0495
  55   2.0000      -0.562570       -15.3083
  56   2.0000      -0.557036       -15.1577
  57   2.0000      -0.533096       -14.5063
  58   2.0000      -0.529464       -14.4074
  59   2.0000      -0.486005       -13.2249
  60   2.0000      -0.457195       -12.4409
  61   2.0000      -0.439841       -11.9687
  62   2.0000      -0.426685       -11.6107
  63   2.0000      -0.413079       -11.2404
  64   2.0000      -0.410881       -11.1806
  65   2.0000      -0.398668       -10.8483
  66   2.0000      -0.393593       -10.7102
  67   2.0000      -0.390407       -10.6235
  68   2.0000      -0.377065       -10.2605
  69   2.0000      -0.374069       -10.1789
  70   2.0000      -0.369474       -10.0539
  71   2.0000      -0.368444       -10.0259
  72   2.0000      -0.361414        -9.8346
  73   2.0000      -0.355605        -9.6765
  74   2.0000      -0.345697        -9.4069
  75   2.0000      -0.338177        -9.2023
  76   2.0000      -0.329213        -8.9583
  77   2.0000      -0.322854        -8.7853
  78   2.0000      -0.311644        -8.4803
  79   2.0000      -0.301918        -8.2156
  80   2.0000      -0.297271        -8.0891
  81   2.0000      -0.289102        -7.8669
  82   2.0000      -0.285163        -7.7597
  83   2.0000      -0.266148        -7.2423
  84   2.0000      -0.263587        -7.1726
  85   2.0000      -0.259017        -7.0482
  86   2.0000      -0.242086        -6.5875
  87   2.0000      -0.223176        -6.0729
  88   2.0000      -0.215329        -5.8594
  89   2.0000      -0.204589        -5.5671
  90   2.0000      -0.195311        -5.3147
  91   2.0000      -0.190899        -5.1946
  92   2.0000      -0.188915        -5.1407
  93   2.0000      -0.179536        -4.8854
  94   2.0000      -0.169857        -4.6220
  95   2.0000      -0.161392        -4.3917
  96   2.0000      -0.155545        -4.2326
  97   2.0000      -0.147792        -4.0216
  98   2.0000      -0.142814        -3.8862
  99   2.0000      -0.139214        -3.7882
 100   0.0000       0.106881         2.9084
 101   0.0000       0.108839         2.9617
 102   0.0000       0.114257         3.1091
 103   0.0000       0.133523         3.6334
 104   0.0000       0.139377         3.7926

MULLIKEN ATOMIC CHARGES
-----------------------
   0 C :   -0.290101
   1 C :    0.130900
   2 C :   -0.207790
   3 C :   -0.248425
   4 C :   -0.201341
   5 C :   -0.285337
   6 H :    0.298251
   7 H :    0.218460
   8 H :    0.192565
   9 H :    0.191052
  10 H :    0.194594
  11 C :   -0.503107
  12 C :   -0.498922
  13 H :    0.214158
  14 H :    0.307246
  15 C :    0.091825
  16 H :    0.240869
  17 H :    0.204906
  18 C :   -0.120946
  19 C :   -0.273650
  20 C :   -0.226606
  21 C :   -0.267677
  22 C :   -0.232048
  23 H :    0.258216
  24 H :    0.183588
  25 H :    0.172444
  26 H :    0.177092
  27 Pd:    0.107129
  28 Br:   -0.474500
  29 P :   -0.112587
  30 H :    0.118792
  31 C :    0.712152
  32 O :   -0.518015
  33 O :   -0.543196
  34 O :   -0.631545
  35 H :    0.089894
  36 H :    0.124966
  37 H :    0.406691
Sum of atomic charges:   -1.0000000

LOEWDIN ATOMIC CHARGES
----------------------
   0 C :   -0.121131
   1 C :   -0.033821
   2 C :   -0.131819
   3 C :   -0.154547
   4 C :   -0.152857
   5 C :   -0.140654
   6 H :    0.176440
   7 H :    0.133910
   8 H :    0.124989
   9 H :    0.121991
  10 H :    0.124495
  11 C :   -0.209031
  12 C :   -0.208636
  13 H :    0.125321
  14 H :    0.171300
  15 C :   -0.053377
  16 H :    0.137345
  17 H :    0.118331
  18 C :   -0.031721
  19 C :   -0.123326
  20 C :   -0.151703
  21 C :   -0.151122
  22 C :   -0.166706
  23 H :    0.159907
  24 H :    0.120987
  25 H :    0.118032
  26 H :    0.117675
  27 Pd:   -0.847415
  28 Br:   -0.242877
  29 P :    0.424680
  30 H :    0.052938
  31 C :    0.134709
  32 O :   -0.310264
  33 O :   -0.188911
  34 O :   -0.348101
  35 H :    0.032359
  36 H :    0.059848
  37 H :    0.312758

  Mayer bond orders larger than 0.100000
B(  0-C ,  1-C ) :   1.3847 B(  0-C ,  2-C ) :   1.4383 B(  0-C ,  6-H ) :   0.8705
B(  1-C ,  5-C ) :   1.4062 B(  1-C , 11-C ) :   0.9430 B(  2-C ,  3-C ) :   1.4093
B(  2-C ,  7-H ) :   0.9193 B(  3-C ,  4-C ) :   1.4437 B(  3-C ,  9-H ) :   0.9276
B(  4-C ,  5-C ) :   1.4185 B(  4-C , 10-H ) :   0.9258 B(  5-C ,  8-H ) :   0.9277
B( 11-C , 12-C ) :   0.9307 B( 11-C , 13-H ) :   0.9272 B( 11-C , 14-H ) :   0.8777
B( 12-C , 15-C ) :   0.9752 B( 12-C , 16-H ) :   0.8971 B( 12-C , 17-H ) :   0.9264
B( 15-C , 18-C ) :   1.3432 B( 15-C , 21-C ) :   1.4084 B( 18-C , 19-C ) :   1.4243
B( 18-C , 27-Pd) :   0.7535 B( 18-C , 28-Br) :   0.1134 B( 19-C , 20-C ) :   1.4009
B( 19-C , 23-H ) :   0.8849 B( 20-C , 22-C ) :   1.4309 B( 20-C , 24-H ) :   0.9283
B( 21-C , 22-C ) :   1.4253 B( 21-C , 25-H ) :   0.9274 B( 22-C , 26-H ) :   0.9299
B( 27-Pd, 28-Br) :   0.6157 B( 27-Pd, 29-P ) :   0.7512 B( 27-Pd, 33-O ) :   0.5109
B( 29-P , 30-H ) :   0.9263 B( 29-P , 35-H ) :   0.9092 B( 29-P , 36-H ) :   0.9340
B( 31-C , 32-O ) :   1.8164 B( 31-C , 33-O ) :   1.3561 B( 31-C , 34-O ) :   1.0483
B( 34-O , 37-H ) :   0.7892

Dispersion correction           -0.030686501
FINAL SINGLE POINT ENERGY     -3847.773109964338
Dispersion correction            ... done

DIPOLE MOMENT
-------------
                                X             Y             Z
Electronic contribution:     25.31406     -81.28580     -57.41208
Nuclear contribution   :    -24.97921      81.76707      60.24950
                        -----------------------------------------
Total Dipole Moment    :      0.33484       0.48127       2.83742
                        -----------------------------------------
Magnitude (a.u.)       :      2.89736
Magnitude (Debye)      :      7.36450

Rotational constants in cm-1:     0.007271     0.005528     0.004063
Rotational constants in MHz :   217.970619   165.724135   121.793174

                             ****ORCA TERMINATED NORMALLY****
TOTAL RUN TIME: 0 days 0 hours 34 minutes 8 seconds 751 msec
