                         Program Version 5.0.3 -  RELEASE  -
|  1> ! EnGrad PBEh-3c
|  2> %output
|  3> xyzfile=True
|  4> end
|  5> %scf
|  6> maxiter 250
|  7> end
|  8> %output
|  9> Print[P_Hirshfeld] = 1
| 10> end
| 11> % maxcore
| 12> 4000
| 13> *xyz -1 1
| 14> C   -2.78518218  -0.24297023   0.81126606
| 15> C   -2.10558051   0.82344423   1.15371746
| 16> C   -3.99377573  -0.61031278   1.27457247
| 17> C   -4.65549829   0.31580223   2.07770622
| 18> C   -4.04954793   1.50286590   2.45251674
| 19> C   -2.73587777   1.69906772   2.02009887
| 20> H   -2.35158062  -0.98706730   0.04486638
| 21> H   -4.47044112  -1.54489400   1.09101771
| 22> H   -2.24468527   2.60321964   2.40396184
| 23> H   -5.70133184   0.15884297   2.33292766
| 24> H   -4.59723391   2.27609932   3.01282944
| 25> C   -0.74162334   1.26249769   0.63891069
| 26> C    0.41964976   0.53460538   1.32456750
| 27> H   -0.60704903   2.35119583   0.77368403
| 28> H   -0.73837705   1.09248709  -0.44290716
| 29> C    1.69952062   0.58409135   0.52801632
| 30> H    0.10644631  -0.49696328   1.48218331
| 31> H    0.56138721   0.97274459   2.31485682
| 32> C    1.85484797  -0.19181434  -0.64421580
| 33> C    3.04061230   0.00190669  -1.35567445
| 34> C    3.98404210   0.96523212  -1.00099849
| 35> C    2.65940550   1.53571613   0.90204188
| 36> C    3.80368638   1.72572333   0.14545146
| 37> H    3.21605080  -0.60150504  -2.24118001
| 38> H    4.85071020   1.12678517  -1.62695699
| 39> H    2.54476518   2.06362879   1.84353087
| 40> H    4.50990970   2.50069793   0.41795646
| 41> Pd   0.52758630  -1.63849236  -1.27104277
| 42> Br  -1.14196608  -3.49298751  -1.68312820
| 43> P    1.13954344  -2.92676828   0.38068712
| 44> H    0.19462219  -3.32533104   1.34836262
| 45> C    0.77146508  -0.84742954  -3.97253497
| 46> O    1.69470118  -1.56936640  -4.10995789
| 47> O   -0.00749579  -0.68326712  -2.97755096
| 48> O    0.43651736   0.01961771  -4.99966334
| 49> H    2.22094044  -2.62805444   1.26182372
| 50> H    1.57302167  -4.20394663  -0.02651971
| 51> H    1.12435813  -0.12049167  -5.67677872
| 52> *
| 53>
| 54>                          ****END OF INPUT****

CARTESIAN COORDINATES (ANGSTROEM)
---------------------------------
  C     -2.785182   -0.242970    0.811266
  C     -2.105581    0.823444    1.153717
  C     -3.993776   -0.610313    1.274572
  C     -4.655498    0.315802    2.077706
  C     -4.049548    1.502866    2.452517
  C     -2.735878    1.699068    2.020099
  H     -2.351581   -0.987067    0.044866
  H     -4.470441   -1.544894    1.091018
  H     -2.244685    2.603220    2.403962
  H     -5.701332    0.158843    2.332928
  H     -4.597234    2.276099    3.012829
  C     -0.741623    1.262498    0.638911
  C      0.419650    0.534605    1.324567
  H     -0.607049    2.351196    0.773684
  H     -0.738377    1.092487   -0.442907
  C      1.699521    0.584091    0.528016
  H      0.106446   -0.496963    1.482183
  H      0.561387    0.972745    2.314857
  C      1.854848   -0.191814   -0.644216
  C      3.040612    0.001907   -1.355674
  C      3.984042    0.965232   -1.000998
  C      2.659406    1.535716    0.902042
  C      3.803686    1.725723    0.145451
  H      3.216051   -0.601505   -2.241180
  H      4.850710    1.126785   -1.626957
  H      2.544765    2.063629    1.843531
  H      4.509910    2.500698    0.417956
  Pd     0.527586   -1.638492   -1.271043
  Br    -1.141966   -3.492988   -1.683128
  P      1.139543   -2.926768    0.380687
  H      0.194622   -3.325331    1.348363
  C      0.771465   -0.847430   -3.972535
  O      1.694701   -1.569366   -4.109958
  O     -0.007496   -0.683267   -2.977551
  O      0.436517    0.019618   -4.999663
  H      2.220940   -2.628054    1.261824
  H      1.573022   -4.203947   -0.026520
  H      1.124358   -0.120492   -5.676779

 Total Charge           Charge          ....   -1
 Multiplicity           Mult            ....    1
 Number of Electrons    NEL             ....  200
 Basis Dimension        Dim             ....  385

ORBITAL ENERGIES
----------------

  NO   OCC          E(Eh)            E(eV)
   0   2.0000    -484.323589    -13179.1149
   1   2.0000     -77.675145     -2113.6481
   2   2.0000     -62.985408     -1713.9201
   3   2.0000     -56.689081     -1542.5883
   4   2.0000     -56.688067     -1542.5607
   5   2.0000     -56.687972     -1542.5581
   6   2.0000     -19.370329      -527.0934
   7   2.0000     -19.326931      -525.9125
   8   2.0000     -19.307926      -525.3954
   9   2.0000     -10.439062      -284.0613
  10   2.0000     -10.359399      -281.8936
  11   2.0000     -10.355415      -281.7852
  12   2.0000     -10.354349      -281.7562
  13   2.0000     -10.351167      -281.6696
  14   2.0000     -10.348837      -281.6062
  15   2.0000     -10.339244      -281.3451
  16   2.0000     -10.339125      -281.3419
  17   2.0000     -10.338633      -281.3285
  18   2.0000     -10.336240      -281.2634
  19   2.0000     -10.334972      -281.2289
  20   2.0000     -10.333938      -281.2008
  21   2.0000     -10.331708      -281.1401
  22   2.0000     -10.330257      -281.1006
  23   2.0000     -10.320117      -280.8247
  24   2.0000      -8.812865      -239.8102
  25   2.0000      -6.749497      -183.6632
  26   2.0000      -6.582359      -179.1151
  27   2.0000      -6.577520      -178.9834
  28   2.0000      -6.577435      -178.9811
  29   2.0000      -4.840497      -131.7166
  30   2.0000      -4.840382      -131.7135
  31   2.0000      -4.838820      -131.6710
  32   2.0000      -3.523079       -95.8679
  33   2.0000      -2.596472       -70.6536
  34   2.0000      -2.595071       -70.6155
  35   2.0000      -2.595016       -70.6140
  36   2.0000      -2.590798       -70.4992
  37   2.0000      -2.590772       -70.4985
  38   2.0000      -2.170793       -59.0703
  39   2.0000      -2.164216       -58.8913
  40   2.0000      -2.136484       -58.1367
  41   2.0000      -1.075618       -29.2691
  42   2.0000      -0.962542       -26.1921
  43   2.0000      -0.941379       -25.6162
  44   2.0000      -0.879303       -23.9270
  45   2.0000      -0.838672       -22.8214
  46   2.0000      -0.789158       -21.4741
  47   2.0000      -0.748526       -20.3684
  48   2.0000      -0.746573       -20.3153
  49   2.0000      -0.712627       -19.3916
  50   2.0000      -0.688832       -18.7441
  51   2.0000      -0.652980       -17.7685
  52   2.0000      -0.631491       -17.1837
  53   2.0000      -0.615311       -16.7435
  54   2.0000      -0.593223       -16.1424
  55   2.0000      -0.562938       -15.3183
  56   2.0000      -0.556924       -15.1547
  57   2.0000      -0.533313       -14.5122
  58   2.0000      -0.520611       -14.1665
  59   2.0000      -0.487277       -13.2595
  60   2.0000      -0.457401       -12.4465
  61   2.0000      -0.442063       -12.0292
  62   2.0000      -0.421899       -11.4805
  63   2.0000      -0.414999       -11.2927
  64   2.0000      -0.405929       -11.0459
  65   2.0000      -0.399407       -10.8684
  66   2.0000      -0.392579       -10.6826
  67   2.0000      -0.387956       -10.5568
  68   2.0000      -0.379891       -10.3373
  69   2.0000      -0.375497       -10.2178
  70   2.0000      -0.369466       -10.0537
  71   2.0000      -0.367858       -10.0099
  72   2.0000      -0.362539        -9.8652
  73   2.0000      -0.356356        -9.6969
  74   2.0000      -0.347107        -9.4453
  75   2.0000      -0.339884        -9.2487
  76   2.0000      -0.329822        -8.9749
  77   2.0000      -0.321958        -8.7609
  78   2.0000      -0.310896        -8.4599
  79   2.0000      -0.304237        -8.2787
  80   2.0000      -0.294730        -8.0200
  81   2.0000      -0.289582        -7.8799
  82   2.0000      -0.281003        -7.6465
  83   2.0000      -0.265388        -7.2216
  84   2.0000      -0.262296        -7.1374
  85   2.0000      -0.259971        -7.0742
  86   2.0000      -0.239265        -6.5107
  87   2.0000      -0.224147        -6.0994
  88   2.0000      -0.217708        -5.9241
  89   2.0000      -0.204665        -5.5692
  90   2.0000      -0.199821        -5.4374
  91   2.0000      -0.195941        -5.3318
  92   2.0000      -0.192159        -5.2289
  93   2.0000      -0.182139        -4.9562
  94   2.0000      -0.169981        -4.6254
  95   2.0000      -0.162030        -4.4091
  96   2.0000      -0.158868        -4.3230
  97   2.0000      -0.149440        -4.0665
  98   2.0000      -0.143947        -3.9170
  99   2.0000      -0.141932        -3.8622
 100   0.0000       0.106697         2.9034
 101   0.0000       0.109632         2.9832
 102   0.0000       0.118614         3.2277
 103   0.0000       0.133088         3.6215
 104   0.0000       0.139049         3.7837

MULLIKEN ATOMIC CHARGES
-----------------------
   0 C :   -0.374307
   1 C :    0.249251
   2 C :   -0.163530
   3 C :   -0.278025
   4 C :   -0.186652
   5 C :   -0.328261
   6 H :    0.283075
   7 H :    0.223513
   8 H :    0.190510
   9 H :    0.189709
  10 H :    0.192598
  11 C :   -0.506469
  12 C :   -0.499010
  13 H :    0.211712
  14 H :    0.308957
  15 C :    0.076845
  16 H :    0.242242
  17 H :    0.204985
  18 C :   -0.107053
  19 C :   -0.278267
  20 C :   -0.223543
  21 C :   -0.261422
  22 C :   -0.234562
  23 H :    0.254859
  24 H :    0.184278
  25 H :    0.173340
  26 H :    0.177662
  27 Pd:    0.089540
  28 Br:   -0.463992
  29 P :   -0.110713
  30 H :    0.117463
  31 C :    0.703566
  32 O :   -0.487903
  33 O :   -0.546333
  34 O :   -0.635261
  35 H :    0.086991
  36 H :    0.124249
  37 H :    0.399957
Sum of atomic charges:   -1.0000000

LOEWDIN ATOMIC CHARGES
----------------------
   0 C :   -0.115455
   1 C :   -0.050401
   2 C :   -0.137529
   3 C :   -0.148000
   4 C :   -0.157257
   5 C :   -0.130033
   6 H :    0.173948
   7 H :    0.138331
   8 H :    0.122250
   9 H :    0.119697
  10 H :    0.125068
  11 C :   -0.204329
  12 C :   -0.209889
  13 H :    0.125102
  14 H :    0.172410
  15 C :   -0.050336
  16 H :    0.137803
  17 H :    0.118441
  18 C :   -0.033773
  19 C :   -0.122425
  20 C :   -0.153113
  21 C :   -0.152818
  22 C :   -0.165541
  23 H :    0.158198
  24 H :    0.121409
  25 H :    0.118599
  26 H :    0.117596
  27 Pd:   -0.855564
  28 Br:   -0.231647
  29 P :    0.433209
  30 H :    0.052079
  31 C :    0.119049
  32 O :   -0.273698
  33 O :   -0.204089
  34 O :   -0.356106
  35 H :    0.030812
  36 H :    0.059365
  37 H :    0.308635

  Mayer bond orders larger than 0.100000
B(  0-C ,  1-C ) :   1.3696 B(  0-C ,  2-C ) :   1.4121 B(  0-C ,  6-H ) :   0.8741
B(  1-C ,  5-C ) :   1.3743 B(  1-C , 11-C ) :   0.9322 B(  2-C ,  3-C ) :   1.4174
B(  2-C ,  7-H ) :   0.9180 B(  3-C ,  4-C ) :   1.4298 B(  3-C ,  9-H ) :   0.9264
B(  4-C ,  5-C ) :   1.4312 B(  4-C , 10-H ) :   0.9281 B(  5-C ,  8-H ) :   0.9266
B( 11-C , 12-C ) :   0.9319 B( 11-C , 13-H ) :   0.9278 B( 11-C , 14-H ) :   0.8778
B( 12-C , 15-C ) :   0.9767 B( 12-C , 16-H ) :   0.8971 B( 12-C , 17-H ) :   0.9268
B( 15-C , 18-C ) :   1.3407 B( 15-C , 21-C ) :   1.4039 B( 18-C , 19-C ) :   1.4223
B( 18-C , 27-Pd) :   0.7464 B( 18-C , 28-Br) :   0.1158 B( 19-C , 20-C ) :   1.4010
B( 19-C , 23-H ) :   0.8873 B( 20-C , 22-C ) :   1.4304 B( 20-C , 24-H ) :   0.9283
B( 21-C , 22-C ) :   1.4273 B( 21-C , 25-H ) :   0.9275 B( 22-C , 26-H ) :   0.9295
B( 27-Pd, 28-Br) :   0.6237 B( 27-Pd, 29-P ) :   0.7893 B( 27-Pd, 33-O ) :   0.5195
B( 29-P , 30-H ) :   0.9240 B( 29-P , 35-H ) :   0.9074 B( 29-P , 36-H ) :   0.9319
B( 31-C , 32-O ) :   1.8594 B( 31-C , 33-O ) :   1.3404 B( 31-C , 34-O ) :   1.0361
B( 34-O , 37-H ) :   0.7949

Dispersion correction           -0.030658814
FINAL SINGLE POINT ENERGY     -3847.758458065970
Dispersion correction            ... done

DIPOLE MOMENT
-------------
                                X             Y             Z
Electronic contribution:     25.60629     -83.04808     -56.45932
Nuclear contribution   :    -25.20743      83.46147      59.30362
                        -----------------------------------------
Total Dipole Moment    :      0.39887       0.41339       2.84430
                        -----------------------------------------
Magnitude (a.u.)       :      2.90173
Magnitude (Debye)      :      7.37561

Rotational constants in cm-1:     0.007247     0.005536     0.004069
Rotational constants in MHz :   217.267414   165.964507   121.972614

                             ****ORCA TERMINATED NORMALLY****
TOTAL RUN TIME: 0 days 0 hours 40 minutes 37 seconds 512 msec
