                         Program Version 5.0.3 -  RELEASE  -
|  1> ! EnGrad PBEh-3c
|  2> %output
|  3> xyzfile=True
|  4> end
|  5> %scf
|  6> maxiter 250
|  7> end
|  8> %output
|  9> Print[P_Hirshfeld] = 1
| 10> end
| 11> % maxcore
| 12> 4000
| 13> *xyz 0 1
| 14> C   -1.62222381   0.19300741  -0.41772817
| 15> C   -1.92522598  -0.82273994  -1.31355534
| 16> C   -1.48166496  -2.11078396  -1.05973579
| 17> C   -0.64394091  -2.37309567   0.01313617
| 18> C   -0.92263117  -0.13265638   0.73042357
| 19> C   -0.34800958  -1.37157253   0.92335420
| 20> H   -2.06927943   1.14844610  -0.66585343
| 21> H   -2.58420678  -0.64004596  -2.14625557
| 22> H   -1.80970301  -2.91999336  -1.69943349
| 23> H    0.30556297  -1.64217831   1.74474358
| 24> H   -0.30227390  -3.37911531   0.18923244
| 25> Pd   1.42620198   1.15102560  -0.05753544
| 26> O    3.02958616   1.15324326  -1.40074911
| 27> O    2.63946145  -0.51130930  -0.09446787
| 28> O    0.36766345   2.87027003   0.07790640
| 29> C    0.05837586   2.99585070   1.26678721
| 30> O    0.50563759   2.16336254   2.12786376
| 31> H   -1.39551641   1.05830054   2.70612063
| 32> C    3.28238045  -0.02307296  -1.05043286
| 33> H    4.13657711  -0.57825949  -1.46657093
| 34> H   -0.64676616   3.77130699   1.59275986
| 35> *
| 36>
| 37>                          ****END OF INPUT****

CARTESIAN COORDINATES (ANGSTROEM)
---------------------------------
  C     -1.622224    0.193007   -0.417728
  C     -1.925226   -0.822740   -1.313555
  C     -1.481665   -2.110784   -1.059736
  C     -0.643941   -2.373096    0.013136
  C     -0.922631   -0.132656    0.730424
  C     -0.348010   -1.371573    0.923354
  H     -2.069279    1.148446   -0.665853
  H     -2.584207   -0.640046   -2.146256
  H     -1.809703   -2.919993   -1.699433
  H      0.305563   -1.642178    1.744744
  H     -0.302274   -3.379115    0.189232
  Pd     1.426202    1.151026   -0.057535
  O      3.029586    1.153243   -1.400749
  O      2.639461   -0.511309   -0.094468
  O      0.367663    2.870270    0.077906
  C      0.058376    2.995851    1.266787
  O      0.505638    2.163363    2.127864
  H     -1.395516    1.058301    2.706121
  C      3.282380   -0.023073   -1.050433
  H      4.136577   -0.578259   -1.466571
  H     -0.646766    3.771307    1.592760

 Total Charge           Charge          ....    0
 Multiplicity           Mult            ....    1
 Number of Electrons    NEL             ....  106
 Basis Dimension        Dim             ....  227

ORBITAL ENERGIES
----------------

  NO   OCC          E(Eh)            E(eV)
   0   2.0000     -19.541031      -531.7385
   1   2.0000     -19.534005      -531.5473
   2   2.0000     -19.522325      -531.2295
   3   2.0000     -19.476489      -529.9822
   4   2.0000     -10.596335      -288.3409
   5   2.0000     -10.562666      -287.4248
   6   2.0000     -10.511244      -286.0255
   7   2.0000     -10.474866      -285.0356
   8   2.0000     -10.472005      -284.9578
   9   2.0000     -10.467109      -284.8245
  10   2.0000     -10.465958      -284.7932
  11   2.0000     -10.464995      -284.7670
  12   2.0000      -3.695178      -100.5509
  13   2.0000      -2.350416       -63.9581
  14   2.0000      -2.331502       -63.4434
  15   2.0000      -2.305377       -62.7325
  16   2.0000      -1.243349       -33.8332
  17   2.0000      -1.204370       -32.7726
  18   2.0000      -1.125063       -30.6145
  19   2.0000      -1.074719       -29.2446
  20   2.0000      -0.979955       -26.6659
  21   2.0000      -0.862492       -23.4696
  22   2.0000      -0.848628       -23.0923
  23   2.0000      -0.703491       -19.1430
  24   2.0000      -0.698000       -18.9936
  25   2.0000      -0.688668       -18.7396
  26   2.0000      -0.675403       -18.3787
  27   2.0000      -0.598638       -16.2898
  28   2.0000      -0.596489       -16.2313
  29   2.0000      -0.573387       -15.6027
  30   2.0000      -0.564670       -15.3654
  31   2.0000      -0.540646       -14.7117
  32   2.0000      -0.536381       -14.5957
  33   2.0000      -0.529818       -14.4171
  34   2.0000      -0.523381       -14.2419
  35   2.0000      -0.509125       -13.8540
  36   2.0000      -0.500436       -13.6176
  37   2.0000      -0.456956       -12.4344
  38   2.0000      -0.448402       -12.2016
  39   2.0000      -0.437325       -11.9002
  40   2.0000      -0.423918       -11.5354
  41   2.0000      -0.417539       -11.3618
  42   2.0000      -0.406476       -11.0608
  43   2.0000      -0.396053       -10.7771
  44   2.0000      -0.388461       -10.5706
  45   2.0000      -0.362449        -9.8627
  46   2.0000      -0.358633        -9.7589
  47   2.0000      -0.344721        -9.3803
  48   2.0000      -0.337481        -9.1833
  49   2.0000      -0.325334        -8.8528
  50   2.0000      -0.313656        -8.5350
  51   2.0000      -0.303815        -8.2672
  52   2.0000      -0.273674        -7.4471
  53   0.0000      -0.119066        -3.2399
  54   0.0000      -0.093450        -2.5429
  55   0.0000      -0.001176        -0.0320
  56   0.0000       0.005864         0.1596
  57   0.0000       0.017760         0.4833

MULLIKEN ATOMIC CHARGES
-----------------------
   0 C :   -0.233338
   1 C :   -0.218967
   2 C :   -0.220978
   3 C :   -0.215135
   4 C :   -0.112287
   5 C :   -0.235263
   6 H :    0.258267
   7 H :    0.239105
   8 H :    0.232290
   9 H :    0.267272
  10 H :    0.236928
  11 Pd:    0.544069
  12 O :   -0.450690
  13 O :   -0.449755
  14 O :   -0.453126
  15 C :    0.356927
  16 O :   -0.460366
  17 H :    0.094388
  18 C :    0.415833
  19 H :    0.210575
  20 H :    0.194252
Sum of atomic charges:    0.0000000

LOEWDIN ATOMIC CHARGES
----------------------
   0 C :   -0.117498
   1 C :   -0.126929
   2 C :   -0.122423
   3 C :   -0.122865
   4 C :   -0.022921
   5 C :   -0.111262
   6 H :    0.161113
   7 H :    0.144474
   8 H :    0.141082
   9 H :    0.164542
  10 H :    0.144588
  11 Pd:   -0.106871
  12 O :   -0.141861
  13 O :   -0.132275
  14 O :   -0.124813
  15 C :    0.116955
  16 O :   -0.255880
  17 H :    0.112677
  18 C :    0.162769
  19 H :    0.124870
  20 H :    0.112528

  Mayer bond orders larger than 0.100000
B(  0-C ,  1-C ) :   1.4073 B(  0-C ,  4-C ) :   1.3796 B(  0-C ,  6-H ) :   0.8999
B(  1-C ,  2-C ) :   1.4287 B(  1-C ,  7-H ) :   0.9090 B(  2-C ,  3-C ) :   1.4236
B(  2-C ,  8-H ) :   0.9155 B(  3-C ,  5-C ) :   1.4111 B(  3-C , 10-H ) :   0.9101
B(  4-C ,  5-C ) :   1.4090 B(  4-C , 11-Pd) :   0.1787 B(  4-C , 17-H ) :   0.7350
B(  5-C ,  9-H ) :   0.8959 B( 11-Pd, 12-O ) :   0.5383 B( 11-Pd, 13-O ) :   0.5813
B( 11-Pd, 14-O ) :   0.6058 B( 11-Pd, 16-O ) :   0.2612 B( 12-O , 13-O ) :   0.1128
B( 12-O , 18-C ) :   1.5016 B( 13-O , 18-C ) :   1.4435 B( 14-O , 15-C ) :   1.4106
B( 14-O , 16-O ) :   0.1029 B( 15-C , 16-O ) :   1.6495 B( 15-C , 20-H ) :   0.8803
B( 18-C , 19-H ) :   0.8849

Dispersion correction           -0.013581243
FINAL SINGLE POINT ENERGY      -736.913799035923
Dispersion correction            ... done

DIPOLE MOMENT
-------------
                                X             Y             Z
Electronic contribution:     53.44370      42.66540      -3.61859
Nuclear contribution   :    -53.98270     -43.70866       2.91367
                        -----------------------------------------
Total Dipole Moment    :     -0.53899      -1.04327      -0.70493
                        -----------------------------------------
Magnitude (a.u.)       :      1.36961
Magnitude (Debye)      :      3.48128

Rotational constants in cm-1:     0.028001     0.018119     0.013487
Rotational constants in MHz :   839.434774   543.198675   404.330768

                             ****ORCA TERMINATED NORMALLY****
TOTAL RUN TIME: 0 days 0 hours 4 minutes 7 seconds 635 msec
