                         Program Version 5.0.3 -  RELEASE  -
|  1> ! EnGrad PBEh-3c
|  2> %output
|  3> xyzfile=True
|  4> end
|  5> %scf
|  6> maxiter 250
|  7> end
|  8> %output
|  9> Print[P_Hirshfeld] = 1
| 10> end
| 11> % maxcore
| 12> 4000
| 13> *xyz 0 1
| 14> C   -1.58122706   0.21008246  -0.39273368
| 15> C   -2.04619659  -0.83650680  -1.20317419
| 16> C   -1.68228145  -2.15956700  -0.94985385
| 17> C   -0.77738785  -2.38131057   0.08190709
| 18> C   -0.78075289   0.01638553   0.78049899
| 19> C   -0.33643544  -1.33001507   0.89088253
| 20> H   -1.86253989   1.20480309  -0.69335507
| 21> H   -2.69719987  -0.64713438  -2.05534398
| 22> H   -2.08194006  -2.99818517  -1.55098071
| 23> H    0.37633028  -1.57075334   1.65443919
| 24> H   -0.43278151  -3.39626613   0.25360903
| 25> Pd   1.29803084   1.00646036  -0.00155437
| 26> O    3.19206226   1.32211629  -1.25333317
| 27> O    2.55783191  -0.50885870  -0.23554130
| 28> O    0.38534764   2.71012569   0.13302479
| 29> C   -0.00297634   2.91720750   1.37535046
| 30> O    0.27385747   2.12814586   2.27335689
| 31> H   -0.76054140   0.79199315   1.73063088
| 32> C    3.36113313   0.12014827  -0.99709840
| 33> H    4.24637966  -0.41825937  -1.35839494
| 34> H   -0.66301701   3.79623347   1.49856986
| 35> *
| 36>
| 37>                          ****END OF INPUT****

CARTESIAN COORDINATES (ANGSTROEM)
---------------------------------
  C     -1.581227    0.210082   -0.392734
  C     -2.046197   -0.836507   -1.203174
  C     -1.682281   -2.159567   -0.949854
  C     -0.777388   -2.381311    0.081907
  C     -0.780753    0.016386    0.780499
  C     -0.336435   -1.330015    0.890883
  H     -1.862540    1.204803   -0.693355
  H     -2.697200   -0.647134   -2.055344
  H     -2.081940   -2.998185   -1.550981
  H      0.376330   -1.570753    1.654439
  H     -0.432782   -3.396266    0.253609
  Pd     1.298031    1.006460   -0.001554
  O      3.192062    1.322116   -1.253333
  O      2.557832   -0.508859   -0.235541
  O      0.385348    2.710126    0.133025
  C     -0.002976    2.917207    1.375350
  O      0.273857    2.128146    2.273357
  H     -0.760541    0.791993    1.730631
  C      3.361133    0.120148   -0.997098
  H      4.246380   -0.418259   -1.358395
  H     -0.663017    3.796233    1.498570

 Total Charge           Charge          ....    0
 Multiplicity           Mult            ....    1
 Number of Electrons    NEL             ....  106
 Basis Dimension        Dim             ....  227

ORBITAL ENERGIES
----------------

  NO   OCC          E(Eh)            E(eV)
   0   2.0000     -19.523867      -531.2714
   1   2.0000     -19.518101      -531.1145
   2   2.0000     -19.513951      -531.0016
   3   2.0000     -19.484913      -530.2114
   4   2.0000     -10.581043      -287.9248
   5   2.0000     -10.571902      -287.6761
   6   2.0000     -10.488481      -285.4061
   7   2.0000     -10.485975      -285.3379
   8   2.0000     -10.484498      -285.2977
   9   2.0000     -10.482531      -285.2442
  10   2.0000     -10.474137      -285.0158
  11   2.0000     -10.471763      -284.9512
  12   2.0000      -3.688916      -100.3805
  13   2.0000      -2.345423       -63.8222
  14   2.0000      -2.322830       -63.2074
  15   2.0000      -2.302389       -62.6512
  16   2.0000      -1.218696       -33.1624
  17   2.0000      -1.191321       -32.4175
  18   2.0000      -1.109277       -30.1849
  19   2.0000      -1.090783       -29.6817
  20   2.0000      -0.975867       -26.5547
  21   2.0000      -0.862283       -23.4639
  22   2.0000      -0.855854       -23.2890
  23   2.0000      -0.702711       -19.1218
  24   2.0000      -0.700235       -19.0544
  25   2.0000      -0.691160       -18.8074
  26   2.0000      -0.676814       -18.4170
  27   2.0000      -0.610853       -16.6222
  28   2.0000      -0.584227       -15.8976
  29   2.0000      -0.566054       -15.4031
  30   2.0000      -0.555139       -15.1061
  31   2.0000      -0.548500       -14.9254
  32   2.0000      -0.534801       -14.5527
  33   2.0000      -0.530196       -14.4274
  34   2.0000      -0.521704       -14.1963
  35   2.0000      -0.518021       -14.0961
  36   2.0000      -0.494760       -13.4631
  37   2.0000      -0.477961       -13.0060
  38   2.0000      -0.460430       -12.5289
  39   2.0000      -0.438250       -11.9254
  40   2.0000      -0.427674       -11.6376
  41   2.0000      -0.411570       -11.1994
  42   2.0000      -0.406174       -11.0526
  43   2.0000      -0.393078       -10.6962
  44   2.0000      -0.383460       -10.4345
  45   2.0000      -0.373326       -10.1587
  46   2.0000      -0.367196        -9.9919
  47   2.0000      -0.354696        -9.6518
  48   2.0000      -0.345698        -9.4069
  49   2.0000      -0.336256        -9.1500
  50   2.0000      -0.323645        -8.8068
  51   2.0000      -0.310642        -8.4530
  52   2.0000      -0.307046        -8.3552
  53   0.0000      -0.112213        -3.0535
  54   0.0000      -0.015704        -0.4273
  55   0.0000      -0.004727        -0.1286
  56   0.0000       0.030620         0.8332
  57   0.0000       0.038759         1.0547

MULLIKEN ATOMIC CHARGES
-----------------------
   0 C :   -0.157791
   1 C :   -0.223782
   2 C :   -0.202516
   3 C :   -0.218279
   4 C :   -0.509256
   5 C :   -0.155511
   6 H :    0.263093
   7 H :    0.236541
   8 H :    0.241744
   9 H :    0.266526
  10 H :    0.236612
  11 Pd:    0.609497
  12 O :   -0.428998
  13 O :   -0.496524
  14 O :   -0.518187
  15 C :    0.350734
  16 O :   -0.445435
  17 H :    0.365422
  18 C :    0.395329
  19 H :    0.198181
  20 H :    0.192599
Sum of atomic charges:    0.0000000

LOEWDIN ATOMIC CHARGES
----------------------
   0 C :   -0.070226
   1 C :   -0.139045
   2 C :   -0.090123
   3 C :   -0.134725
   4 C :   -0.149776
   5 C :   -0.063773
   6 H :    0.158824
   7 H :    0.145405
   8 H :    0.146592
   9 H :    0.159870
  10 H :    0.145972
  11 Pd:   -0.110625
  12 O :   -0.166928
  13 O :   -0.161304
  14 O :   -0.174782
  15 C :    0.132721
  16 O :   -0.253036
  17 H :    0.243824
  18 C :    0.151860
  19 H :    0.116220
  20 H :    0.113055

  Mayer bond orders larger than 0.100000
B(  0-C ,  1-C ) :   1.4553 B(  0-C ,  4-C ) :   1.2528 B(  0-C ,  6-H ) :   0.8987
B(  1-C ,  2-C ) :   1.3958 B(  1-C ,  7-H ) :   0.9144 B(  2-C ,  3-C ) :   1.4067
B(  2-C ,  8-H ) :   0.9113 B(  3-C ,  5-C ) :   1.4499 B(  3-C , 10-H ) :   0.9136
B(  4-C ,  5-C ) :   1.2955 B(  4-C , 11-Pd) :   0.2547 B(  4-C , 17-H ) :   0.7639
B(  5-C ,  9-H ) :   0.8991 B( 11-Pd, 12-O ) :   0.4270 B( 11-Pd, 13-O ) :   0.5920
B( 11-Pd, 14-O ) :   0.6528 B( 11-Pd, 16-O ) :   0.1131 B( 12-O , 13-O ) :   0.1138
B( 12-O , 18-C ) :   1.6201 B( 13-O , 18-C ) :   1.3768 B( 14-O , 15-C ) :   1.2794
B( 14-O , 16-O ) :   0.1020 B( 15-C , 16-O ) :   1.7820 B( 15-C , 20-H ) :   0.8747
B( 18-C , 19-H ) :   0.8843

Dispersion correction           -0.013517026
FINAL SINGLE POINT ENERGY      -737.100122388318
Dispersion correction            ... done

DIPOLE MOMENT
-------------
                                X             Y             Z
Electronic contribution:     48.00082      35.85693      -2.08123
Nuclear contribution   :    -48.91187     -37.03213       1.56067
                        -----------------------------------------
Total Dipole Moment    :     -0.91105      -1.17520      -0.52056
                        -----------------------------------------
Magnitude (a.u.)       :      1.57546
Magnitude (Debye)      :      4.00450

Rotational constants in cm-1:     0.028951     0.018445     0.013591
Rotational constants in MHz :   867.932420   552.972561   407.449739

                             ****ORCA TERMINATED NORMALLY****
TOTAL RUN TIME: 0 days 0 hours 3 minutes 54 seconds 319 msec
