                         Program Version 5.0.3 -  RELEASE  -
|  1> ! EnGrad PBEh-3c
|  2> %output
|  3> xyzfile=True
|  4> end
|  5> %scf
|  6> maxiter 250
|  7> end
|  8> %output
|  9> Print[P_Hirshfeld] = 1
| 10> end
| 11> % maxcore
| 12> 4000
| 13> *xyz 0 1
| 14> C   -1.57326683   0.21264537  -0.39799701
| 15> C   -2.05342253  -0.83577906  -1.18909832
| 16> C   -1.69723234  -2.15553028  -0.93580781
| 17> C   -0.78938601  -2.37903697   0.08992337
| 18> C   -0.75223295   0.01721375   0.75579187
| 19> C   -0.33127706  -1.33302990   0.89164436
| 20> H   -1.85041479   1.21210360  -0.68949241
| 21> H   -2.69941096  -0.64160945  -2.04062243
| 22> H   -2.08524371  -2.98549417  -1.53460505
| 23> H    0.38532122  -1.56554859   1.65620549
| 24> H   -0.44070765  -3.38872231   0.26351429
| 25> Pd   1.28776434   0.98385491  -0.02059535
| 26> O    3.18531486   1.33220577  -1.22234719
| 27> O    2.55026818  -0.52537155  -0.25411437
| 28> O    0.37204718   2.69635553   0.16448681
| 29> C   -0.02234779   2.88444499   1.40592417
| 30> O    0.18373971   2.13319781   2.28364351
| 31> H   -0.63899361   0.78583039   1.59487070
| 32> C    3.36249713   0.12554571  -0.98924242
| 33> H    4.24599876  -0.40823936  -1.34774761
| 34> H   -0.65405077   3.80737479   1.49371085
| 35> *
| 36>
| 37>                          ****END OF INPUT****

CARTESIAN COORDINATES (ANGSTROEM)
---------------------------------
  C     -1.573267    0.212645   -0.397997
  C     -2.053423   -0.835779   -1.189098
  C     -1.697232   -2.155530   -0.935808
  C     -0.789386   -2.379037    0.089923
  C     -0.752233    0.017214    0.755792
  C     -0.331277   -1.333030    0.891644
  H     -1.850415    1.212104   -0.689492
  H     -2.699411   -0.641609   -2.040622
  H     -2.085244   -2.985494   -1.534605
  H      0.385321   -1.565549    1.656205
  H     -0.440708   -3.388722    0.263514
  Pd     1.287764    0.983855   -0.020595
  O      3.185315    1.332206   -1.222347
  O      2.550268   -0.525372   -0.254114
  O      0.372047    2.696356    0.164487
  C     -0.022348    2.884445    1.405924
  O      0.183740    2.133198    2.283644
  H     -0.638994    0.785830    1.594871
  C      3.362497    0.125546   -0.989242
  H      4.245999   -0.408239   -1.347748
  H     -0.654051    3.807375    1.493711

 Total Charge           Charge          ....    0
 Multiplicity           Mult            ....    1
 Number of Electrons    NEL             ....  106
 Basis Dimension        Dim             ....  227

ORBITAL ENERGIES
----------------

  NO   OCC          E(Eh)            E(eV)
   0   2.0000     -19.525187      -531.3074
   1   2.0000     -19.516853      -531.0806
   2   2.0000     -19.510176      -530.8989
   3   2.0000     -19.485072      -530.2158
   4   2.0000     -10.582934      -287.9763
   5   2.0000     -10.563918      -287.4588
   6   2.0000     -10.486400      -285.3494
   7   2.0000     -10.484605      -285.3006
   8   2.0000     -10.483765      -285.2778
   9   2.0000     -10.481747      -285.2228
  10   2.0000     -10.473946      -285.0106
  11   2.0000     -10.472006      -284.9578
  12   2.0000      -3.688947      -100.3813
  13   2.0000      -2.344526       -63.7978
  14   2.0000      -2.324137       -63.2430
  15   2.0000      -2.302146       -62.6446
  16   2.0000      -1.220760       -33.2186
  17   2.0000      -1.210027       -32.9265
  18   2.0000      -1.111162       -30.2363
  19   2.0000      -1.098871       -29.9018
  20   2.0000      -0.979320       -26.6487
  21   2.0000      -0.866955       -23.5911
  22   2.0000      -0.858358       -23.3571
  23   2.0000      -0.709346       -19.3023
  24   2.0000      -0.702711       -19.1217
  25   2.0000      -0.692423       -18.8418
  26   2.0000      -0.669095       -18.2070
  27   2.0000      -0.617191       -16.7946
  28   2.0000      -0.586812       -15.9680
  29   2.0000      -0.570421       -15.5219
  30   2.0000      -0.560472       -15.2512
  31   2.0000      -0.552006       -15.0208
  32   2.0000      -0.538318       -14.6484
  33   2.0000      -0.533275       -14.5112
  34   2.0000      -0.524128       -14.2622
  35   2.0000      -0.522476       -14.2173
  36   2.0000      -0.497046       -13.5253
  37   2.0000      -0.484451       -13.1826
  38   2.0000      -0.461786       -12.5658
  39   2.0000      -0.439093       -11.9483
  40   2.0000      -0.430823       -11.7233
  41   2.0000      -0.413428       -11.2499
  42   2.0000      -0.412007       -11.2113
  43   2.0000      -0.395781       -10.7697
  44   2.0000      -0.386397       -10.5144
  45   2.0000      -0.371971       -10.1219
  46   2.0000      -0.366842        -9.9823
  47   2.0000      -0.357833        -9.7371
  48   2.0000      -0.345072        -9.3899
  49   2.0000      -0.336714        -9.1624
  50   2.0000      -0.323731        -8.8092
  51   2.0000      -0.312858        -8.5133
  52   2.0000      -0.311787        -8.4841
  53   0.0000      -0.111948        -3.0463
  54   0.0000      -0.013233        -0.3601
  55   0.0000      -0.005247        -0.1428
  56   0.0000       0.029929         0.8144
  57   0.0000       0.052702         1.4341

MULLIKEN ATOMIC CHARGES
-----------------------
   0 C :   -0.160074
   1 C :   -0.224183
   2 C :   -0.197942
   3 C :   -0.220412
   4 C :   -0.532565
   5 C :   -0.156873
   6 H :    0.264400
   7 H :    0.236075
   8 H :    0.242841
   9 H :    0.264620
  10 H :    0.236290
  11 Pd:    0.588815
  12 O :   -0.428775
  13 O :   -0.497284
  14 O :   -0.523650
  15 C :    0.334331
  16 O :   -0.402252
  17 H :    0.403650
  18 C :    0.398331
  19 H :    0.200054
  20 H :    0.174603
Sum of atomic charges:    0.0000000

LOEWDIN ATOMIC CHARGES
----------------------
   0 C :   -0.064239
   1 C :   -0.137512
   2 C :   -0.087585
   3 C :   -0.133434
   4 C :   -0.148910
   5 C :   -0.059006
   6 H :    0.161031
   7 H :    0.145257
   8 H :    0.147061
   9 H :    0.160595
  10 H :    0.145670
  11 Pd:   -0.119617
  12 O :   -0.163181
  13 O :   -0.161623
  14 O :   -0.185195
  15 C :    0.097910
  16 O :   -0.208784
  17 H :    0.236556
  18 C :    0.155113
  19 H :    0.117203
  20 H :    0.102692

  Mayer bond orders larger than 0.100000
B(  0-C ,  1-C ) :   1.4507 B(  0-C ,  4-C ) :   1.2635 B(  0-C ,  6-H ) :   0.8988
B(  1-C ,  2-C ) :   1.3975 B(  1-C ,  7-H ) :   0.9151 B(  2-C ,  3-C ) :   1.4048
B(  2-C ,  8-H ) :   0.9114 B(  3-C ,  5-C ) :   1.4487 B(  3-C , 10-H ) :   0.9142
B(  4-C ,  5-C ) :   1.3015 B(  4-C , 11-Pd) :   0.2717 B(  4-C , 17-H ) :   0.7259
B(  5-C ,  9-H ) :   0.9010 B( 11-Pd, 12-O ) :   0.4351 B( 11-Pd, 13-O ) :   0.5886
B( 11-Pd, 14-O ) :   0.6624 B( 12-O , 13-O ) :   0.1142 B( 12-O , 18-C ) :   1.6119
B( 13-O , 18-C ) :   1.3793 B( 14-O , 15-C ) :   1.2609 B( 14-O , 16-O ) :   0.1002
B( 15-C , 16-O ) :   1.8463 B( 15-C , 20-H ) :   0.8742 B( 18-C , 19-H ) :   0.8846

Dispersion correction           -0.013452513
FINAL SINGLE POINT ENERGY      -737.108860599060
Dispersion correction            ... done

DIPOLE MOMENT
-------------
                                X             Y             Z
Electronic contribution:     47.94131      34.78004      -3.15635
Nuclear contribution   :    -48.73774     -36.08826       2.59832
                        -----------------------------------------
Total Dipole Moment    :     -0.79644      -1.30822      -0.55803
                        -----------------------------------------
Magnitude (a.u.)       :      1.63007
Magnitude (Debye)      :      4.14332

Rotational constants in cm-1:     0.028913     0.018635     0.013628
Rotational constants in MHz :   866.795747   558.675029   408.561080

                             ****ORCA TERMINATED NORMALLY****
TOTAL RUN TIME: 0 days 0 hours 4 minutes 3 seconds 622 msec
