                         Program Version 5.0.3 -  RELEASE  -
|  1> ! EnGrad PBEh-3c
|  2> %output
|  3> xyzfile=True
|  4> end
|  5> %scf
|  6> maxiter 250
|  7> end
|  8> %output
|  9> Print[P_Hirshfeld] = 1
| 10> end
| 11> % maxcore
| 12> 4000
| 13> *xyz 0 1
| 14> C   -1.56763406   0.21733244  -0.40101312
| 15> C   -2.05968144  -0.83326324  -1.17681472
| 16> C   -1.70993739  -2.14807131  -0.91783764
| 17> C   -0.79925536  -2.37575004   0.09962898
| 18> C   -0.73053943   0.00598933   0.72217222
| 19> C   -0.32703454  -1.33398553   0.89617505
| 20> H   -1.83903980   1.22150767  -0.68467125
| 21> H   -2.70269888  -0.63354793  -2.02470418
| 22> H   -2.09124289  -2.97173545  -1.51597726
| 23> H    0.39457638  -1.56168261   1.66125858
| 24> H   -0.44809069  -3.38233813   0.27489195
| 25> Pd   1.28089806   0.96889632  -0.03878509
| 26> O    3.17531837   1.34077968  -1.18982159
| 27> O    2.54055685  -0.54301034  -0.27766808
| 28> O    0.35656127   2.68213460   0.19007629
| 29> C   -0.04228268   2.88355484   1.39913253
| 30> O    0.10697349   2.12471313   2.33305231
| 31> H   -0.52930357   0.75663600   1.45173762
| 32> C    3.36831055   0.13169451  -0.97643594
| 33> H    4.24917119  -0.39704327  -1.33977754
| 34> H   -0.64125211   3.81437700   1.48941552
| 35> *
| 36>
| 37>                          ****END OF INPUT****

CARTESIAN COORDINATES (ANGSTROEM)
---------------------------------
  C     -1.567634    0.217332   -0.401013
  C     -2.059681   -0.833263   -1.176815
  C     -1.709937   -2.148071   -0.917838
  C     -0.799255   -2.375750    0.099629
  C     -0.730539    0.005989    0.722172
  C     -0.327035   -1.333986    0.896175
  H     -1.839040    1.221508   -0.684671
  H     -2.702699   -0.633548   -2.024704
  H     -2.091243   -2.971735   -1.515977
  H      0.394576   -1.561683    1.661259
  H     -0.448091   -3.382338    0.274892
  Pd     1.280898    0.968896   -0.038785
  O      3.175318    1.340780   -1.189822
  O      2.540557   -0.543010   -0.277668
  O      0.356561    2.682135    0.190076
  C     -0.042283    2.883555    1.399133
  O      0.106973    2.124713    2.333052
  H     -0.529304    0.756636    1.451738
  C      3.368311    0.131695   -0.976436
  H      4.249171   -0.397043   -1.339778
  H     -0.641252    3.814377    1.489416

 Total Charge           Charge          ....    0
 Multiplicity           Mult            ....    1
 Number of Electrons    NEL             ....  106
 Basis Dimension        Dim             ....  227

ORBITAL ENERGIES
----------------

  NO   OCC          E(Eh)            E(eV)
   0   2.0000     -19.530295      -531.4463
   1   2.0000     -19.523388      -531.2584
   2   2.0000     -19.515726      -531.0499
   3   2.0000     -19.474351      -529.9240
   4   2.0000     -10.588181      -288.1190
   5   2.0000     -10.561242      -287.3860
   6   2.0000     -10.485533      -285.3259
   7   2.0000     -10.483537      -285.2715
   8   2.0000     -10.483049      -285.2583
   9   2.0000     -10.473358      -284.9946
  10   2.0000     -10.473256      -284.9918
  11   2.0000     -10.471729      -284.9502
  12   2.0000      -3.693472      -100.5045
  13   2.0000      -2.348624       -63.9093
  14   2.0000      -2.329726       -63.3951
  15   2.0000      -2.305948       -62.7480
  16   2.0000      -1.225934       -33.3594
  17   2.0000      -1.194213       -32.4962
  18   2.0000      -1.115544       -30.3555
  19   2.0000      -1.097667       -29.8690
  20   2.0000      -0.983444       -26.7609
  21   2.0000      -0.872132       -23.7319
  22   2.0000      -0.860756       -23.4224
  23   2.0000      -0.715049       -19.4575
  24   2.0000      -0.705639       -19.2014
  25   2.0000      -0.698000       -18.9935
  26   2.0000      -0.670828       -18.2542
  27   2.0000      -0.622493       -16.9389
  28   2.0000      -0.591002       -16.0820
  29   2.0000      -0.573119       -15.5953
  30   2.0000      -0.557005       -15.1569
  31   2.0000      -0.555283       -15.1100
  32   2.0000      -0.540433       -14.7059
  33   2.0000      -0.530548       -14.4370
  34   2.0000      -0.527472       -14.3532
  35   2.0000      -0.521331       -14.1861
  36   2.0000      -0.500227       -13.6119
  37   2.0000      -0.486093       -13.2273
  38   2.0000      -0.463492       -12.6122
  39   2.0000      -0.440834       -11.9957
  40   2.0000      -0.433507       -11.7963
  41   2.0000      -0.417137       -11.3509
  42   2.0000      -0.413893       -11.2626
  43   2.0000      -0.400677       -10.9030
  44   2.0000      -0.390315       -10.6210
  45   2.0000      -0.375898       -10.2287
  46   2.0000      -0.369089       -10.0434
  47   2.0000      -0.358242        -9.7483
  48   2.0000      -0.342688        -9.3250
  49   2.0000      -0.338096        -9.2000
  50   2.0000      -0.324727        -8.8363
  51   2.0000      -0.314887        -8.5685
  52   2.0000      -0.314016        -8.5448
  53   0.0000      -0.114195        -3.1074
  54   0.0000      -0.010710        -0.2914
  55   0.0000      -0.006130        -0.1668
  56   0.0000       0.025057         0.6818
  57   0.0000       0.052362         1.4248

MULLIKEN ATOMIC CHARGES
-----------------------
   0 C :   -0.181137
   1 C :   -0.222471
   2 C :   -0.194952
   3 C :   -0.220887
   4 C :   -0.511929
   5 C :   -0.171124
   6 H :    0.260790
   7 H :    0.235671
   8 H :    0.242103
   9 H :    0.261211
  10 H :    0.236044
  11 Pd:    0.577410
  12 O :   -0.428483
  13 O :   -0.494133
  14 O :   -0.506537
  15 C :    0.336047
  16 O :   -0.436142
  17 H :    0.434091
  18 C :    0.402537
  19 H :    0.204460
  20 H :    0.177431
Sum of atomic charges:   -0.0000000

LOEWDIN ATOMIC CHARGES
----------------------
   0 C :   -0.062652
   1 C :   -0.134677
   2 C :   -0.088122
   3 C :   -0.130602
   4 C :   -0.143302
   5 C :   -0.056950
   6 H :    0.162229
   7 H :    0.144742
   8 H :    0.147011
   9 H :    0.162108
  10 H :    0.145168
  11 Pd:   -0.116809
  12 O :   -0.157229
  13 O :   -0.159153
  14 O :   -0.167211
  15 C :    0.103187
  16 O :   -0.257690
  17 H :    0.225612
  18 C :    0.160693
  19 H :    0.119654
  20 H :    0.103992

  Mayer bond orders larger than 0.100000
B(  0-C ,  1-C ) :   1.4405 B(  0-C ,  4-C ) :   1.2870 B(  0-C ,  6-H ) :   0.9023
B(  1-C ,  2-C ) :   1.4008 B(  1-C ,  7-H ) :   0.9158 B(  2-C ,  3-C ) :   1.4045
B(  2-C ,  8-H ) :   0.9124 B(  3-C ,  5-C ) :   1.4391 B(  3-C , 10-H ) :   0.9149
B(  4-C ,  5-C ) :   1.3228 B(  4-C , 11-Pd) :   0.2863 B(  4-C , 17-H ) :   0.6716
B(  5-C ,  9-H ) :   0.9045 B( 11-Pd, 12-O ) :   0.4475 B( 11-Pd, 13-O ) :   0.5933
B( 11-Pd, 14-O ) :   0.6394 B( 12-O , 13-O ) :   0.1144 B( 12-O , 18-C ) :   1.6007
B( 13-O , 18-C ) :   1.3807 B( 14-O , 15-C ) :   1.3039 B( 14-O , 16-O ) :   0.1059
B( 15-C , 16-O ) :   1.8030 B( 15-C , 20-H ) :   0.8762 B( 16-O , 17-H ) :   0.1268
B( 18-C , 19-H ) :   0.8843

Dispersion correction           -0.013423742
FINAL SINGLE POINT ENERGY      -737.117617311204
Dispersion correction            ... done

DIPOLE MOMENT
-------------
                                X             Y             Z
Electronic contribution:     48.07535      34.12158      -4.43213
Nuclear contribution   :    -48.70366     -35.48171       3.62007
                        -----------------------------------------
Total Dipole Moment    :     -0.62832      -1.36013      -0.81205
                        -----------------------------------------
Magnitude (a.u.)       :      1.70416
Magnitude (Debye)      :      4.33162

Rotational constants in cm-1:     0.028773     0.018758     0.013645
Rotational constants in MHz :   862.593628   562.364157   409.077948

                             ****ORCA TERMINATED NORMALLY****
TOTAL RUN TIME: 0 days 0 hours 3 minutes 50 seconds 217 msec
