                         Program Version 5.0.3 -  RELEASE  -
|  1> ! EnGrad PBEh-3c
|  2> %output
|  3> xyzfile=True
|  4> end
|  5> %scf
|  6> maxiter 250
|  7> end
|  8> %output
|  9> Print[P_Hirshfeld] = 1
| 10> end
| 11> % maxcore
| 12> 4000
| 13> *xyz 0 1
| 14> C   -1.56209285   0.22466496  -0.40952546
| 15> C   -2.07084890  -0.82392201  -1.16041376
| 16> C   -1.72753799  -2.13452255  -0.88710218
| 17> C   -0.81064655  -2.37157395   0.12037990
| 18> C   -0.70626122  -0.04351562   0.63995220
| 19> C   -0.31934845  -1.33956397   0.90214877
| 20> H   -1.82108947   1.23647237  -0.67902588
| 21> H   -2.71233245  -0.62023597  -2.00045379
| 22> H   -2.10898928  -2.95348974  -1.48470375
| 23> H    0.40860906  -1.55674193   1.66854708
| 24> H   -0.46130310  -3.37536040   0.29355121
| 25> Pd   1.27739339   0.95520649  -0.06701387
| 26> O    3.16141083   1.35329630  -1.13649351
| 27> O    2.52702265  -0.56697661  -0.32034397
| 28> O    0.33801099   2.65776103   0.21665301
| 29> C   -0.07408442   2.87510404   1.40843133
| 30> O    0.01081064   2.13384081   2.39300645
| 31> H   -0.38142269   0.71912305   1.26943803
| 32> C    3.37621516   0.14046183  -0.95262690
| 33> H    4.26251121  -0.37685400  -1.32946115
| 34> H   -0.62270945   3.82591235   1.48211928
| 35> *
| 36>
| 37>                          ****END OF INPUT****

CARTESIAN COORDINATES (ANGSTROEM)
---------------------------------
  C     -1.562093    0.224665   -0.409525
  C     -2.070849   -0.823922   -1.160414
  C     -1.727538   -2.134523   -0.887102
  C     -0.810647   -2.371574    0.120380
  C     -0.706261   -0.043516    0.639952
  C     -0.319348   -1.339564    0.902149
  H     -1.821089    1.236472   -0.679026
  H     -2.712332   -0.620236   -2.000454
  H     -2.108989   -2.953490   -1.484704
  H      0.408609   -1.556742    1.668547
  H     -0.461303   -3.375360    0.293551
  Pd     1.277393    0.955206   -0.067014
  O      3.161411    1.353296   -1.136494
  O      2.527023   -0.566977   -0.320344
  O      0.338011    2.657761    0.216653
  C     -0.074084    2.875104    1.408431
  O      0.010811    2.133841    2.393006
  H     -0.381423    0.719123    1.269438
  C      3.376215    0.140462   -0.952627
  H      4.262511   -0.376854   -1.329461
  H     -0.622709    3.825912    1.482119

 Total Charge           Charge          ....    0
 Multiplicity           Mult            ....    1
 Number of Electrons    NEL             ....  106
 Basis Dimension        Dim             ....  227

ORBITAL ENERGIES
----------------

  NO   OCC          E(Eh)            E(eV)
   0   2.0000     -19.536077      -531.6037
   1   2.0000     -19.531401      -531.4764
   2   2.0000     -19.518555      -531.1269
   3   2.0000     -19.468089      -529.7536
   4   2.0000     -10.594691      -288.2962
   5   2.0000     -10.558446      -287.3099
   6   2.0000     -10.480373      -285.1854
   7   2.0000     -10.480205      -285.1809
   8   2.0000     -10.478037      -285.1219
   9   2.0000     -10.470917      -284.9281
  10   2.0000     -10.469664      -284.8940
  11   2.0000     -10.466355      -284.8040
  12   2.0000      -3.698789      -100.6492
  13   2.0000      -2.353215       -64.0342
  14   2.0000      -2.336760       -63.5865
  15   2.0000      -2.310329       -62.8672
  16   2.0000      -1.233884       -33.5757
  17   2.0000      -1.186252       -32.2796
  18   2.0000      -1.121785       -30.5253
  19   2.0000      -1.090709       -29.6797
  20   2.0000      -0.991597       -26.9827
  21   2.0000      -0.876572       -23.8527
  22   2.0000      -0.866495       -23.5785
  23   2.0000      -0.718147       -19.5418
  24   2.0000      -0.710375       -19.3303
  25   2.0000      -0.703125       -19.1330
  26   2.0000      -0.671756       -18.2794
  27   2.0000      -0.628857       -17.1121
  28   2.0000      -0.596470       -16.2308
  29   2.0000      -0.574416       -15.6307
  30   2.0000      -0.562056       -15.2943
  31   2.0000      -0.551097       -14.9961
  32   2.0000      -0.544888       -14.8271
  33   2.0000      -0.535296       -14.5661
  34   2.0000      -0.525565       -14.3013
  35   2.0000      -0.519476       -14.1357
  36   2.0000      -0.507746       -13.8165
  37   2.0000      -0.486395       -13.2355
  38   2.0000      -0.467138       -12.7115
  39   2.0000      -0.442950       -12.0533
  40   2.0000      -0.431488       -11.7414
  41   2.0000      -0.424481       -11.5507
  42   2.0000      -0.416471       -11.3327
  43   2.0000      -0.406161       -11.0522
  44   2.0000      -0.396134       -10.7794
  45   2.0000      -0.380755       -10.3609
  46   2.0000      -0.370842       -10.0911
  47   2.0000      -0.359114        -9.7720
  48   2.0000      -0.343174        -9.3382
  49   2.0000      -0.337391        -9.1809
  50   2.0000      -0.321681        -8.7534
  51   2.0000      -0.317381        -8.6364
  52   2.0000      -0.316440        -8.6108
  53   0.0000      -0.113794        -3.0965
  54   0.0000      -0.007484        -0.2036
  55   0.0000      -0.003570        -0.0972
  56   0.0000       0.019375         0.5272
  57   0.0000       0.051669         1.4060

MULLIKEN ATOMIC CHARGES
-----------------------
   0 C :   -0.189740
   1 C :   -0.229294
   2 C :   -0.190504
   3 C :   -0.229611
   4 C :   -0.458142
   5 C :   -0.168898
   6 H :    0.258777
   7 H :    0.235598
   8 H :    0.239192
   9 H :    0.257589
  10 H :    0.235648
  11 Pd:    0.554979
  12 O :   -0.429796
  13 O :   -0.487258
  14 O :   -0.502311
  15 C :    0.334455
  16 O :   -0.447280
  17 H :    0.420327
  18 C :    0.408298
  19 H :    0.208678
  20 H :    0.179292
Sum of atomic charges:   -0.0000000

LOEWDIN ATOMIC CHARGES
----------------------
   0 C :   -0.068707
   1 C :   -0.127705
   2 C :   -0.093266
   3 C :   -0.123617
   4 C :   -0.134407
   5 C :   -0.063047
   6 H :    0.165487
   7 H :    0.143299
   8 H :    0.146334
   9 H :    0.164727
  10 H :    0.143640
  11 Pd:   -0.124226
  12 O :   -0.149056
  13 O :   -0.153832
  14 O :   -0.163257
  15 C :    0.103592
  16 O :   -0.280815
  17 H :    0.221995
  18 C :    0.165897
  19 H :    0.122610
  20 H :    0.104354

  Mayer bond orders larger than 0.100000
B(  0-C ,  1-C ) :   1.4246 B(  0-C ,  4-C ) :   1.3246 B(  0-C ,  6-H ) :   0.9057
B(  1-C ,  2-C ) :   1.4111 B(  1-C ,  7-H ) :   0.9156 B(  2-C ,  3-C ) :   1.4077
B(  2-C ,  8-H ) :   0.9145 B(  3-C ,  5-C ) :   1.4293 B(  3-C , 10-H ) :   0.9145
B(  4-C ,  5-C ) :   1.3539 B(  4-C , 11-Pd) :   0.3031 B(  4-C , 17-H ) :   0.6498
B(  5-C ,  9-H ) :   0.9083 B( 11-Pd, 12-O ) :   0.4741 B( 11-Pd, 13-O ) :   0.5898
B( 11-Pd, 14-O ) :   0.6325 B( 12-O , 13-O ) :   0.1146 B( 12-O , 18-C ) :   1.5736
B( 13-O , 18-C ) :   1.3930 B( 14-O , 15-C ) :   1.3142 B( 14-O , 16-O ) :   0.1120
B( 15-C , 16-O ) :   1.8065 B( 15-C , 20-H ) :   0.8766 B( 16-O , 17-H ) :   0.1316
B( 18-C , 19-H ) :   0.8840

Dispersion correction           -0.013438761
FINAL SINGLE POINT ENERGY      -737.115081436898
Dispersion correction            ... done

DIPOLE MOMENT
-------------
                                X             Y             Z
Electronic contribution:     48.50823      33.58062      -6.13298
Nuclear contribution   :    -48.91133     -34.96827       5.12148
                        -----------------------------------------
Total Dipole Moment    :     -0.40310      -1.38765      -1.01150
                        -----------------------------------------
Magnitude (a.u.)       :      1.76386
Magnitude (Debye)      :      4.48338

Rotational constants in cm-1:     0.028599     0.018878     0.013641
Rotational constants in MHz :   857.364233   565.957742   408.940483

                             ****ORCA TERMINATED NORMALLY****
TOTAL RUN TIME: 0 days 0 hours 4 minutes 3 seconds 563 msec
