                         Program Version 5.0.3 -  RELEASE  -
|  1> ! EnGrad PBEh-3c
|  2> %output
|  3> xyzfile=True
|  4> end
|  5> %scf
|  6> maxiter 250
|  7> end
|  8> %output
|  9> Print[P_Hirshfeld] = 1
| 10> end
| 11> % maxcore
| 12> 4000
| 13> *xyz 0 1
| 14> C   -1.64347996   0.20143170  -0.44022772
| 15> C   -1.93563861  -0.85914462  -1.29434166
| 16> C   -1.51353090  -2.12860971  -1.05903398
| 17> C   -0.68287799  -2.38020739   0.00141691
| 18> C   -0.89503257  -0.06493701   0.77494165
| 19> C   -0.33092481  -1.38799437   0.92361552
| 20> H   -2.02813231   1.15987497  -0.66546918
| 21> H   -2.61115935  -0.63803326  -2.14263125
| 22> H   -1.85592571  -2.93101003  -1.67121049
| 23> H    0.31445961  -1.62474145   1.72861445
| 24> H   -0.31879143  -3.39531875   0.19971944
| 25> Pd   1.39380005   1.13443218   0.02704872
| 26> O    3.05482430   1.17499913  -1.41202413
| 27> O    2.58198393  -0.50675107  -0.11254633
| 28> O    0.39749477   2.86884633  -0.06584240
| 29> C    0.09754150   2.86388042   1.46978235
| 30> O    0.44722776   2.24561840   2.05912750
| 31> H   -1.33357264   1.01906301   2.60039819
| 32> C    3.36111856   0.02552059  -1.03211307
| 33> H    4.15273143  -0.55653368  -1.46797064
| 34> H   -0.65258655   3.77799007   1.57349932
| 35> *
| 36>
| 37>                          ****END OF INPUT****

CARTESIAN COORDINATES (ANGSTROEM)
---------------------------------
  C     -1.643480    0.201432   -0.440228
  C     -1.935639   -0.859145   -1.294342
  C     -1.513531   -2.128610   -1.059034
  C     -0.682878   -2.380207    0.001417
  C     -0.895033   -0.064937    0.774942
  C     -0.330925   -1.387994    0.923616
  H     -2.028132    1.159875   -0.665469
  H     -2.611159   -0.638033   -2.142631
  H     -1.855926   -2.931010   -1.671210
  H      0.314460   -1.624741    1.728614
  H     -0.318791   -3.395319    0.199719
  Pd     1.393800    1.134432    0.027049
  O      3.054824    1.174999   -1.412024
  O      2.581984   -0.506751   -0.112546
  O      0.397495    2.868846   -0.065842
  C      0.097542    2.863880    1.469782
  O      0.447228    2.245618    2.059128
  H     -1.333573    1.019063    2.600398
  C      3.361119    0.025521   -1.032113
  H      4.152731   -0.556534   -1.467971
  H     -0.652587    3.777990    1.573499

 Total Charge           Charge          ....    0
 Multiplicity           Mult            ....    1
 Number of Electrons    NEL             ....  106
 Basis Dimension        Dim             ....  227

ORBITAL ENERGIES
----------------

  NO   OCC          E(Eh)            E(eV)
   0   2.0000     -19.553379      -532.0745
   1   2.0000     -19.511385      -530.9318
   2   2.0000     -19.505674      -530.7764
   3   2.0000     -19.461551      -529.5757
   4   2.0000     -10.577378      -287.8251
   5   2.0000     -10.571698      -287.6705
   6   2.0000     -10.536246      -286.7058
   7   2.0000     -10.486396      -285.3493
   8   2.0000     -10.485989      -285.3383
   9   2.0000     -10.473326      -284.9937
  10   2.0000     -10.472550      -284.9726
  11   2.0000     -10.469356      -284.8857
  12   2.0000      -3.666697       -99.7759
  13   2.0000      -2.320607       -63.1469
  14   2.0000      -2.301162       -62.6178
  15   2.0000      -2.283202       -62.1291
  16   2.0000      -1.398191       -38.0467
  17   2.0000      -1.198749       -32.6196
  18   2.0000      -1.081075       -29.4176
  19   2.0000      -1.001370       -27.2487
  20   2.0000      -0.977941       -26.6111
  21   2.0000      -0.861755       -23.4495
  22   2.0000      -0.853231       -23.2176
  23   2.0000      -0.701076       -19.0773
  24   2.0000      -0.692130       -18.8338
  25   2.0000      -0.689434       -18.7605
  26   2.0000      -0.674744       -18.3607
  27   2.0000      -0.632071       -17.1995
  28   2.0000      -0.626554       -17.0494
  29   2.0000      -0.606538       -16.5047
  30   2.0000      -0.576884       -15.6978
  31   2.0000      -0.563899       -15.3445
  32   2.0000      -0.535507       -14.5719
  33   2.0000      -0.533501       -14.5173
  34   2.0000      -0.531578       -14.4650
  35   2.0000      -0.504459       -13.7270
  36   2.0000      -0.502951       -13.6860
  37   2.0000      -0.469098       -12.7648
  38   2.0000      -0.448685       -12.2093
  39   2.0000      -0.427408       -11.6304
  40   2.0000      -0.421671       -11.4743
  41   2.0000      -0.394663       -10.7393
  42   2.0000      -0.387081       -10.5330
  43   2.0000      -0.375081       -10.2065
  44   2.0000      -0.355204        -9.6656
  45   2.0000      -0.342402        -9.3172
  46   2.0000      -0.340019        -9.2524
  47   2.0000      -0.331609        -9.0235
  48   2.0000      -0.320993        -8.7347
  49   2.0000      -0.311841        -8.4856
  50   2.0000      -0.311198        -8.4681
  51   2.0000      -0.299963        -8.1624
  52   2.0000      -0.289436        -7.8759
  53   0.0000      -0.117664        -3.2018
  54   0.0000      -0.080778        -2.1981
  55   0.0000      -0.006104        -0.1661
  56   0.0000      -0.002633        -0.0716
  57   0.0000       0.027390         0.7453

MULLIKEN ATOMIC CHARGES
-----------------------
   0 C :   -0.204946
   1 C :   -0.221007
   2 C :   -0.188425
   3 C :   -0.218004
   4 C :   -0.197982
   5 C :   -0.208998
   6 H :    0.278460
   7 H :    0.238160
   8 H :    0.241186
   9 H :    0.270151
  10 H :    0.237402
  11 Pd:    0.490191
  12 O :   -0.434991
  13 O :   -0.524978
  14 O :   -0.594483
  15 C :    0.205988
  16 O :   -0.018248
  17 H :    0.091917
  18 C :    0.399292
  19 H :    0.211128
  20 H :    0.148188
Sum of atomic charges:   -0.0000000

LOEWDIN ATOMIC CHARGES
----------------------
   0 C :   -0.089915
   1 C :   -0.125680
   2 C :   -0.112716
   3 C :   -0.120688
   4 C :   -0.039537
   5 C :   -0.092612
   6 H :    0.166033
   7 H :    0.147641
   8 H :    0.146404
   9 H :    0.162016
  10 H :    0.147303
  11 Pd:   -0.195444
  12 O :   -0.153910
  13 O :   -0.211278
  14 O :   -0.335308
  15 C :    0.017182
  16 O :    0.185642
  17 H :    0.114830
  18 C :    0.177887
  19 H :    0.123828
  20 H :    0.088323

  Mayer bond orders larger than 0.100000
B(  0-C ,  1-C ) :   1.4222 B(  0-C ,  4-C ) :   1.3452 B(  0-C ,  6-H ) :   0.8944
B(  1-C ,  2-C ) :   1.4157 B(  1-C ,  7-H ) :   0.9095 B(  2-C ,  3-C ) :   1.4147
B(  2-C ,  8-H ) :   0.9119 B(  3-C ,  5-C ) :   1.4304 B(  3-C , 10-H ) :   0.9101
B(  4-C ,  5-C ) :   1.3615 B(  4-C , 11-Pd) :   0.1858 B(  4-C , 17-H ) :   0.8103
B(  5-C ,  9-H ) :   0.8980 B( 11-Pd, 12-O ) :   0.4496 B( 11-Pd, 13-O ) :   0.5501
B( 11-Pd, 14-O ) :   0.8774 B( 11-Pd, 16-O ) :   0.1146 B( 12-O , 13-O ) :   0.1145
B( 12-O , 18-C ) :   1.5970 B( 13-O , 18-C ) :   1.3700 B( 14-O , 15-C ) :   0.9203
B( 15-C , 16-O ) :   2.3202 B( 15-C , 20-H ) :   0.8410 B( 18-C , 19-H ) :   0.8819

Dispersion correction           -0.013725631
FINAL SINGLE POINT ENERGY      -736.648825860685
Dispersion correction            ... done

DIPOLE MOMENT
-------------
                                X             Y             Z
Electronic contribution:     51.80164      41.48480       1.57336
Nuclear contribution   :    -52.58654     -42.84299      -1.07535
                        -----------------------------------------
Total Dipole Moment    :     -0.78491      -1.35819       0.49801
                        -----------------------------------------
Magnitude (a.u.)       :      1.64584
Magnitude (Debye)      :      4.18338

Rotational constants in cm-1:     0.028205     0.018051     0.013472
Rotational constants in MHz :   845.564019   541.148894   403.867046

                             ****ORCA TERMINATED NORMALLY****
TOTAL RUN TIME: 0 days 0 hours 5 minutes 0 seconds 973 msec
