                         Program Version 5.0.3 -  RELEASE  -
|  1> ! EnGrad PBEh-3c
|  2> %output
|  3> xyzfile=True
|  4> end
|  5> %scf
|  6> maxiter 250
|  7> end
|  8> %output
|  9> Print[P_Hirshfeld] = 1
| 10> end
| 11> % maxcore
| 12> 4000
| 13> *xyz 0 1
| 14> C   -1.62957183   0.19591959  -0.42550601
| 15> C   -1.92882551  -0.83532463  -1.30691338
| 16> C   -1.49268066  -2.11694612  -1.05949318
| 17> C   -0.65740103  -2.37555412   0.00908495
| 18> C   -0.91309064  -0.10924655   0.74581298
| 19> C   -0.34210356  -1.37724938   0.92344454
| 20> H   -2.05505533   1.15239693  -0.66572060
| 21> H   -2.59352399  -0.63935019  -2.14500268
| 22> H   -1.82568169  -2.92380170  -1.68967711
| 23> H    0.30863844  -1.63615058   1.73916792
| 24> H   -0.30798383  -3.38471666   0.19285768
| 25> Pd   1.41500099   1.14528944  -0.02829563
| 26> O    3.03831071   1.16076403  -1.40464676
| 27> O    2.61959211  -0.50973357  -0.10071740
| 28> O    0.37797581   2.86977787   0.02821403
| 29> C    0.07191498   2.95023003   1.33696039
| 30> O    0.48544596   2.19179748   2.10410240
| 31> H   -1.37410313   1.04473656   2.66957355
| 32> C    3.30959935  -0.00627470  -1.04409991
| 33> H    4.14216148  -0.57074912  -1.46705479
| 34> H   -0.64877821   3.77361725   1.58610170
| 35> *
| 36>
| 37>                          ****END OF INPUT****

CARTESIAN COORDINATES (ANGSTROEM)
---------------------------------
  C     -1.629572    0.195920   -0.425506
  C     -1.928826   -0.835325   -1.306913
  C     -1.492681   -2.116946   -1.059493
  C     -0.657401   -2.375554    0.009085
  C     -0.913091   -0.109247    0.745813
  C     -0.342104   -1.377249    0.923445
  H     -2.055055    1.152397   -0.665721
  H     -2.593524   -0.639350   -2.145003
  H     -1.825682   -2.923802   -1.689677
  H      0.308638   -1.636151    1.739168
  H     -0.307984   -3.384717    0.192858
  Pd     1.415001    1.145289   -0.028296
  O      3.038311    1.160764   -1.404647
  O      2.619592   -0.509734   -0.100717
  O      0.377976    2.869778    0.028214
  C      0.071915    2.950230    1.336960
  O      0.485446    2.191797    2.104102
  H     -1.374103    1.044737    2.669574
  C      3.309599   -0.006275   -1.044100
  H      4.142161   -0.570749   -1.467055
  H     -0.648778    3.773617    1.586102

 Total Charge           Charge          ....    0
 Multiplicity           Mult            ....    1
 Number of Electrons    NEL             ....  106
 Basis Dimension        Dim             ....  227

ORBITAL ENERGIES
----------------

  NO   OCC          E(Eh)            E(eV)
   0   2.0000     -19.530211      -531.4441
   1   2.0000     -19.527076      -531.3588
   2   2.0000     -19.503007      -530.7038
   3   2.0000     -19.497819      -530.5626
   4   2.0000     -10.590618      -288.1854
   5   2.0000     -10.561955      -287.4054
   6   2.0000     -10.520433      -286.2755
   7   2.0000     -10.478724      -285.1406
   8   2.0000     -10.477138      -285.0974
   9   2.0000     -10.469132      -284.8796
  10   2.0000     -10.468669      -284.8670
  11   2.0000     -10.466720      -284.8139
  12   2.0000      -3.687360      -100.3382
  13   2.0000      -2.342422       -63.7405
  14   2.0000      -2.322616       -63.2016
  15   2.0000      -2.299533       -62.5735
  16   2.0000      -1.228680       -33.4341
  17   2.0000      -1.218219       -33.1494
  18   2.0000      -1.111838       -30.2547
  19   2.0000      -1.082635       -29.4600
  20   2.0000      -0.979198       -26.6453
  21   2.0000      -0.862424       -23.4677
  22   2.0000      -0.850715       -23.1491
  23   2.0000      -0.700093       -19.0505
  24   2.0000      -0.698218       -18.9995
  25   2.0000      -0.690064       -18.7776
  26   2.0000      -0.663054       -18.0426
  27   2.0000      -0.601332       -16.3631
  28   2.0000      -0.587814       -15.9952
  29   2.0000      -0.564042       -15.3484
  30   2.0000      -0.559189       -15.2163
  31   2.0000      -0.535434       -14.5699
  32   2.0000      -0.532573       -14.4921
  33   2.0000      -0.530541       -14.4368
  34   2.0000      -0.527942       -14.3660
  35   2.0000      -0.512564       -13.9476
  36   2.0000      -0.502756       -13.6807
  37   2.0000      -0.460078       -12.5193
  38   2.0000      -0.449086       -12.2203
  39   2.0000      -0.439379       -11.9561
  40   2.0000      -0.424042       -11.5388
  41   2.0000      -0.411514       -11.1979
  42   2.0000      -0.404626       -11.0104
  43   2.0000      -0.390170       -10.6171
  44   2.0000      -0.377656       -10.2766
  45   2.0000      -0.361843        -9.8463
  46   2.0000      -0.359518        -9.7830
  47   2.0000      -0.343898        -9.3579
  48   2.0000      -0.333754        -9.0819
  49   2.0000      -0.324923        -8.8416
  50   2.0000      -0.314195        -8.5497
  51   2.0000      -0.309056        -8.4098
  52   2.0000      -0.289634        -7.8813
  53   0.0000      -0.116376        -3.1667
  54   0.0000      -0.091753        -2.4967
  55   0.0000      -0.002716        -0.0739
  56   0.0000       0.002243         0.0610
  57   0.0000       0.021529         0.5858

MULLIKEN ATOMIC CHARGES
-----------------------
   0 C :   -0.223897
   1 C :   -0.219077
   2 C :   -0.210413
   3 C :   -0.215289
   4 C :   -0.142302
   5 C :   -0.227931
   6 H :    0.266012
   7 H :    0.238898
   8 H :    0.235600
   9 H :    0.268715
  10 H :    0.237129
  11 Pd:    0.539947
  12 O :   -0.445720
  13 O :   -0.476639
  14 O :   -0.527432
  15 C :    0.348162
  16 O :   -0.345856
  17 H :    0.098993
  18 C :    0.412685
  19 H :    0.211178
  20 H :    0.177236
Sum of atomic charges:    0.0000000

LOEWDIN ATOMIC CHARGES
----------------------
   0 C :   -0.108359
   1 C :   -0.126409
   2 C :   -0.119062
   3 C :   -0.122121
   4 C :   -0.028759
   5 C :   -0.105851
   6 H :    0.163085
   7 H :    0.145620
   8 H :    0.142995
   9 H :    0.163765
  10 H :    0.145560
  11 Pd:   -0.123792
  12 O :   -0.146038
  13 O :   -0.158917
  14 O :   -0.214393
  15 C :    0.104360
  16 O :   -0.126623
  17 H :    0.118233
  18 C :    0.168852
  19 H :    0.124652
  20 H :    0.103202

  Mayer bond orders larger than 0.100000
B(  0-C ,  1-C ) :   1.4133 B(  0-C ,  4-C ) :   1.3678 B(  0-C ,  6-H ) :   0.8984
B(  1-C ,  2-C ) :   1.4240 B(  1-C ,  7-H ) :   0.9093 B(  2-C ,  3-C ) :   1.4207
B(  2-C ,  8-H ) :   0.9142 B(  3-C ,  5-C ) :   1.4181 B(  3-C , 10-H ) :   0.9101
B(  4-C ,  5-C ) :   1.3929 B(  4-C , 11-Pd) :   0.1768 B(  4-C , 17-H ) :   0.7700
B(  5-C ,  9-H ) :   0.8969 B( 11-Pd, 12-O ) :   0.5114 B( 11-Pd, 13-O ) :   0.5727
B( 11-Pd, 14-O ) :   0.7054 B( 11-Pd, 16-O ) :   0.1928 B( 12-O , 13-O ) :   0.1133
B( 12-O , 18-C ) :   1.5349 B( 13-O , 18-C ) :   1.4168 B( 14-O , 15-C ) :   1.2184
B( 15-C , 16-O ) :   1.8657 B( 15-C , 20-H ) :   0.8762 B( 18-C , 19-H ) :   0.8839

Dispersion correction           -0.013629179
FINAL SINGLE POINT ENERGY      -736.919799975295
Dispersion correction            ... done

DIPOLE MOMENT
-------------
                                X             Y             Z
Electronic contribution:     52.89086      42.21647      -1.85872
Nuclear contribution   :    -53.50006     -43.40941       1.53471
                        -----------------------------------------
Total Dipole Moment    :     -0.60920      -1.19294      -0.32402
                        -----------------------------------------
Magnitude (a.u.)       :      1.37812
Magnitude (Debye)      :      3.50291

Rotational constants in cm-1:     0.028091     0.018104     0.013484
Rotational constants in MHz :   842.154177   542.735102   404.228089

                             ****ORCA TERMINATED NORMALLY****
TOTAL RUN TIME: 0 days 0 hours 4 minutes 42 seconds 327 msec
