                         Program Version 5.0.3 -  RELEASE  -
|  1> ! EnGrad PBEh-3c
|  2> %output
|  3> xyzfile=True
|  4> end
|  5> %scf
|  6> maxiter 250
|  7> end
|  8> %output
|  9> Print[P_Hirshfeld] = 1
| 10> end
| 11> % maxcore
| 12> 4000
| 13> *xyz 0 1
| 14> C   -1.63717880   0.19649209  -0.43020541
| 15> C   -1.94208135  -0.85250903  -1.29771648
| 16> C   -1.51590706  -2.13172708  -1.05675323
| 17> C   -0.68055048  -2.38267450   0.00687102
| 18> C   -0.89415237  -0.06800605   0.77085193
| 19> C   -0.33771556  -1.37867044   0.91897365
| 20> H   -2.02672079   1.16393995  -0.66759996
| 21> H   -2.61081365  -0.63942122  -2.13903346
| 22> H   -1.86098040  -2.93388719  -1.67029292
| 23> H    0.31768523  -1.62544651   1.72974521
| 24> H   -0.32162857  -3.39411893   0.19968879
| 25> Pd   1.39035915   1.13557021   0.02188125
| 26> O    3.05992254   1.17590331  -1.40950599
| 27> O    2.58974680  -0.50333411  -0.12284454
| 28> O    0.39227142   2.86186647  -0.01761398
| 29> C    0.06525995   2.93565035   1.35712391
| 30> O    0.48169020   2.18299665   2.12974835
| 31> H   -1.32793058   1.01227797   2.58707726
| 32> C    3.34789152   0.02743834  -1.02112848
| 33> H    4.15832971  -0.55566022  -1.46764965
| 34> H   -0.64807476   3.77138326   1.57309199
| 35> *
| 36>
| 37>                          ****END OF INPUT****

CARTESIAN COORDINATES (ANGSTROEM)
---------------------------------
  C     -1.637179    0.196492   -0.430205
  C     -1.942081   -0.852509   -1.297716
  C     -1.515907   -2.131727   -1.056753
  C     -0.680550   -2.382674    0.006871
  C     -0.894152   -0.068006    0.770852
  C     -0.337716   -1.378670    0.918974
  H     -2.026721    1.163940   -0.667600
  H     -2.610814   -0.639421   -2.139033
  H     -1.860980   -2.933887   -1.670293
  H      0.317685   -1.625447    1.729745
  H     -0.321629   -3.394119    0.199689
  Pd     1.390359    1.135570    0.021881
  O      3.059923    1.175903   -1.409506
  O      2.589747   -0.503334   -0.122845
  O      0.392271    2.861866   -0.017614
  C      0.065260    2.935650    1.357124
  O      0.481690    2.182997    2.129748
  H     -1.327931    1.012278    2.587077
  C      3.347892    0.027438   -1.021128
  H      4.158330   -0.555660   -1.467650
  H     -0.648075    3.771383    1.573092

 Total Charge           Charge          ....    0
 Multiplicity           Mult            ....    1
 Number of Electrons    NEL             ....  106
 Basis Dimension        Dim             ....  227

ORBITAL ENERGIES
----------------

  NO   OCC          E(Eh)            E(eV)
   0   2.0000     -19.519996      -531.1661
   1   2.0000     -19.517837      -531.1074
   2   2.0000     -19.513940      -531.0013
   3   2.0000     -19.504786      -530.7522
   4   2.0000     -10.583865      -288.0016
   5   2.0000     -10.574135      -287.7369
   6   2.0000     -10.524484      -286.3858
   7   2.0000     -10.481337      -285.2117
   8   2.0000     -10.480122      -285.1786
   9   2.0000     -10.469436      -284.8878
  10   2.0000     -10.469226      -284.8821
  11   2.0000     -10.466872      -284.8181
  12   2.0000      -3.682086      -100.1947
  13   2.0000      -2.337673       -63.6113
  14   2.0000      -2.315600       -63.0107
  15   2.0000      -2.295978       -62.4767
  16   2.0000      -1.223103       -33.2823
  17   2.0000      -1.214664       -33.0527
  18   2.0000      -1.099156       -29.9095
  19   2.0000      -1.066881       -29.0313
  20   2.0000      -0.973775       -26.4978
  21   2.0000      -0.857400       -23.3310
  22   2.0000      -0.849580       -23.1182
  23   2.0000      -0.696966       -18.9654
  24   2.0000      -0.691260       -18.8101
  25   2.0000      -0.688327       -18.7303
  26   2.0000      -0.669414       -18.2157
  27   2.0000      -0.602174       -16.3860
  28   2.0000      -0.578272       -15.7356
  29   2.0000      -0.565507       -15.3882
  30   2.0000      -0.550346       -14.9757
  31   2.0000      -0.534811       -14.5530
  32   2.0000      -0.530448       -14.4342
  33   2.0000      -0.528996       -14.3947
  34   2.0000      -0.517592       -14.0844
  35   2.0000      -0.512968       -13.9586
  36   2.0000      -0.499481       -13.5916
  37   2.0000      -0.462544       -12.5865
  38   2.0000      -0.445736       -12.1291
  39   2.0000      -0.437536       -11.9060
  40   2.0000      -0.418926       -11.3995
  41   2.0000      -0.407678       -11.0935
  42   2.0000      -0.398429       -10.8418
  43   2.0000      -0.385989       -10.5033
  44   2.0000      -0.366862        -9.9828
  45   2.0000      -0.363672        -9.8960
  46   2.0000      -0.357246        -9.7212
  47   2.0000      -0.344342        -9.3700
  48   2.0000      -0.331925        -9.0321
  49   2.0000      -0.325922        -8.8688
  50   2.0000      -0.311862        -8.4862
  51   2.0000      -0.310567        -8.4510
  52   2.0000      -0.297055        -8.0833
  53   0.0000      -0.113500        -3.0885
  54   0.0000      -0.085087        -2.3153
  55   0.0000      -0.002568        -0.0699
  56   0.0000       0.000996         0.0271
  57   0.0000       0.026239         0.7140

MULLIKEN ATOMIC CHARGES
-----------------------
   0 C :   -0.219261
   1 C :   -0.217759
   2 C :   -0.200339
   3 C :   -0.214366
   4 C :   -0.184317
   5 C :   -0.222260
   6 H :    0.266445
   7 H :    0.236749
   8 H :    0.238122
   9 H :    0.267641
  10 H :    0.235970
  11 Pd:    0.548967
  12 O :   -0.437078
  13 O :   -0.496055
  14 O :   -0.546550
  15 C :    0.350476
  16 O :   -0.331468
  17 H :    0.126543
  18 C :    0.402285
  19 H :    0.208778
  20 H :    0.187478
Sum of atomic charges:    0.0000000

LOEWDIN ATOMIC CHARGES
----------------------
   0 C :   -0.101036
   1 C :   -0.128656
   2 C :   -0.115120
   3 C :   -0.123828
   4 C :   -0.049248
   5 C :   -0.097612
   6 H :    0.160956
   7 H :    0.145744
   8 H :    0.144209
   9 H :    0.161658
  10 H :    0.145854
  11 Pd:   -0.139668
  12 O :   -0.154447
  13 O :   -0.178334
  14 O :   -0.243116
  15 C :    0.137118
  16 O :   -0.111625
  17 H :    0.146755
  18 C :    0.167301
  19 H :    0.123151
  20 H :    0.109943

  Mayer bond orders larger than 0.100000
B(  0-C ,  1-C ) :   1.4228 B(  0-C ,  4-C ) :   1.3434 B(  0-C ,  6-H ) :   0.8988
B(  1-C ,  2-C ) :   1.4175 B(  1-C ,  7-H ) :   0.9106 B(  2-C ,  3-C ) :   1.4175
B(  2-C ,  8-H ) :   0.9130 B(  3-C ,  5-C ) :   1.4252 B(  3-C , 10-H ) :   0.9110
B(  4-C ,  5-C ) :   1.3710 B(  4-C , 11-Pd) :   0.1944 B(  4-C , 17-H ) :   0.7870
B(  5-C ,  9-H ) :   0.8984 B( 11-Pd, 12-O ) :   0.4667 B( 11-Pd, 13-O ) :   0.5770
B( 11-Pd, 14-O ) :   0.7316 B( 11-Pd, 16-O ) :   0.1775 B( 12-O , 13-O ) :   0.1132
B( 12-O , 18-C ) :   1.5815 B( 13-O , 18-C ) :   1.3870 B( 14-O , 15-C ) :   1.1602
B( 14-O , 16-O ) :   0.1003 B( 15-C , 16-O ) :   1.8943 B( 15-C , 20-H ) :   0.8731
B( 18-C , 19-H ) :   0.8819

Dispersion correction           -0.013713531
FINAL SINGLE POINT ENERGY      -736.923862538488
Dispersion correction            ... done

DIPOLE MOMENT
-------------
                                X             Y             Z
Electronic contribution:     51.63885      41.84221       0.67119
Nuclear contribution   :    -52.40951     -42.93577      -0.72608
                        -----------------------------------------
Total Dipole Moment    :     -0.77066      -1.09357      -0.05488
                        -----------------------------------------
Magnitude (a.u.)       :      1.33896
Magnitude (Debye)      :      3.40337

Rotational constants in cm-1:     0.028192     0.018034     0.013479
Rotational constants in MHz :   845.178290   540.640832   404.103152

                             ****ORCA TERMINATED NORMALLY****
TOTAL RUN TIME: 0 days 0 hours 4 minutes 31 seconds 43 msec
