                         Program Version 5.0.3 -  RELEASE  -
|  1> ! EnGrad PBEh-3c
|  2> %output
|  3> xyzfile=True
|  4> end
|  5> %scf
|  6> maxiter 250
|  7> end
|  8> %output
|  9> Print[P_Hirshfeld] = 1
| 10> end
| 11> % maxcore
| 12> 4000
| 13> *xyz 0 1
| 14> C   -1.63189779   0.18732511  -0.41669062
| 15> C   -1.98439257  -0.86043149  -1.28137571
| 16> C   -1.57178650  -2.15990731  -1.03743006
| 17> C   -0.71655554  -2.39763307   0.02507558
| 18> C   -0.85121154  -0.00875699   0.79427315
| 19> C   -0.34430282  -1.35906891   0.89884254
| 20> H   -1.96495035   1.19143931  -0.68225591
| 21> H   -2.64829895  -0.64507511  -2.11736371
| 22> H   -1.95100352  -2.96773414  -1.63085599
| 23> H    0.34412245  -1.60725885   1.70634030
| 24> H   -0.36013589  -3.40958708   0.21436471
| 25> Pd   1.34707608   1.10989593   0.08891156
| 26> O    3.11650828   1.21910887  -1.39800613
| 27> O    2.55398383  -0.48721758  -0.17267052
| 28> O    0.40949779   2.83158598  -0.04114317
| 29> C    0.08401664   2.86821300   1.40725911
| 30> O    0.43690757   2.21552838   2.13280576
| 31> H   -1.21080511   0.93848222   2.38638342
| 32> C    3.39034351   0.08441238  -0.97995626
| 33> H    4.20151535  -0.51471417  -1.45473206
| 34> H   -0.65173012   3.76584179   1.54722564
| 35> *
| 36>
| 37>                          ****END OF INPUT****

CARTESIAN COORDINATES (ANGSTROEM)
---------------------------------
  C     -1.631898    0.187325   -0.416691
  C     -1.984393   -0.860431   -1.281376
  C     -1.571786   -2.159907   -1.037430
  C     -0.716556   -2.397633    0.025076
  C     -0.851212   -0.008757    0.794273
  C     -0.344303   -1.359069    0.898843
  H     -1.964950    1.191439   -0.682256
  H     -2.648299   -0.645075   -2.117364
  H     -1.951004   -2.967734   -1.630856
  H      0.344122   -1.607259    1.706340
  H     -0.360136   -3.409587    0.214365
  Pd     1.347076    1.109896    0.088912
  O      3.116508    1.219109   -1.398006
  O      2.553984   -0.487218   -0.172671
  O      0.409498    2.831586   -0.041143
  C      0.084017    2.868213    1.407259
  O      0.436908    2.215528    2.132806
  H     -1.210805    0.938482    2.386383
  C      3.390344    0.084412   -0.979956
  H      4.201515   -0.514714   -1.454732
  H     -0.651730    3.765842    1.547226

 Total Charge           Charge          ....    0
 Multiplicity           Mult            ....    1
 Number of Electrons    NEL             ....  106
 Basis Dimension        Dim             ....  227

ORBITAL ENERGIES
----------------

  NO   OCC          E(Eh)            E(eV)
   0   2.0000     -19.536227      -531.6078
   1   2.0000     -19.505349      -530.7675
   2   2.0000     -19.501524      -530.6634
   3   2.0000     -19.491360      -530.3869
   4   2.0000     -10.575078      -287.7625
   5   2.0000     -10.572306      -287.6871
   6   2.0000     -10.528686      -286.5001
   7   2.0000     -10.489167      -285.4247
   8   2.0000     -10.488657      -285.4109
   9   2.0000     -10.477148      -285.0977
  10   2.0000     -10.473720      -285.0044
  11   2.0000     -10.473669      -285.0030
  12   2.0000      -3.675192      -100.0071
  13   2.0000      -2.330987       -63.4294
  14   2.0000      -2.307435       -62.7885
  15   2.0000      -2.291663       -62.3593
  16   2.0000      -1.313707       -35.7478
  17   2.0000      -1.198688       -32.6180
  18   2.0000      -1.085513       -29.5383
  19   2.0000      -1.046304       -28.4714
  20   2.0000      -0.971505       -26.4360
  21   2.0000      -0.854589       -23.2546
  22   2.0000      -0.853052       -23.2127
  23   2.0000      -0.696471       -18.9519
  24   2.0000      -0.692349       -18.8398
  25   2.0000      -0.674069       -18.3423
  26   2.0000      -0.660812       -17.9816
  27   2.0000      -0.604042       -16.4368
  28   2.0000      -0.600496       -16.3403
  29   2.0000      -0.574410       -15.6305
  30   2.0000      -0.564207       -15.3528
  31   2.0000      -0.558163       -15.1884
  32   2.0000      -0.533131       -14.5072
  33   2.0000      -0.530701       -14.4411
  34   2.0000      -0.528736       -14.3876
  35   2.0000      -0.502457       -13.6725
  36   2.0000      -0.495284       -13.4774
  37   2.0000      -0.470394       -12.8001
  38   2.0000      -0.447167       -12.1680
  39   2.0000      -0.429425       -11.6852
  40   2.0000      -0.413420       -11.2497
  41   2.0000      -0.408300       -11.1104
  42   2.0000      -0.385804       -10.4983
  43   2.0000      -0.381576       -10.3832
  44   2.0000      -0.366057        -9.9609
  45   2.0000      -0.361963        -9.8495
  46   2.0000      -0.351093        -9.5537
  47   2.0000      -0.345694        -9.4068
  48   2.0000      -0.329509        -8.9664
  49   2.0000      -0.323582        -8.8051
  50   2.0000      -0.311086        -8.4651
  51   2.0000      -0.308365        -8.3910
  52   2.0000      -0.301094        -8.1932
  53   0.0000      -0.111246        -3.0271
  54   0.0000      -0.067885        -1.8472
  55   0.0000      -0.004597        -0.1251
  56   0.0000       0.000414         0.0113
  57   0.0000       0.034865         0.9487

MULLIKEN ATOMIC CHARGES
-----------------------
   0 C :   -0.201001
   1 C :   -0.213810
   2 C :   -0.200655
   3 C :   -0.209306
   4 C :   -0.274958
   5 C :   -0.200723
   6 H :    0.269343
   7 H :    0.240620
   8 H :    0.242462
   9 H :    0.263259
  10 H :    0.239413
  11 Pd:    0.540198
  12 O :   -0.426122
  13 O :   -0.512991
  14 O :   -0.568465
  15 C :    0.293681
  16 O :   -0.191470
  17 H :    0.177768
  18 C :    0.379546
  19 H :    0.198366
  20 H :    0.154845
Sum of atomic charges:   -0.0000000

LOEWDIN ATOMIC CHARGES
----------------------
   0 C :   -0.081628
   1 C :   -0.136078
   2 C :   -0.098332
   3 C :   -0.131339
   4 C :   -0.090884
   5 C :   -0.078101
   6 H :    0.162383
   7 H :    0.147819
   8 H :    0.145541
   9 H :    0.160119
  10 H :    0.147930
  11 Pd:   -0.170404
  12 O :   -0.170097
  13 O :   -0.194995
  14 O :   -0.276372
  15 C :    0.084887
  16 O :    0.026693
  17 H :    0.191532
  18 C :    0.151599
  19 H :    0.118035
  20 H :    0.091692

  Mayer bond orders larger than 0.100000
B(  0-C ,  1-C ) :   1.4395 B(  0-C ,  4-C ) :   1.3010 B(  0-C ,  6-H ) :   0.8966
B(  1-C ,  2-C ) :   1.4023 B(  1-C ,  7-H ) :   0.9106 B(  2-C ,  3-C ) :   1.4132
B(  2-C ,  8-H ) :   0.9108 B(  3-C ,  5-C ) :   1.4349 B(  3-C , 10-H ) :   0.9108
B(  4-C ,  5-C ) :   1.3314 B(  4-C , 11-Pd) :   0.2285 B(  4-C , 17-H ) :   0.8191
B(  5-C ,  9-H ) :   0.8999 B( 11-Pd, 12-O ) :   0.4080 B( 11-Pd, 13-O ) :   0.5643
B( 11-Pd, 14-O ) :   0.7982 B( 11-Pd, 16-O ) :   0.1325 B( 12-O , 13-O ) :   0.1127
B( 12-O , 18-C ) :   1.6361 B( 13-O , 18-C ) :   1.3679 B( 14-O , 15-C ) :   1.0451
B( 15-C , 16-O ) :   2.0963 B( 15-C , 20-H ) :   0.8624 B( 18-C , 19-H ) :   0.8797

Dispersion correction           -0.013887442
FINAL SINGLE POINT ENERGY      -736.875095178022
Dispersion correction            ... done

DIPOLE MOMENT
-------------
                                X             Y             Z
Electronic contribution:     49.49798      40.41131       4.05339
Nuclear contribution   :    -50.53465     -41.63790      -3.63808
                        -----------------------------------------
Total Dipole Moment    :     -1.03667      -1.22659       0.41531
                        -----------------------------------------
Magnitude (a.u.)       :      1.65882
Magnitude (Debye)      :      4.21639

Rotational constants in cm-1:     0.028616     0.017998     0.013469
Rotational constants in MHz :   857.896443   539.554325   403.779576

                             ****ORCA TERMINATED NORMALLY****
TOTAL RUN TIME: 0 days 0 hours 3 minutes 55 seconds 719 msec
