                         Program Version 5.0.3 -  RELEASE  -
|  1> ! EnGrad PBEh-3c
|  2> %output
|  3> xyzfile=True
|  4> end
|  5> %scf
|  6> maxiter 250
|  7> end
|  8> %output
|  9> Print[P_Hirshfeld] = 1
| 10> end
| 11> % maxcore
| 12> 4000
| 13> *xyz 0 1
| 14> C   -1.63483502   0.19242366  -0.42420736
| 15> C   -1.96085965  -0.85602513  -1.29046422
| 16> C   -1.54070712  -2.14423385  -1.04817734
| 17> C   -0.69653002  -2.38931332   0.01495045
| 18> C   -0.87509464  -0.04171050   0.78124659
| 19> C   -0.34063907  -1.36997101   0.91003918
| 20> H   -1.99930622   1.17614455  -0.67410447
| 21> H   -2.62745014  -0.64193050  -2.12941613
| 22> H   -1.90093390  -2.94890893  -1.65279027
| 23> H    0.32941843  -1.61737458   1.71935779
| 24> H   -0.33871864  -3.40098391   0.20620217
| 25> Pd   1.37114953   1.12417561   0.05163022
| 26> O    3.08503607   1.19507853  -1.40440219
| 27> O    2.57387470  -0.49618137  -0.14495800
| 28> O    0.39991672   2.84842758  -0.02805656
| 29> C    0.07358442   2.90572073   1.37937460
| 30> O    0.46181505   2.19743468   2.13110527
| 31> H   -1.27594869   0.97952641   2.49800658
| 32> C    3.36673230   0.05272420  -1.00285568
| 33> H    4.17749609  -0.53748780  -1.46191665
| 34> H   -0.64969706   3.76892388   1.56161215
| 35> *
| 36>
| 37>                          ****END OF INPUT****

CARTESIAN COORDINATES (ANGSTROEM)
---------------------------------
  C     -1.634835    0.192424   -0.424207
  C     -1.960860   -0.856025   -1.290464
  C     -1.540707   -2.144234   -1.048177
  C     -0.696530   -2.389313    0.014950
  C     -0.875095   -0.041710    0.781247
  C     -0.340639   -1.369971    0.910039
  H     -1.999306    1.176145   -0.674104
  H     -2.627450   -0.641930   -2.129416
  H     -1.900934   -2.948909   -1.652790
  H      0.329418   -1.617375    1.719358
  H     -0.338719   -3.400984    0.206202
  Pd     1.371150    1.124176    0.051630
  O      3.085036    1.195079   -1.404402
  O      2.573875   -0.496181   -0.144958
  O      0.399917    2.848428   -0.028057
  C      0.073584    2.905721    1.379375
  O      0.461815    2.197435    2.131105
  H     -1.275949    0.979526    2.498007
  C      3.366732    0.052724   -1.002856
  H      4.177496   -0.537488   -1.461917
  H     -0.649697    3.768924    1.561612

 Total Charge           Charge          ....    0
 Multiplicity           Mult            ....    1
 Number of Electrons    NEL             ....  106
 Basis Dimension        Dim             ....  227

ORBITAL ENERGIES
----------------

  NO   OCC          E(Eh)            E(eV)
   0   2.0000     -19.523240      -531.2544
   1   2.0000     -19.513584      -530.9916
   2   2.0000     -19.510314      -530.9026
   3   2.0000     -19.499053      -530.5962
   4   2.0000     -10.578483      -287.8552
   5   2.0000     -10.574023      -287.7338
   6   2.0000     -10.526311      -286.4355
   7   2.0000     -10.484457      -285.2966
   8   2.0000     -10.483512      -285.2709
   9   2.0000     -10.471572      -284.9460
  10   2.0000     -10.471001      -284.9304
  11   2.0000     -10.470627      -284.9202
  12   2.0000      -3.678895      -100.1078
  13   2.0000      -2.334659       -63.5293
  14   2.0000      -2.311670       -62.9037
  15   2.0000      -2.294020       -62.4235
  16   2.0000      -1.260987       -34.3132
  17   2.0000      -1.207933       -32.8695
  18   2.0000      -1.093402       -29.7530
  19   2.0000      -1.058560       -28.8049
  20   2.0000      -0.972548       -26.4644
  21   2.0000      -0.855936       -23.2912
  22   2.0000      -0.850948       -23.1555
  23   2.0000      -0.696584       -18.9550
  24   2.0000      -0.689815       -18.7708
  25   2.0000      -0.683473       -18.5982
  26   2.0000      -0.664368       -18.0784
  27   2.0000      -0.602249       -16.3880
  28   2.0000      -0.580988       -15.8095
  29   2.0000      -0.570737       -15.5305
  30   2.0000      -0.550923       -14.9914
  31   2.0000      -0.538909       -14.6645
  32   2.0000      -0.536776       -14.6064
  33   2.0000      -0.529895       -14.4192
  34   2.0000      -0.527663       -14.3584
  35   2.0000      -0.510179       -13.8827
  36   2.0000      -0.497533       -13.5386
  37   2.0000      -0.465800       -12.6751
  38   2.0000      -0.445911       -12.1338
  39   2.0000      -0.434038       -11.8108
  40   2.0000      -0.416618       -11.3368
  41   2.0000      -0.408501       -11.1159
  42   2.0000      -0.392149       -10.6709
  43   2.0000      -0.384121       -10.4525
  44   2.0000      -0.365766        -9.9530
  45   2.0000      -0.359490        -9.7822
  46   2.0000      -0.352746        -9.5987
  47   2.0000      -0.341220        -9.2851
  48   2.0000      -0.338502        -9.2111
  49   2.0000      -0.325660        -8.8617
  50   2.0000      -0.313184        -8.5222
  51   2.0000      -0.310251        -8.4424
  52   2.0000      -0.300245        -8.1701
  53   0.0000      -0.112373        -3.0578
  54   0.0000      -0.078236        -2.1289
  55   0.0000      -0.003291        -0.0895
  56   0.0000       0.000198         0.0054
  57   0.0000       0.030962         0.8425

MULLIKEN ATOMIC CHARGES
-----------------------
   0 C :   -0.212347
   1 C :   -0.215439
   2 C :   -0.201266
   3 C :   -0.211328
   4 C :   -0.221246
   5 C :   -0.214512
   6 H :    0.267631
   7 H :    0.238315
   8 H :    0.239941
   9 H :    0.265598
  10 H :    0.237329
  11 Pd:    0.546181
  12 O :   -0.432423
  13 O :   -0.503186
  14 O :   -0.557429
  15 C :    0.328145
  16 O :   -0.273662
  17 H :    0.149681
  18 C :    0.392290
  19 H :    0.203915
  20 H :    0.173813
Sum of atomic charges:    0.0000000

LOEWDIN ATOMIC CHARGES
----------------------
   0 C :   -0.092857
   1 C :   -0.131926
   2 C :   -0.107835
   3 C :   -0.127109
   4 C :   -0.067970
   5 C :   -0.089690
   6 H :    0.161413
   7 H :    0.146612
   8 H :    0.144705
   9 H :    0.160913
  10 H :    0.146702
  11 Pd:   -0.151940
  12 O :   -0.161845
  13 O :   -0.184676
  14 O :   -0.258585
  15 C :    0.115537
  16 O :   -0.053123
  17 H :    0.168669
  18 C :    0.159733
  19 H :    0.120702
  20 H :    0.102571

  Mayer bond orders larger than 0.100000
B(  0-C ,  1-C ) :   1.4303 B(  0-C ,  4-C ) :   1.3258 B(  0-C ,  6-H ) :   0.8979
B(  1-C ,  2-C ) :   1.4110 B(  1-C ,  7-H ) :   0.9107 B(  2-C ,  3-C ) :   1.4158
B(  2-C ,  8-H ) :   0.9121 B(  3-C ,  5-C ) :   1.4297 B(  3-C , 10-H ) :   0.9110
B(  4-C ,  5-C ) :   1.3550 B(  4-C , 11-Pd) :   0.2093 B(  4-C , 17-H ) :   0.8013
B(  5-C ,  9-H ) :   0.8991 B( 11-Pd, 12-O ) :   0.4411 B( 11-Pd, 13-O ) :   0.5711
B( 11-Pd, 14-O ) :   0.7619 B( 11-Pd, 16-O ) :   0.1552 B( 12-O , 13-O ) :   0.1129
B( 12-O , 18-C ) :   1.6056 B( 13-O , 18-C ) :   1.3797 B( 14-O , 15-C ) :   1.1084
B( 15-C , 16-O ) :   1.9815 B( 15-C , 20-H ) :   0.8695 B( 18-C , 19-H ) :   0.8809

Dispersion correction           -0.013796054
FINAL SINGLE POINT ENERGY      -736.914155112518
Dispersion correction            ... done

DIPOLE MOMENT
-------------
                                X             Y             Z
Electronic contribution:     50.68717      41.21401       2.17871
Nuclear contribution   :    -51.57742     -42.35976      -2.01846
                        -----------------------------------------
Total Dipole Moment    :     -0.89026      -1.14575       0.16025
                        -----------------------------------------
Magnitude (a.u.)       :      1.45979
Magnitude (Debye)      :      3.71049

Rotational constants in cm-1:     0.028386     0.018022     0.013477
Rotational constants in MHz :   850.976722   540.278050   404.019171

                             ****ORCA TERMINATED NORMALLY****
TOTAL RUN TIME: 0 days 0 hours 3 minutes 49 seconds 65 msec
