                         Program Version 5.0.3 -  RELEASE  -
|  1> ! EnGrad PBEh-3c
|  2> %output
|  3> xyzfile=True
|  4> end
|  5> %scf
|  6> maxiter 250
|  7> end
|  8> %output
|  9> Print[P_Hirshfeld] = 1
| 10> end
| 11> % maxcore
| 12> 4000
| 13> *xyz 0 1
| 14> C   -1.63200591   0.19471674  -0.40755563
| 15> C   -1.97306290  -0.85202582  -1.28090055
| 16> C   -1.55815935  -2.14879392  -1.03753029
| 17> C   -0.70434405  -2.38877842   0.02542709
| 18> C   -0.87298166  -0.02970222   0.79541793
| 19> C   -0.34678786  -1.35575884   0.91130870
| 20> H   -1.97971370   1.18374459  -0.67399734
| 21> H   -2.63624126  -0.64297504  -2.12196634
| 22> H   -1.92930662  -2.96388706  -1.64452683
| 23> H    0.33374325  -1.60960566   1.71279866
| 24> H   -0.34962735  -3.40303271   0.21065363
| 25> Pd   1.35841633   1.11498199   0.05825876
| 26> O    3.10330077   1.21239075  -1.39611162
| 27> O    2.57021984  -0.49087859  -0.15675258
| 28> O    0.40326147   2.82564101  -0.00567768
| 29> C    0.03408645   2.97786147   1.29679799
| 30> O    0.49220636   2.13735162   2.21336445
| 31> H   -1.22634142   0.92874760   2.38775189
| 32> C    3.36459580   0.06522723  -0.99651397
| 33> H    4.18856684  -0.52103415  -1.45125019
| 34> H   -0.64375326   3.76021480   1.55117905
| 35> *
| 36>
| 37>                          ****END OF INPUT****

CARTESIAN COORDINATES (ANGSTROEM)
---------------------------------
  C     -1.632006    0.194717   -0.407556
  C     -1.973063   -0.852026   -1.280901
  C     -1.558159   -2.148794   -1.037530
  C     -0.704344   -2.388778    0.025427
  C     -0.872982   -0.029702    0.795418
  C     -0.346788   -1.355759    0.911309
  H     -1.979714    1.183745   -0.673997
  H     -2.636241   -0.642975   -2.121966
  H     -1.929307   -2.963887   -1.644527
  H      0.333743   -1.609606    1.712799
  H     -0.349627   -3.403033    0.210654
  Pd     1.358416    1.114982    0.058259
  O      3.103301    1.212391   -1.396112
  O      2.570220   -0.490879   -0.156753
  O      0.403261    2.825641   -0.005678
  C      0.034086    2.977861    1.296798
  O      0.492206    2.137352    2.213364
  H     -1.226341    0.928748    2.387752
  C      3.364596    0.065227   -0.996514
  H      4.188567   -0.521034   -1.451250
  H     -0.643753    3.760215    1.551179

 Total Charge           Charge          ....    0
 Multiplicity           Mult            ....    1
 Number of Electrons    NEL             ....  106
 Basis Dimension        Dim             ....  227

ORBITAL ENERGIES
----------------

  NO   OCC          E(Eh)            E(eV)
   0   2.0000     -19.534765      -531.5680
   1   2.0000     -19.520305      -531.1745
   2   2.0000     -19.512497      -530.9620
   3   2.0000     -19.503549      -530.7185
   4   2.0000     -10.591759      -288.2164
   5   2.0000     -10.581209      -287.9293
   6   2.0000     -10.515677      -286.1461
   7   2.0000     -10.481225      -285.2086
   8   2.0000     -10.478300      -285.1290
   9   2.0000     -10.470512      -284.9171
  10   2.0000     -10.468906      -284.8734
  11   2.0000     -10.467985      -284.8484
  12   2.0000      -3.686961      -100.3273
  13   2.0000      -2.344279       -63.7911
  14   2.0000      -2.318571       -63.0915
  15   2.0000      -2.300823       -62.6086
  16   2.0000      -1.213252       -33.0143
  17   2.0000      -1.162756       -31.6402
  18   2.0000      -1.100102       -29.9353
  19   2.0000      -1.070837       -29.1390
  20   2.0000      -0.967255       -26.3203
  21   2.0000      -0.850158       -23.1340
  22   2.0000      -0.847708       -23.0673
  23   2.0000      -0.700956       -19.0740
  24   2.0000      -0.692863       -18.8538
  25   2.0000      -0.685319       -18.6485
  26   2.0000      -0.682654       -18.5760
  27   2.0000      -0.596982       -16.2447
  28   2.0000      -0.577132       -15.7046
  29   2.0000      -0.561700       -15.2846
  30   2.0000      -0.548154       -14.9160
  31   2.0000      -0.528175       -14.3724
  32   2.0000      -0.525551       -14.3010
  33   2.0000      -0.520850       -14.1730
  34   2.0000      -0.515677       -14.0323
  35   2.0000      -0.497462       -13.5366
  36   2.0000      -0.491146       -13.3648
  37   2.0000      -0.460463       -12.5298
  38   2.0000      -0.443663       -12.0727
  39   2.0000      -0.437058       -11.8929
  40   2.0000      -0.411998       -11.2110
  41   2.0000      -0.407666       -11.0932
  42   2.0000      -0.397261       -10.8100
  43   2.0000      -0.386866       -10.5272
  44   2.0000      -0.376388       -10.2420
  45   2.0000      -0.371267       -10.1027
  46   2.0000      -0.360262        -9.8032
  47   2.0000      -0.345960        -9.4141
  48   2.0000      -0.340104        -9.2547
  49   2.0000      -0.329965        -8.9788
  50   2.0000      -0.317050        -8.6274
  51   2.0000      -0.306099        -8.3294
  52   2.0000      -0.293818        -7.9952
  53   0.0000      -0.111765        -3.0413
  54   0.0000      -0.059104        -1.6083
  55   0.0000      -0.002176        -0.0592
  56   0.0000       0.000646         0.0176
  57   0.0000       0.012066         0.3283

MULLIKEN ATOMIC CHARGES
-----------------------
   0 C :   -0.212880
   1 C :   -0.215574
   2 C :   -0.206653
   3 C :   -0.211622
   4 C :   -0.250170
   5 C :   -0.212479
   6 H :    0.255977
   7 H :    0.235618
   8 H :    0.237485
   9 H :    0.263506
  10 H :    0.235438
  11 Pd:    0.591493
  12 O :   -0.432949
  13 O :   -0.491981
  14 O :   -0.512239
  15 C :    0.385182
  16 O :   -0.465601
  17 H :    0.189648
  18 C :    0.392874
  19 H :    0.203093
  20 H :    0.221837
Sum of atomic charges:   -0.0000000

LOEWDIN ATOMIC CHARGES
----------------------
   0 C :   -0.098215
   1 C :   -0.135248
   2 C :   -0.109173
   3 C :   -0.129897
   4 C :   -0.091507
   5 C :   -0.090104
   6 H :    0.155495
   7 H :    0.144862
   8 H :    0.143660
   9 H :    0.159549
  10 H :    0.145496
  11 Pd:   -0.122901
  12 O :   -0.166153
  13 O :   -0.170405
  14 O :   -0.181783
  15 C :    0.209329
  16 O :   -0.268808
  17 H :    0.201501
  18 C :    0.156540
  19 H :    0.120110
  20 H :    0.127652

  Mayer bond orders larger than 0.100000
B(  0-C ,  1-C ) :   1.4341 B(  0-C ,  4-C ) :   1.3109 B(  0-C ,  6-H ) :   0.9019
B(  1-C ,  2-C ) :   1.4096 B(  1-C ,  7-H ) :   0.9123 B(  2-C ,  3-C ) :   1.4147
B(  2-C ,  8-H ) :   0.9128 B(  3-C ,  5-C ) :   1.4293 B(  3-C , 10-H ) :   0.9123
B(  4-C ,  5-C ) :   1.3511 B(  4-C , 11-Pd) :   0.2150 B(  4-C , 17-H ) :   0.7895
B(  5-C ,  9-H ) :   0.8995 B( 11-Pd, 12-O ) :   0.4352 B( 11-Pd, 13-O ) :   0.5936
B( 11-Pd, 14-O ) :   0.6555 B( 11-Pd, 16-O ) :   0.2115 B( 12-O , 13-O ) :   0.1127
B( 12-O , 18-C ) :   1.6103 B( 13-O , 18-C ) :   1.3777 B( 14-O , 15-C ) :   1.2850
B( 14-O , 16-O ) :   0.1129 B( 15-C , 16-O ) :   1.6821 B( 15-C , 20-H ) :   0.8768
B( 18-C , 19-H ) :   0.8809

Dispersion correction           -0.013867223
FINAL SINGLE POINT ENERGY      -736.957586979823
Dispersion correction            ... done

DIPOLE MOMENT
-------------
                                X             Y             Z
Electronic contribution:     50.06212      41.10050       1.89850
Nuclear contribution   :    -51.01331     -41.92782      -2.10498
                        -----------------------------------------
Total Dipole Moment    :     -0.95119      -0.82732      -0.20649
                        -----------------------------------------
Magnitude (a.u.)       :      1.27744
Magnitude (Debye)      :      3.24700

Rotational constants in cm-1:     0.028368     0.017983     0.013488
Rotational constants in MHz :   850.441072   539.130040   404.369682

                             ****ORCA TERMINATED NORMALLY****
TOTAL RUN TIME: 0 days 0 hours 4 minutes 5 seconds 991 msec
