                         Program Version 5.0.3 -  RELEASE  -
|  1> ! EnGrad PBEh-3c
|  2> %output
|  3> xyzfile=True
|  4> end
|  5> %scf
|  6> maxiter 250
|  7> end
|  8> %output
|  9> Print[P_Hirshfeld] = 1
| 10> end
| 11> % maxcore
| 12> 4000
| 13> *xyz 0 1
| 14> C   -1.62400122   0.19487402  -0.39118521
| 15> C   -1.98394981  -0.84142100  -1.27206892
| 16> C   -1.57352289  -2.15080734  -1.02556077
| 17> C   -0.70738706  -2.38571117   0.03859930
| 18> C   -0.87283988  -0.02986530   0.79858644
| 19> C   -0.35390875  -1.34197440   0.91058654
| 20> H   -1.96548863   1.18836313  -0.67601515
| 21> H   -2.64254534  -0.64472503  -2.11371916
| 22> H   -1.95235082  -2.97528320  -1.63714686
| 23> H    0.33786366  -1.60481744   1.70662492
| 24> H   -0.35998594  -3.40216996   0.21451371
| 25> Pd   1.35389043   1.10474403   0.04781512
| 26> O    3.11834104   1.22794964  -1.38029019
| 27> O    2.57647627  -0.48709515  -0.16528125
| 28> O    0.39157906   2.81124397   0.05598316
| 29> C    0.04706935   2.97486082   1.25216740
| 30> O    0.48249865   2.14071831   2.22325186
| 31> H   -1.17915246   0.88872550   2.29158804
| 32> C    3.35042780   0.06877061  -0.99711539
| 33> H    4.19792760  -0.50599846  -1.43733551
| 34> H   -0.64706661   3.76199708   1.54524140
| 35> *
| 36>
| 37>                          ****END OF INPUT****

CARTESIAN COORDINATES (ANGSTROEM)
---------------------------------
  C     -1.624001    0.194874   -0.391185
  C     -1.983950   -0.841421   -1.272069
  C     -1.573523   -2.150807   -1.025561
  C     -0.707387   -2.385711    0.038599
  C     -0.872840   -0.029865    0.798586
  C     -0.353909   -1.341974    0.910587
  H     -1.965489    1.188363   -0.676015
  H     -2.642545   -0.644725   -2.113719
  H     -1.952351   -2.975283   -1.637147
  H      0.337864   -1.604817    1.706625
  H     -0.359986   -3.402170    0.214514
  Pd     1.353890    1.104744    0.047815
  O      3.118341    1.227950   -1.380290
  O      2.576476   -0.487095   -0.165281
  O      0.391579    2.811244    0.055983
  C      0.047069    2.974861    1.252167
  O      0.482499    2.140718    2.223252
  H     -1.179152    0.888725    2.291588
  C      3.350428    0.068771   -0.997115
  H      4.197928   -0.505998   -1.437336
  H     -0.647067    3.761997    1.545241

 Total Charge           Charge          ....    0
 Multiplicity           Mult            ....    1
 Number of Electrons    NEL             ....  106
 Basis Dimension        Dim             ....  227

ORBITAL ENERGIES
----------------

  NO   OCC          E(Eh)            E(eV)
   0   2.0000     -19.543942      -531.8177
   1   2.0000     -19.527994      -531.3837
   2   2.0000     -19.515256      -531.0371
   3   2.0000     -19.482935      -530.1576
   4   2.0000     -10.583922      -288.0032
   5   2.0000     -10.582627      -287.9679
   6   2.0000     -10.509736      -285.9844
   7   2.0000     -10.480870      -285.1990
   8   2.0000     -10.476942      -285.0921
   9   2.0000     -10.473632      -285.0020
  10   2.0000     -10.469826      -284.8985
  11   2.0000     -10.468345      -284.8582
  12   2.0000      -3.693128      -100.4951
  13   2.0000      -2.351120       -63.9772
  14   2.0000      -2.324692       -63.2581
  15   2.0000      -2.306300       -62.7576
  16   2.0000      -1.223152       -33.2837
  17   2.0000      -1.203194       -32.7406
  18   2.0000      -1.109829       -30.2000
  19   2.0000      -1.059354       -28.8265
  20   2.0000      -0.968178       -26.3455
  21   2.0000      -0.850198       -23.1351
  22   2.0000      -0.849389       -23.1131
  23   2.0000      -0.696890       -18.9634
  24   2.0000      -0.693295       -18.8655
  25   2.0000      -0.686190       -18.6722
  26   2.0000      -0.682514       -18.5721
  27   2.0000      -0.596080       -16.2202
  28   2.0000      -0.585567       -15.9341
  29   2.0000      -0.575040       -15.6476
  30   2.0000      -0.555268       -15.1096
  31   2.0000      -0.529389       -14.4054
  32   2.0000      -0.528911       -14.3924
  33   2.0000      -0.526453       -14.3255
  34   2.0000      -0.523030       -14.2324
  35   2.0000      -0.512881       -13.9562
  36   2.0000      -0.491261       -13.3679
  37   2.0000      -0.463429       -12.6105
  38   2.0000      -0.446923       -12.1614
  39   2.0000      -0.431501       -11.7417
  40   2.0000      -0.411580       -11.1997
  41   2.0000      -0.407036       -11.0760
  42   2.0000      -0.400115       -10.8877
  43   2.0000      -0.390802       -10.6343
  44   2.0000      -0.379479       -10.3261
  45   2.0000      -0.373763       -10.1706
  46   2.0000      -0.368785       -10.0351
  47   2.0000      -0.349393        -9.5075
  48   2.0000      -0.340173        -9.2566
  49   2.0000      -0.332218        -9.0401
  50   2.0000      -0.316854        -8.6220
  51   2.0000      -0.306470        -8.3395
  52   2.0000      -0.291838        -7.9413
  53   0.0000      -0.116596        -3.1727
  54   0.0000      -0.043908        -1.1948
  55   0.0000      -0.001693        -0.0461
  56   0.0000       0.011698         0.3183
  57   0.0000       0.023246         0.6326

MULLIKEN ATOMIC CHARGES
-----------------------
   0 C :   -0.207688
   1 C :   -0.216008
   2 C :   -0.213252
   3 C :   -0.211314
   4 C :   -0.280005
   5 C :   -0.206417
   6 H :    0.252061
   7 H :    0.236414
   8 H :    0.236933
   9 H :    0.262327
  10 H :    0.235834
  11 Pd:    0.595785
  12 O :   -0.435234
  13 O :   -0.476706
  14 O :   -0.455870
  15 C :    0.367713
  16 O :   -0.507315
  17 H :    0.217963
  18 C :    0.394321
  19 H :    0.200492
  20 H :    0.209966
Sum of atomic charges:    0.0000000

LOEWDIN ATOMIC CHARGES
----------------------
   0 C :   -0.099106
   1 C :   -0.136977
   2 C :   -0.107313
   3 C :   -0.131793
   4 C :   -0.107319
   5 C :   -0.090098
   6 H :    0.154120
   7 H :    0.144645
   8 H :    0.143247
   9 H :    0.159375
  10 H :    0.145363
  11 Pd:   -0.104359
  12 O :   -0.167640
  13 O :   -0.150910
  14 O :   -0.110481
  15 C :    0.168491
  16 O :   -0.320172
  17 H :    0.219930
  18 C :    0.149789
  19 H :    0.118431
  20 H :    0.122777

  Mayer bond orders larger than 0.100000
B(  0-C ,  1-C ) :   1.4369 B(  0-C ,  4-C ) :   1.3020 B(  0-C ,  6-H ) :   0.9029
B(  1-C ,  2-C ) :   1.4075 B(  1-C ,  7-H ) :   0.9126 B(  2-C ,  3-C ) :   1.4138
B(  2-C ,  8-H ) :   0.9129 B(  3-C ,  5-C ) :   1.4305 B(  3-C , 10-H ) :   0.9126
B(  4-C ,  5-C ) :   1.3459 B(  4-C , 11-Pd) :   0.2144 B(  4-C , 17-H ) :   0.7905
B(  5-C ,  9-H ) :   0.8995 B( 11-Pd, 12-O ) :   0.4443 B( 11-Pd, 13-O ) :   0.5998
B( 11-Pd, 14-O ) :   0.6037 B( 11-Pd, 16-O ) :   0.2343 B( 12-O , 13-O ) :   0.1122
B( 12-O , 18-C ) :   1.6002 B( 13-O , 18-C ) :   1.3919 B( 14-O , 15-C ) :   1.4053
B( 14-O , 16-O ) :   0.1072 B( 15-C , 16-O ) :   1.6052 B( 15-C , 20-H ) :   0.8794
B( 18-C , 19-H ) :   0.8815

Dispersion correction           -0.013923744
FINAL SINGLE POINT ENERGY      -736.982187137776
Dispersion correction            ... done

DIPOLE MOMENT
-------------
                                X             Y             Z
Electronic contribution:     49.95176      40.54145       0.98462
Nuclear contribution   :    -50.85529     -41.41587      -1.44718
                        -----------------------------------------
Total Dipole Moment    :     -0.90353      -0.87442      -0.46256
                        -----------------------------------------
Magnitude (a.u.)       :      1.33976
Magnitude (Debye)      :      3.40540

Rotational constants in cm-1:     0.028552     0.018045     0.013506
Rotational constants in MHz :   855.959670   540.989783   404.904974

                             ****ORCA TERMINATED NORMALLY****
TOTAL RUN TIME: 0 days 0 hours 4 minutes 6 seconds 527 msec
