                         Program Version 5.0.3 -  RELEASE  -
|  1> ! EnGrad PBEh-3c
|  2> %output
|  3> xyzfile=True
|  4> end
|  5> %scf
|  6> maxiter 250
|  7> end
|  8> %output
|  9> Print[P_Hirshfeld] = 1
| 10> end
| 11> % maxcore
| 12> 4000
| 13> *xyz 0 1
| 14> C   -1.61425450   0.19716215  -0.37683095
| 15> C   -2.00544628  -0.83568322  -1.25142004
| 16> C   -1.60973192  -2.15865765  -1.00387533
| 17> C   -0.72579409  -2.38321802   0.05592172
| 18> C   -0.85885774  -0.01213425   0.80918931
| 19> C   -0.35742738  -1.32798262   0.90658453
| 20> H   -1.92998815   1.19778597  -0.68168474
| 21> H   -2.66199404  -0.64728434  -2.09739852
| 22> H   -2.00399774  -2.99392941  -1.61316484
| 23> H    0.34894372  -1.59287383   1.68996504
| 24> H   -0.38372043  -3.40449748   0.22498908
| 25> Pd   1.33807800   1.08081161   0.04622923
| 26> O    3.15004317   1.25993557  -1.35096133
| 27> O    2.57085163  -0.48306238  -0.18594893
| 28> O    0.38358343   2.78333619   0.11479417
| 29> C    0.04959044   2.96897569   1.22817612
| 30> O    0.45505306   2.14138209   2.24283959
| 31> H   -1.07643585   0.82384974   2.10910842
| 32> C    3.35148954   0.08887775  -0.99449340
| 33> H    4.21894993  -0.47478920  -1.41339065
| 34> H   -0.64841781   3.76034083   1.52782390
| 35> *
| 36>
| 37>                          ****END OF INPUT****

CARTESIAN COORDINATES (ANGSTROEM)
---------------------------------
  C     -1.614254    0.197162   -0.376831
  C     -2.005446   -0.835683   -1.251420
  C     -1.609732   -2.158658   -1.003875
  C     -0.725794   -2.383218    0.055922
  C     -0.858858   -0.012134    0.809189
  C     -0.357427   -1.327983    0.906585
  H     -1.929988    1.197786   -0.681685
  H     -2.661994   -0.647284   -2.097399
  H     -2.003998   -2.993929   -1.613165
  H      0.348944   -1.592874    1.689965
  H     -0.383720   -3.404497    0.224989
  Pd     1.338078    1.080812    0.046229
  O      3.150043    1.259936   -1.350961
  O      2.570852   -0.483062   -0.185949
  O      0.383583    2.783336    0.114794
  C      0.049590    2.968976    1.228176
  O      0.455053    2.141382    2.242840
  H     -1.076436    0.823850    2.109108
  C      3.351490    0.088878   -0.994493
  H      4.218950   -0.474789   -1.413391
  H     -0.648418    3.760341    1.527824

 Total Charge           Charge          ....    0
 Multiplicity           Mult            ....    1
 Number of Electrons    NEL             ....  106
 Basis Dimension        Dim             ....  227

ORBITAL ENERGIES
----------------

  NO   OCC          E(Eh)            E(eV)
   0   2.0000     -19.549531      -531.9698
   1   2.0000     -19.532074      -531.4948
   2   2.0000     -19.516561      -531.0726
   3   2.0000     -19.464300      -529.6505
   4   2.0000     -10.585427      -288.0441
   5   2.0000     -10.573496      -287.7194
   6   2.0000     -10.503069      -285.8030
   7   2.0000     -10.482861      -285.2532
   8   2.0000     -10.478757      -285.1415
   9   2.0000     -10.477955      -285.1196
  10   2.0000     -10.472172      -284.9623
  11   2.0000     -10.470103      -284.9060
  12   2.0000      -3.697052      -100.6019
  13   2.0000      -2.355618       -64.0996
  14   2.0000      -2.328460       -63.3606
  15   2.0000      -2.310094       -62.8608
  16   2.0000      -1.246747       -33.9257
  17   2.0000      -1.226353       -33.3708
  18   2.0000      -1.114705       -30.3327
  19   2.0000      -1.042722       -28.3739
  20   2.0000      -0.969332       -26.3769
  21   2.0000      -0.852672       -23.2024
  22   2.0000      -0.850223       -23.1357
  23   2.0000      -0.699895       -19.0451
  24   2.0000      -0.694406       -18.8957
  25   2.0000      -0.688962       -18.7476
  26   2.0000      -0.682696       -18.5771
  27   2.0000      -0.598138       -16.2762
  28   2.0000      -0.594778       -16.1847
  29   2.0000      -0.583870       -15.8879
  30   2.0000      -0.559182       -15.2161
  31   2.0000      -0.539509       -14.6808
  32   2.0000      -0.533349       -14.5132
  33   2.0000      -0.531228       -14.4554
  34   2.0000      -0.526180       -14.3181
  35   2.0000      -0.524068       -14.2606
  36   2.0000      -0.490395       -13.3443
  37   2.0000      -0.471753       -12.8370
  38   2.0000      -0.452717       -12.3191
  39   2.0000      -0.428436       -11.6583
  40   2.0000      -0.410540       -11.1714
  41   2.0000      -0.409576       -11.1451
  42   2.0000      -0.401296       -10.9198
  43   2.0000      -0.393753       -10.7146
  44   2.0000      -0.385814       -10.4985
  45   2.0000      -0.378027       -10.2866
  46   2.0000      -0.368352       -10.0234
  47   2.0000      -0.352330        -9.5874
  48   2.0000      -0.341029        -9.2799
  49   2.0000      -0.330940        -9.0053
  50   2.0000      -0.315715        -8.5911
  51   2.0000      -0.307111        -8.3569
  52   2.0000      -0.288963        -7.8631
  53   0.0000      -0.120719        -3.2849
  54   0.0000      -0.026531        -0.7220
  55   0.0000      -0.002864        -0.0779
  56   0.0000       0.028750         0.7823
  57   0.0000       0.035072         0.9544

MULLIKEN ATOMIC CHARGES
-----------------------
   0 C :   -0.190965
   1 C :   -0.217694
   2 C :   -0.214177
   3 C :   -0.212735
   4 C :   -0.361094
   5 C :   -0.187280
   6 H :    0.249792
   7 H :    0.236818
   8 H :    0.238175
   9 H :    0.262929
  10 H :    0.236261
  11 Pd:    0.607382
  12 O :   -0.432620
  13 O :   -0.474123
  14 O :   -0.395264
  15 C :    0.333943
  16 O :   -0.543246
  17 H :    0.270864
  18 C :    0.393485
  19 H :    0.199124
  20 H :    0.200424
Sum of atomic charges:    0.0000000

LOEWDIN ATOMIC CHARGES
----------------------
   0 C :   -0.094159
   1 C :   -0.139176
   2 C :   -0.102582
   3 C :   -0.134037
   4 C :   -0.132076
   5 C :   -0.083806
   6 H :    0.152965
   7 H :    0.144820
   8 H :    0.144024
   9 H :    0.159243
  10 H :    0.145646
  11 Pd:   -0.090528
  12 O :   -0.169131
  13 O :   -0.143686
  14 O :   -0.046293
  15 C :    0.128473
  16 O :   -0.364665
  17 H :    0.242707
  18 C :    0.146748
  19 H :    0.117368
  20 H :    0.118144

  Mayer bond orders larger than 0.100000
B(  0-C ,  1-C ) :   1.4452 B(  0-C ,  4-C ) :   1.2747 B(  0-C ,  6-H ) :   0.9035
B(  1-C ,  2-C ) :   1.4019 B(  1-C ,  7-H ) :   0.9132 B(  2-C ,  3-C ) :   1.4107
B(  2-C ,  8-H ) :   0.9121 B(  3-C ,  5-C ) :   1.4364 B(  3-C , 10-H ) :   0.9132
B(  4-C ,  5-C ) :   1.3224 B(  4-C , 11-Pd) :   0.2184 B(  4-C , 17-H ) :   0.7970
B(  5-C ,  9-H ) :   0.8991 B( 11-Pd, 12-O ) :   0.4350 B( 11-Pd, 13-O ) :   0.6102
B( 11-Pd, 14-O ) :   0.5623 B( 11-Pd, 16-O ) :   0.2429 B( 12-O , 13-O ) :   0.1121
B( 12-O , 18-C ) :   1.6111 B( 13-O , 18-C ) :   1.3858 B( 14-O , 15-C ) :   1.5125
B( 14-O , 16-O ) :   0.1001 B( 15-C , 16-O ) :   1.5530 B( 15-C , 20-H ) :   0.8799
B( 18-C , 19-H ) :   0.8818

Dispersion correction           -0.013959254
FINAL SINGLE POINT ENERGY      -737.006969825865
Dispersion correction            ... done

DIPOLE MOMENT
-------------
                                X             Y             Z
Electronic contribution:     49.35476      39.31412       0.38666
Nuclear contribution   :    -50.24705     -40.25993      -1.09581
                        -----------------------------------------
Total Dipole Moment    :     -0.89229      -0.94580      -0.70914
                        -----------------------------------------
Magnitude (a.u.)       :      1.48108
Magnitude (Debye)      :      3.76460

Rotational constants in cm-1:     0.028803     0.018107     0.013517
Rotational constants in MHz :   863.487455   542.840464   405.230230

                             ****ORCA TERMINATED NORMALLY****
TOTAL RUN TIME: 0 days 0 hours 4 minutes 7 seconds 964 msec
