                         Program Version 5.0.3 -  RELEASE  -
|  1> ! EnGrad PBEh-3c
|  2> %output
|  3> xyzfile=True
|  4> end
|  5> %scf
|  6> maxiter 250
|  7> end
|  8> %output
|  9> Print[P_Hirshfeld] = 1
| 10> end
| 11> % maxcore
| 12> 4000
| 13> *xyz 0 1
| 14> C   -1.59671200   0.20142414  -0.38146781
| 15> C   -2.02779731  -0.83303611  -1.22953935
| 16> C   -1.64734189  -2.16161297  -0.97712253
| 17> C   -0.74943123  -2.38292026   0.07082366
| 18> C   -0.82432100   0.00004600   0.79661901
| 19> C   -0.34967855  -1.32593774   0.89615153
| 20> H   -1.89513490   1.20142383  -0.68998305
| 21> H   -2.68128901  -0.64907340  -2.07693788
| 22> H   -2.04876045  -3.00049440  -1.58207146
| 23> H    0.36294195  -1.58222353   1.67033187
| 24> H   -0.40986130  -3.40211927   0.23827594
| 25> Pd   1.32019968   1.04452860   0.02364201
| 26> O    3.17634248   1.29193581  -1.30389000
| 27> O    2.56749331  -0.48983270  -0.21144598
| 28> O    0.39907387   2.73667909   0.08708372
| 29> C   -0.00219283   2.98312540   1.33205412
| 30> O    0.38610858   2.12766513   2.26059608
| 31> H   -0.93523456   0.80313265   1.93326513
| 32> C    3.35233364   0.10484241  -0.99558024
| 33> H    4.23647810  -0.44513130  -1.38525108
| 34> H   -0.64541727   3.76058138   1.50810198
| 35> *
| 36>
| 37>                          ****END OF INPUT****

CARTESIAN COORDINATES (ANGSTROEM)
---------------------------------
  C     -1.596712    0.201424   -0.381468
  C     -2.027797   -0.833036   -1.229539
  C     -1.647342   -2.161613   -0.977123
  C     -0.749431   -2.382920    0.070824
  C     -0.824321    0.000046    0.796619
  C     -0.349679   -1.325938    0.896152
  H     -1.895135    1.201424   -0.689983
  H     -2.681289   -0.649073   -2.076938
  H     -2.048760   -3.000494   -1.582071
  H      0.362942   -1.582224    1.670332
  H     -0.409861   -3.402119    0.238276
  Pd     1.320200    1.044529    0.023642
  O      3.176342    1.291936   -1.303890
  O      2.567493   -0.489833   -0.211446
  O      0.399074    2.736679    0.087084
  C     -0.002193    2.983125    1.332054
  O      0.386109    2.127665    2.260596
  H     -0.935235    0.803133    1.933265
  C      3.352334    0.104842   -0.995580
  H      4.236478   -0.445131   -1.385251
  H     -0.645417    3.760581    1.508102

 Total Charge           Charge          ....    0
 Multiplicity           Mult            ....    1
 Number of Electrons    NEL             ....  106
 Basis Dimension        Dim             ....  227

ORBITAL ENERGIES
----------------

  NO   OCC          E(Eh)            E(eV)
   0   2.0000     -19.530093      -531.4408
   1   2.0000     -19.523622      -531.2648
   2   2.0000     -19.510140      -530.8979
   3   2.0000     -19.486814      -530.2632
   4   2.0000     -10.581270      -287.9310
   5   2.0000     -10.578680      -287.8605
   6   2.0000     -10.496358      -285.6204
   7   2.0000     -10.483184      -285.2619
   8   2.0000     -10.481560      -285.2178
   9   2.0000     -10.479042      -285.1492
  10   2.0000     -10.472386      -284.9681
  11   2.0000     -10.470065      -284.9050
  12   2.0000      -3.689114      -100.3859
  13   2.0000      -2.346766       -63.8588
  14   2.0000      -2.321477       -63.1706
  15   2.0000      -2.302726       -62.6604
  16   2.0000      -1.221590       -33.2412
  17   2.0000      -1.171307       -31.8729
  18   2.0000      -1.109979       -30.2041
  19   2.0000      -1.064165       -28.9574
  20   2.0000      -0.971685       -26.4409
  21   2.0000      -0.855913       -23.2906
  22   2.0000      -0.852145       -23.1880
  23   2.0000      -0.712133       -19.3781
  24   2.0000      -0.696063       -18.9408
  25   2.0000      -0.693155       -18.8617
  26   2.0000      -0.681572       -18.5465
  27   2.0000      -0.601759       -16.3747
  28   2.0000      -0.583911       -15.8890
  29   2.0000      -0.568675       -15.4744
  30   2.0000      -0.551552       -15.0085
  31   2.0000      -0.536456       -14.5977
  32   2.0000      -0.530354       -14.4317
  33   2.0000      -0.523629       -14.2487
  34   2.0000      -0.520834       -14.1726
  35   2.0000      -0.508700       -13.8424
  36   2.0000      -0.491587       -13.3768
  37   2.0000      -0.469646       -12.7797
  38   2.0000      -0.456687       -12.4271
  39   2.0000      -0.437214       -11.8972
  40   2.0000      -0.418891       -11.3986
  41   2.0000      -0.408992       -11.1292
  42   2.0000      -0.398669       -10.8483
  43   2.0000      -0.389774       -10.6063
  44   2.0000      -0.381255       -10.3745
  45   2.0000      -0.375436       -10.2161
  46   2.0000      -0.366399        -9.9702
  47   2.0000      -0.349488        -9.5100
  48   2.0000      -0.342705        -9.3255
  49   2.0000      -0.332870        -9.0579
  50   2.0000      -0.321476        -8.7478
  51   2.0000      -0.308006        -8.3813
  52   2.0000      -0.299456        -8.1486
  53   0.0000      -0.111522        -3.0347
  54   0.0000      -0.018419        -0.5012
  55   0.0000      -0.003361        -0.0915
  56   0.0000       0.008684         0.2363
  57   0.0000       0.038564         1.0494

MULLIKEN ATOMIC CHARGES
-----------------------
   0 C :   -0.170252
   1 C :   -0.220126
   2 C :   -0.211917
   3 C :   -0.214267
   4 C :   -0.435391
   5 C :   -0.167729
   6 H :    0.255779
   7 H :    0.237045
   8 H :    0.239452
   9 H :    0.263788
  10 H :    0.236495
  11 Pd:    0.627936
  12 O :   -0.432161
  13 O :   -0.485182
  14 O :   -0.514995
  15 C :    0.371175
  16 O :   -0.494551
  17 H :    0.306303
  18 C :    0.390644
  19 H :    0.193655
  20 H :    0.224300
Sum of atomic charges:    0.0000000

LOEWDIN ATOMIC CHARGES
----------------------
   0 C :   -0.082309
   1 C :   -0.139963
   2 C :   -0.096098
   3 C :   -0.135248
   4 C :   -0.144370
   5 C :   -0.074957
   6 H :    0.155909
   7 H :    0.145103
   8 H :    0.144844
   9 H :    0.159161
  10 H :    0.145832
  11 Pd:   -0.101022
  12 O :   -0.170049
  13 O :   -0.150445
  14 O :   -0.164398
  15 C :    0.189704
  16 O :   -0.308120
  17 H :    0.245007
  18 C :    0.142290
  19 H :    0.114106
  20 H :    0.125023

  Mayer bond orders larger than 0.100000
B(  0-C ,  1-C ) :   1.4523 B(  0-C ,  4-C ) :   1.2617 B(  0-C ,  6-H ) :   0.9013
B(  1-C ,  2-C ) :   1.3978 B(  1-C ,  7-H ) :   0.9136 B(  2-C ,  3-C ) :   1.4098
B(  2-C ,  8-H ) :   0.9117 B(  3-C ,  5-C ) :   1.4440 B(  3-C , 10-H ) :   0.9133
B(  4-C ,  5-C ) :   1.3063 B(  4-C , 11-Pd) :   0.2261 B(  4-C , 17-H ) :   0.7973
B(  5-C ,  9-H ) :   0.8992 B( 11-Pd, 12-O ) :   0.4308 B( 11-Pd, 13-O ) :   0.5901
B( 11-Pd, 14-O ) :   0.6416 B( 11-Pd, 16-O ) :   0.1570 B( 12-O , 13-O ) :   0.1126
B( 12-O , 18-C ) :   1.6145 B( 13-O , 18-C ) :   1.3918 B( 14-O , 15-C ) :   1.3065
B( 14-O , 16-O ) :   0.1081 B( 15-C , 16-O ) :   1.6947 B( 15-C , 20-H ) :   0.8786
B( 18-C , 19-H ) :   0.8835

Dispersion correction           -0.013729778
FINAL SINGLE POINT ENERGY      -737.051771899363
Dispersion correction            ... done

DIPOLE MOMENT
-------------
                                X             Y             Z
Electronic contribution:     48.58504      37.71956      -0.56223
Nuclear contribution   :    -49.62583     -38.65320       0.13584
                        -----------------------------------------
Total Dipole Moment    :     -1.04079      -0.93364      -0.42640
                        -----------------------------------------
Magnitude (a.u.)       :      1.46176
Magnitude (Debye)      :      3.71549

Rotational constants in cm-1:     0.028815     0.018227     0.013534
Rotational constants in MHz :   863.858011   546.426350   405.751107

                             ****ORCA TERMINATED NORMALLY****
TOTAL RUN TIME: 0 days 0 hours 4 minutes 33 seconds 183 msec
