                         Program Version 5.0.3 -  RELEASE  -
|  1> ! EnGrad PBEh-3c
|  2> %output
|  3> xyzfile=True
|  4> end
|  5> %scf
|  6> maxiter 250
|  7> end
|  8> %output
|  9> Print[P_Hirshfeld] = 1
| 10> end
| 11> % maxcore
| 12> 4000
| 13> *xyz 1 1
| 14> Sc   1.19520182  -0.78000393  -1.86028093
| 15> C    0.28926429  -0.50123774   0.20941137
| 16> N   -0.45928212  -1.34712121   0.93592510
| 17> C   -0.70039084  -0.83319560   2.17651524
| 18> C   -0.05228177   0.34985077   2.23978607
| 19> N    0.53118663   0.54508290   1.02424589
| 20> C    1.35562577   1.69661857   0.71950827
| 21> H    1.24957967   2.52407471   1.41608169
| 22> H    1.06213473   2.10024806  -0.24686117
| 23> H    2.40800408   1.42356073   0.69412187
| 24> C   -0.96475903  -2.64470974   0.52395224
| 25> H   -0.71277487  -2.82655778  -0.51717580
| 26> H   -2.04710666  -2.66622858   0.63205912
| 27> H   -0.52738871  -3.43396738   1.13091792
| 28> H   -1.28880793  -1.33711605   2.92434920
| 29> H    0.01193239   1.03630982   3.06618732
| 30> C   -0.02929765   1.62775511  -2.89820218
| 31> H   -0.60110745   1.60649890  -3.83616378
| 32> H    0.62412112   2.49960207  -3.02592662
| 33> H   -0.73488614   1.87589753  -2.09752000
| 34> H   -0.60894155  -0.91535273  -3.21093505
| 35> *
| 36>
| 37>                          ****END OF INPUT****

CARTESIAN COORDINATES (ANGSTROEM)
---------------------------------
  Sc     1.195202   -0.780004   -1.860281
  C      0.289264   -0.501238    0.209411
  N     -0.459282   -1.347121    0.935925
  C     -0.700391   -0.833196    2.176515
  C     -0.052282    0.349851    2.239786
  N      0.531187    0.545083    1.024246
  C      1.355626    1.696619    0.719508
  H      1.249580    2.524075    1.416082
  H      1.062135    2.100248   -0.246861
  H      2.408004    1.423561    0.694122
  C     -0.964759   -2.644710    0.523952
  H     -0.712775   -2.826558   -0.517176
  H     -2.047107   -2.666229    0.632059
  H     -0.527389   -3.433967    1.130918
  H     -1.288808   -1.337116    2.924349
  H      0.011932    1.036310    3.066187
  C     -0.029298    1.627755   -2.898202
  H     -0.601107    1.606499   -3.836164
  H      0.624121    2.499602   -3.025927
  H     -0.734886    1.875898   -2.097520
  H     -0.608942   -0.915353   -3.210935

 Total Charge           Charge          ....    1
 Multiplicity           Mult            ....    1
 Number of Electrons    NEL             ....   82
 Basis Dimension        Dim             ....  175

ORBITAL ENERGIES
----------------

  NO   OCC          E(Eh)            E(eV)
   0   2.0000    -162.914949     -4433.1411
   1   2.0000     -18.219426      -495.7758
   2   2.0000     -15.059155      -409.7805
   3   2.0000     -15.053698      -409.6319
   4   2.0000     -15.052772      -409.6068
   5   2.0000     -14.875945      -404.7950
   6   2.0000     -14.874940      -404.7677
   7   2.0000     -10.654910      -289.9349
   8   2.0000     -10.635832      -289.4157
   9   2.0000     -10.633456      -289.3510
  10   2.0000     -10.631467      -289.2969
  11   2.0000     -10.627793      -289.1970
  12   2.0000     -10.522081      -286.3204
  13   2.0000      -2.423962       -65.9594
  14   2.0000      -1.574765       -42.8515
  15   2.0000      -1.564169       -42.5632
  16   2.0000      -1.556903       -42.3655
  17   2.0000      -1.324330       -36.0369
  18   2.0000      -1.201365       -32.6908
  19   2.0000      -1.034728       -28.1564
  20   2.0000      -0.992939       -27.0192
  21   2.0000      -0.937051       -25.4984
  22   2.0000      -0.854472       -23.2514
  23   2.0000      -0.822462       -22.3803
  24   2.0000      -0.815430       -22.1890
  25   2.0000      -0.762483       -20.7482
  26   2.0000      -0.714651       -19.4466
  27   2.0000      -0.684795       -18.6342
  28   2.0000      -0.670126       -18.2351
  29   2.0000      -0.667303       -18.1582
  30   2.0000      -0.659339       -17.9415
  31   2.0000      -0.612093       -16.6559
  32   2.0000      -0.604405       -16.4467
  33   2.0000      -0.599989       -16.3265
  34   2.0000      -0.532913       -14.5013
  35   2.0000      -0.519369       -14.1328
  36   2.0000      -0.510361       -13.8876
  37   2.0000      -0.497455       -13.5364
  38   2.0000      -0.444205       -12.0874
  39   2.0000      -0.400336       -10.8937
  40   2.0000      -0.345497        -9.4014
  41   0.0000      -0.199890        -5.4393
  42   0.0000      -0.190715        -5.1896
  43   0.0000      -0.181237        -4.9317
  44   0.0000      -0.179123        -4.8742
  45   0.0000      -0.167724        -4.5640

MULLIKEN ATOMIC CHARGES
-----------------------
   0 Sc:    0.781703
   1 C :    0.207022
   2 N :   -0.416979
   3 C :   -0.067131
   4 C :   -0.058801
   5 N :   -0.414309
   6 C :   -0.560884
   7 H :    0.294747
   8 H :    0.302512
   9 H :    0.252979
  10 C :   -0.522129
  11 H :    0.252079
  12 H :    0.292329
  13 H :    0.275698
  14 H :    0.308101
  15 H :    0.308942
  16 C :   -0.840596
  17 H :    0.247775
  18 H :    0.204917
  19 H :    0.202901
  20 H :   -0.050877
Sum of atomic charges:    1.0000000

LOEWDIN ATOMIC CHARGES
----------------------
   0 Sc:    0.558772
   1 C :   -0.030945
   2 N :    0.011097
   3 C :   -0.082056
   4 C :   -0.073780
   5 N :    0.009793
   6 C :   -0.248848
   7 H :    0.165514
   8 H :    0.167191
   9 H :    0.141949
  10 C :   -0.231369
  11 H :    0.148613
  12 H :    0.163210
  13 H :    0.152861
  14 H :    0.170599
  15 H :    0.170693
  16 C :   -0.545946
  17 H :    0.141900
  18 H :    0.118293
  19 H :    0.119621
  20 H :   -0.027158

  Mayer bond orders larger than 0.100000
B(  0-Sc,  1-C ) :   0.6620 B(  0-Sc, 16-C ) :   0.9436 B(  0-Sc, 20-H ) :   0.9719
B(  1-C ,  2-N ) :   1.2357 B(  1-C ,  5-N ) :   1.2271 B(  2-N ,  3-C ) :   1.1614
B(  2-N , 10-C ) :   0.9101 B(  3-C ,  4-C ) :   1.6247 B(  3-C , 14-H ) :   0.8756
B(  4-C ,  5-N ) :   1.1565 B(  4-C , 15-H ) :   0.8755 B(  5-N ,  6-C ) :   0.9042
B(  6-C ,  7-H ) :   0.8982 B(  6-C ,  8-H ) :   0.8732 B(  6-C ,  9-H ) :   0.9021
B( 10-C , 11-H ) :   0.9057 B( 10-C , 12-H ) :   0.8913 B( 10-C , 13-H ) :   0.8924
B( 16-C , 17-H ) :   0.9204 B( 16-C , 18-H ) :   0.9181 B( 16-C , 19-H ) :   0.9217

Dispersion correction           -0.011196417
FINAL SINGLE POINT ENERGY     -1104.365377864211
Dispersion correction            ... done

DIPOLE MOMENT
-------------
                                X             Y             Z
Electronic contribution:      9.10422      -7.79730      -2.38735
Nuclear contribution   :     -7.22433       6.52040       3.53815
                        -----------------------------------------
Total Dipole Moment    :      1.87989      -1.27690       1.15080
                        -----------------------------------------
Magnitude (a.u.)       :      2.54731
Magnitude (Debye)      :      6.47475

Rotational constants in cm-1:     0.050655     0.029305     0.021777
Rotational constants in MHz :  1518.589059   878.533683   652.846762

                             ****ORCA TERMINATED NORMALLY****
TOTAL RUN TIME: 0 days 0 hours 2 minutes 23 seconds 962 msec
