                         Program Version 5.0.3 -  RELEASE  -
|  1> ! EnGrad PBEh-3c
|  2> %output
|  3> xyzfile=True
|  4> end
|  5> %scf
|  6> maxiter 250
|  7> end
|  8> %output
|  9> Print[P_Hirshfeld] = 1
| 10> end
| 11> % maxcore
| 12> 4000
| 13> *xyz 1 1
| 14> Sc   1.20986571  -0.38320846  -1.92454942
| 15> C    0.41254472  -0.62560233   0.25264384
| 16> N   -0.45467445  -1.37343644   0.95249259
| 17> C   -0.80423739  -0.75112359   2.11396888
| 18> C   -0.14809851   0.42343299   2.14831155
| 19> N    0.59879439   0.47638282   1.00991884
| 20> C    1.42591580   1.59450578   0.60454392
| 21> H    1.50598355   2.29159922   1.43570493
| 22> H    0.99928558   2.13615426  -0.23532638
| 23> H    2.43503746   1.26536786   0.36431057
| 24> C   -0.97355848  -2.66558759   0.55207689
| 25> H   -0.57202445  -2.94620752  -0.41520335
| 26> H   -2.05712204  -2.62523096   0.47554739
| 27> H   -0.69058480  -3.42041689   1.28190923
| 28> H   -1.48010947  -1.18734702   2.81998149
| 29> H   -0.13861626   1.20369421   2.88471300
| 30> C   -0.19622245   1.49494301  -2.72600703
| 31> H   -0.80559990   1.45986294  -3.64496536
| 32> H    0.38405205   2.40537658  -2.82367252
| 33> H   -0.90412217   1.61969251  -1.90513949
| 34> H    0.26085514  -0.38424192  -3.21971267
| 35> *
| 36>
| 37>                          ****END OF INPUT****

CARTESIAN COORDINATES (ANGSTROEM)
---------------------------------
  Sc     1.209866   -0.383208   -1.924549
  C      0.412545   -0.625602    0.252644
  N     -0.454674   -1.373436    0.952493
  C     -0.804237   -0.751124    2.113969
  C     -0.148099    0.423433    2.148312
  N      0.598794    0.476383    1.009919
  C      1.425916    1.594506    0.604544
  H      1.505984    2.291599    1.435705
  H      0.999286    2.136154   -0.235326
  H      2.435037    1.265368    0.364311
  C     -0.973558   -2.665588    0.552077
  H     -0.572024   -2.946208   -0.415203
  H     -2.057122   -2.625231    0.475547
  H     -0.690585   -3.420417    1.281909
  H     -1.480109   -1.187347    2.819981
  H     -0.138616    1.203694    2.884713
  C     -0.196222    1.494943   -2.726007
  H     -0.805600    1.459863   -3.644965
  H      0.384052    2.405377   -2.823673
  H     -0.904122    1.619693   -1.905139
  H      0.260855   -0.384242   -3.219713

 Total Charge           Charge          ....    1
 Multiplicity           Mult            ....    1
 Number of Electrons    NEL             ....   82
 Basis Dimension        Dim             ....  175

ORBITAL ENERGIES
----------------

  NO   OCC          E(Eh)            E(eV)
   0   2.0000    -162.848031     -4431.3202
   1   2.0000     -18.155301      -494.0309
   2   2.0000     -14.996182      -408.0668
   3   2.0000     -14.990079      -407.9008
   4   2.0000     -14.986236      -407.7962
   5   2.0000     -14.868144      -404.5828
   6   2.0000     -14.867215      -404.5575
   7   2.0000     -10.645051      -289.6666
   8   2.0000     -10.636200      -289.4257
   9   2.0000     -10.631240      -289.2907
  10   2.0000     -10.627546      -289.1902
  11   2.0000     -10.622707      -289.0586
  12   2.0000     -10.514088      -286.1029
  13   2.0000      -2.378322       -64.7174
  14   2.0000      -1.533928       -41.7403
  15   2.0000      -1.521690       -41.4073
  16   2.0000      -1.516409       -41.2636
  17   2.0000      -1.318805       -35.8865
  18   2.0000      -1.196358       -32.5545
  19   2.0000      -1.033954       -28.1353
  20   2.0000      -0.987324       -26.8664
  21   2.0000      -0.936247       -25.4766
  22   2.0000      -0.849732       -23.1224
  23   2.0000      -0.834111       -22.6973
  24   2.0000      -0.811661       -22.0864
  25   2.0000      -0.758401       -20.6371
  26   2.0000      -0.711459       -19.3598
  27   2.0000      -0.682304       -18.5664
  28   2.0000      -0.666928       -18.1480
  29   2.0000      -0.664475       -18.0813
  30   2.0000      -0.657015       -17.8783
  31   2.0000      -0.613759       -16.7012
  32   2.0000      -0.604035       -16.4366
  33   2.0000      -0.599728       -16.3194
  34   2.0000      -0.534794       -14.5525
  35   2.0000      -0.527277       -14.3479
  36   2.0000      -0.517266       -14.0755
  37   2.0000      -0.493438       -13.4271
  38   2.0000      -0.459652       -12.5078
  39   2.0000      -0.438770       -11.9395
  40   2.0000      -0.354580        -9.6486
  41   0.0000      -0.182767        -4.9733
  42   0.0000      -0.168753        -4.5920
  43   0.0000      -0.151851        -4.1321
  44   0.0000      -0.144743        -3.9386
  45   0.0000      -0.133951        -3.6450

MULLIKEN ATOMIC CHARGES
-----------------------
   0 Sc:    0.715224
   1 C :    0.183362
   2 N :   -0.417163
   3 C :   -0.066430
   4 C :   -0.062554
   5 N :   -0.398056
   6 C :   -0.568845
   7 H :    0.299302
   8 H :    0.302444
   9 H :    0.246436
  10 C :   -0.514291
  11 H :    0.244713
  12 H :    0.280690
  13 H :    0.276642
  14 H :    0.303849
  15 H :    0.303721
  16 C :   -0.908364
  17 H :    0.259529
  18 H :    0.215998
  19 H :    0.212407
  20 H :    0.091384
Sum of atomic charges:    1.0000000

LOEWDIN ATOMIC CHARGES
----------------------
   0 Sc:    0.498158
   1 C :   -0.041832
   2 N :    0.006876
   3 C :   -0.082294
   4 C :   -0.078641
   5 N :    0.001127
   6 C :   -0.240682
   7 H :    0.166404
   8 H :    0.165085
   9 H :    0.143594
  10 C :   -0.232949
  11 H :    0.145717
  12 H :    0.156469
  13 H :    0.154256
  14 H :    0.168271
  15 H :    0.167958
  16 C :   -0.562027
  17 H :    0.146649
  18 H :    0.128064
  19 H :    0.130330
  20 H :    0.059464

  Mayer bond orders larger than 0.100000
B(  0-Sc,  1-C ) :   0.6212 B(  0-Sc, 16-C ) :   0.8983 B(  0-Sc, 20-H ) :   0.9167
B(  1-C ,  2-N ) :   1.2503 B(  1-C ,  5-N ) :   1.2231 B(  2-N ,  3-C ) :   1.1594
B(  2-N , 10-C ) :   0.9140 B(  3-C ,  4-C ) :   1.6392 B(  3-C , 14-H ) :   0.8780
B(  4-C ,  5-N ) :   1.1418 B(  4-C , 15-H ) :   0.8773 B(  5-N ,  6-C ) :   0.9089
B(  6-C ,  7-H ) :   0.8982 B(  6-C ,  8-H ) :   0.8647 B(  6-C ,  9-H ) :   0.8990
B( 10-C , 11-H ) :   0.9168 B( 10-C , 12-H ) :   0.8945 B( 10-C , 13-H ) :   0.8958
B( 16-C , 17-H ) :   0.9162 B( 16-C , 18-H ) :   0.9094 B( 16-C , 19-H ) :   0.9069

Dispersion correction           -0.011155777
FINAL SINGLE POINT ENERGY     -1104.418935252713
Dispersion correction            ... done

DIPOLE MOMENT
-------------
                                X             Y             Z
Electronic contribution:      8.72174      -5.49083      -3.29662
Nuclear contribution   :     -7.14622       4.61675       3.96541
                        -----------------------------------------
Total Dipole Moment    :      1.57552      -0.87408       0.66879
                        -----------------------------------------
Magnitude (a.u.)       :      1.92186
Magnitude (Debye)      :      4.88499

Rotational constants in cm-1:     0.056078     0.029149     0.022667
Rotational constants in MHz :  1681.181957   873.854014   679.528844

                             ****ORCA TERMINATED NORMALLY****
TOTAL RUN TIME: 0 days 0 hours 1 minutes 59 seconds 821 msec
