                         Program Version 5.0.3 -  RELEASE  -
|  1> ! EnGrad PBEh-3c
|  2> %output
|  3> xyzfile=True
|  4> end
|  5> %scf
|  6> maxiter 250
|  7> end
|  8> %output
|  9> Print[P_Hirshfeld] = 1
| 10> end
| 11> % maxcore
| 12> 4000
| 13> *xyz 1 1
| 14> Sc   1.08427648  -0.72715276  -1.95733432
| 15> C    0.33232120  -0.52528859   0.20773445
| 16> N   -0.46610726  -1.34448096   0.94233398
| 17> C   -0.71588991  -0.82500107   2.17827582
| 18> C   -0.08524856   0.35958008   2.23525669
| 19> N    0.53840334   0.53998191   1.04763180
| 20> C    1.38221750   1.69279455   0.65953064
| 21> H    1.28927018   2.47630591   1.43954071
| 22> H    1.05426426   2.10287675  -0.25035997
| 23> H    2.42220745   1.39736566   0.64419941
| 24> C   -0.96247579  -2.64501695   0.52392477
| 25> H   -0.69262931  -2.85161627  -0.50320316
| 26> H   -2.04855720  -2.66347472   0.60068100
| 27> H   -0.55316059  -3.43164743   1.16439756
| 28> H   -1.32193686  -1.31499935   2.90693270
| 29> H   -0.01588957   1.06838675   3.03367815
| 30> C   -0.03601600   1.64648823  -2.85974250
| 31> H   -0.63788325   1.57775341  -3.79909841
| 32> H    0.57790948   2.51535206  -2.98736232
| 33> H   -0.75571022   1.82668720  -2.07204032
| 34> H   -0.38946526  -0.87384217  -3.15476103
| 35> *
| 36>
| 37>                          ****END OF INPUT****

CARTESIAN COORDINATES (ANGSTROEM)
---------------------------------
  Sc     1.084276   -0.727153   -1.957334
  C      0.332321   -0.525289    0.207734
  N     -0.466107   -1.344481    0.942334
  C     -0.715890   -0.825001    2.178276
  C     -0.085249    0.359580    2.235257
  N      0.538403    0.539982    1.047632
  C      1.382218    1.692795    0.659531
  H      1.289270    2.476306    1.439541
  H      1.054264    2.102877   -0.250360
  H      2.422207    1.397366    0.644199
  C     -0.962476   -2.645017    0.523925
  H     -0.692629   -2.851616   -0.503203
  H     -2.048557   -2.663475    0.600681
  H     -0.553161   -3.431647    1.164398
  H     -1.321937   -1.314999    2.906933
  H     -0.015890    1.068387    3.033678
  C     -0.036016    1.646488   -2.859742
  H     -0.637883    1.577753   -3.799098
  H      0.577909    2.515352   -2.987362
  H     -0.755710    1.826687   -2.072040
  H     -0.389465   -0.873842   -3.154761

 Total Charge           Charge          ....    1
 Multiplicity           Mult            ....    1
 Number of Electrons    NEL             ....   82
 Basis Dimension        Dim             ....  175

ORBITAL ENERGIES
----------------

  NO   OCC          E(Eh)            E(eV)
   0   2.0000    -162.909960     -4433.0054
   1   2.0000     -18.216912      -495.7074
   2   2.0000     -15.056136      -409.6983
   3   2.0000     -15.051569      -409.5740
   4   2.0000     -15.050076      -409.5334
   5   2.0000     -14.874997      -404.7692
   6   2.0000     -14.871835      -404.6832
   7   2.0000     -10.655903      -289.9619
   8   2.0000     -10.634612      -289.3825
   9   2.0000     -10.631435      -289.2961
  10   2.0000     -10.631292      -289.2922
  11   2.0000     -10.626782      -289.1694
  12   2.0000     -10.517015      -286.1825
  13   2.0000      -2.421864       -65.9023
  14   2.0000      -1.572411       -42.7875
  15   2.0000      -1.562157       -42.5085
  16   2.0000      -1.555317       -42.3223
  17   2.0000      -1.316354       -35.8198
  18   2.0000      -1.193055       -32.4647
  19   2.0000      -1.033364       -28.1193
  20   2.0000      -0.985957       -26.8293
  21   2.0000      -0.937447       -25.5092
  22   2.0000      -0.847234       -23.0544
  23   2.0000      -0.825158       -22.4537
  24   2.0000      -0.815219       -22.1832
  25   2.0000      -0.759934       -20.6788
  26   2.0000      -0.709852       -19.3161
  27   2.0000      -0.680159       -18.5081
  28   2.0000      -0.666927       -18.1480
  29   2.0000      -0.665174       -18.1003
  30   2.0000      -0.655414       -17.8347
  31   2.0000      -0.613295       -16.6886
  32   2.0000      -0.604176       -16.4405
  33   2.0000      -0.600630       -16.3440
  34   2.0000      -0.536576       -14.6010
  35   2.0000      -0.527553       -14.3555
  36   2.0000      -0.510825       -13.9003
  37   2.0000      -0.496785       -13.5182
  38   2.0000      -0.441769       -12.0211
  39   2.0000      -0.430012       -11.7012
  40   2.0000      -0.358449        -9.7539
  41   0.0000      -0.194400        -5.2899
  42   0.0000      -0.190916        -5.1951
  43   0.0000      -0.179282        -4.8785
  44   0.0000      -0.169823        -4.6211
  45   0.0000      -0.165612        -4.5065

MULLIKEN ATOMIC CHARGES
-----------------------
   0 Sc:    0.738316
   1 C :    0.189672
   2 N :   -0.418909
   3 C :   -0.060929
   4 C :   -0.051896
   5 N :   -0.428427
   6 C :   -0.543132
   7 H :    0.279943
   8 H :    0.311361
   9 H :    0.257167
  10 C :   -0.520090
  11 H :    0.246121
  12 H :    0.289781
  13 H :    0.276590
  14 H :    0.307906
  15 H :    0.305648
  16 C :   -0.864026
  17 H :    0.241889
  18 H :    0.218397
  19 H :    0.207861
  20 H :    0.016758
Sum of atomic charges:    1.0000000

LOEWDIN ATOMIC CHARGES
----------------------
   0 Sc:    0.551958
   1 C :   -0.033830
   2 N :    0.008483
   3 C :   -0.083807
   4 C :   -0.071626
   5 N :    0.001932
   6 C :   -0.238307
   7 H :    0.162158
   8 H :    0.165287
   9 H :    0.145057
  10 C :   -0.232400
  11 H :    0.144823
  12 H :    0.161379
  13 H :    0.154063
  14 H :    0.169674
  15 H :    0.168659
  16 C :   -0.561222
  17 H :    0.142733
  18 H :    0.122846
  19 H :    0.121905
  20 H :    0.000233

  Mayer bond orders larger than 0.100000
B(  0-Sc,  1-C ) :   0.6478 B(  0-Sc, 16-C ) :   0.9524 B(  0-Sc, 20-H ) :   0.9832
B(  1-C ,  2-N ) :   1.2336 B(  1-C ,  5-N ) :   1.2215 B(  2-N ,  3-C ) :   1.1618
B(  2-N , 10-C ) :   0.9129 B(  3-C ,  4-C ) :   1.6096 B(  3-C , 14-H ) :   0.8760
B(  4-C ,  5-N ) :   1.1707 B(  4-C , 15-H ) :   0.8778 B(  5-N ,  6-C ) :   0.8934
B(  6-C ,  7-H ) :   0.9071 B(  6-C ,  8-H ) :   0.8680 B(  6-C ,  9-H ) :   0.9023
B( 10-C , 11-H ) :   0.9098 B( 10-C , 12-H ) :   0.8915 B( 10-C , 13-H ) :   0.8931
B( 16-C , 17-H ) :   0.9238 B( 16-C , 18-H ) :   0.9155 B( 16-C , 19-H ) :   0.9171

Dispersion correction           -0.011047070
FINAL SINGLE POINT ENERGY     -1104.404650085665
Dispersion correction            ... done

DIPOLE MOMENT
-------------
                                X             Y             Z
Electronic contribution:      8.26469      -7.52875      -3.15854
Nuclear contribution   :     -6.57672       6.19119       4.11922
                        -----------------------------------------
Total Dipole Moment    :      1.68797      -1.33756       0.96068
                        -----------------------------------------
Magnitude (a.u.)       :      2.35822
Magnitude (Debye)      :      5.99413

Rotational constants in cm-1:     0.051716     0.029159     0.021532
Rotational constants in MHz :  1550.415526   874.164830   645.510900

                             ****ORCA TERMINATED NORMALLY****
TOTAL RUN TIME: 0 days 0 hours 2 minutes 9 seconds 556 msec
