                         Program Version 5.0.3 -  RELEASE  -
|  1> ! EnGrad PBEh-3c
|  2> %output
|  3> xyzfile=True
|  4> end
|  5> %scf
|  6> maxiter 250
|  7> end
|  8> %output
|  9> Print[P_Hirshfeld] = 1
| 10> end
| 11> % maxcore
| 12> 4000
| 13> *xyz 1 1
| 14> Sc   1.03319332  -0.69498443  -2.00425445
| 15> C    0.34723632  -0.53469449   0.22388066
| 16> N   -0.46285550  -1.34350891   0.93793639
| 17> C   -0.72720137  -0.82205641   2.17376671
| 18> C   -0.09730356   0.37064483   2.23226157
| 19> N    0.55064005   0.53362959   1.03444495
| 20> C    1.39035853   1.68432733   0.66426390
| 21> H    1.31446969   2.44669113   1.44276033
| 22> H    1.04465305   2.11024424  -0.26657272
| 23> H    2.43170751   1.38174249   0.61268992
| 24> C   -0.96328113  -2.64639960   0.53002116
| 25> H   -0.67978985  -2.86547170  -0.49681881
| 26> H   -2.04928927  -2.66182218   0.58313949
| 27> H   -0.56853508  -3.42871417   1.18091560
| 28> H   -1.34284881  -1.30454250   2.90038880
| 29> H   -0.03245491   1.08715446   3.01857502
| 30> C   -0.05169263   1.64203397  -2.84795688
| 31> H   -0.65353351   1.56369225  -3.77321568
| 32> H    0.55740806   2.53151235  -2.96676268
| 33> H   -0.76989081   1.80156641  -2.05287538
| 34> H   -0.27098992  -0.84930749  -3.12599099
| 35> *
| 36>
| 37>                          ****END OF INPUT****

CARTESIAN COORDINATES (ANGSTROEM)
---------------------------------
  Sc     1.033193   -0.694984   -2.004254
  C      0.347236   -0.534694    0.223881
  N     -0.462855   -1.343509    0.937936
  C     -0.727201   -0.822056    2.173767
  C     -0.097304    0.370645    2.232262
  N      0.550640    0.533630    1.034445
  C      1.390359    1.684327    0.664264
  H      1.314470    2.446691    1.442760
  H      1.044653    2.110244   -0.266573
  H      2.431708    1.381742    0.612690
  C     -0.963281   -2.646400    0.530021
  H     -0.679790   -2.865472   -0.496819
  H     -2.049289   -2.661822    0.583139
  H     -0.568535   -3.428714    1.180916
  H     -1.342849   -1.304542    2.900389
  H     -0.032455    1.087154    3.018575
  C     -0.051693    1.642034   -2.847957
  H     -0.653534    1.563692   -3.773216
  H      0.557408    2.531512   -2.966763
  H     -0.769891    1.801566   -2.052875
  H     -0.270990   -0.849307   -3.125991

 Total Charge           Charge          ....    1
 Multiplicity           Mult            ....    1
 Number of Electrons    NEL             ....   82
 Basis Dimension        Dim             ....  175

ORBITAL ENERGIES
----------------

  NO   OCC          E(Eh)            E(eV)
   0   2.0000    -162.901559     -4432.7768
   1   2.0000     -18.209773      -495.5131
   2   2.0000     -15.048808      -409.4989
   3   2.0000     -15.044686      -409.3867
   4   2.0000     -15.042551      -409.3286
   5   2.0000     -14.872777      -404.7088
   6   2.0000     -14.869765      -404.6269
   7   2.0000     -10.653522      -289.8971
   8   2.0000     -10.633963      -289.3648
   9   2.0000     -10.631770      -289.3052
  10   2.0000     -10.631121      -289.2875
  11   2.0000     -10.626349      -289.1577
  12   2.0000     -10.515667      -286.1459
  13   2.0000      -2.417960       -65.7960
  14   2.0000      -1.568524       -42.6817
  15   2.0000      -1.558778       -42.4165
  16   2.0000      -1.552938       -42.2576
  17   2.0000      -1.315610       -35.7996
  18   2.0000      -1.192159       -32.4403
  19   2.0000      -1.030664       -28.0458
  20   2.0000      -0.987098       -26.8603
  21   2.0000      -0.933850       -25.4113
  22   2.0000      -0.849131       -23.1060
  23   2.0000      -0.825327       -22.4583
  24   2.0000      -0.811169       -22.0730
  25   2.0000      -0.758210       -20.6320
  26   2.0000      -0.708574       -19.2813
  27   2.0000      -0.681029       -18.5317
  28   2.0000      -0.664754       -18.0889
  29   2.0000      -0.663077       -18.0432
  30   2.0000      -0.656166       -17.8552
  31   2.0000      -0.611559       -16.6414
  32   2.0000      -0.603911       -16.4333
  33   2.0000      -0.599658       -16.3175
  34   2.0000      -0.532559       -14.4917
  35   2.0000      -0.524795       -14.2804
  36   2.0000      -0.514471       -13.9995
  37   2.0000      -0.493970       -13.4416
  38   2.0000      -0.448689       -12.2095
  39   2.0000      -0.441137       -12.0039
  40   2.0000      -0.364985        -9.9317
  41   0.0000      -0.192902        -5.2491
  42   0.0000      -0.186663        -5.0793
  43   0.0000      -0.176360        -4.7990
  44   0.0000      -0.168081        -4.5737
  45   0.0000      -0.160135        -4.3575

MULLIKEN ATOMIC CHARGES
-----------------------
   0 Sc:    0.711707
   1 C :    0.197574
   2 N :   -0.418092
   3 C :   -0.062460
   4 C :   -0.058525
   5 N :   -0.425167
   6 C :   -0.540912
   7 H :    0.282216
   8 H :    0.304308
   9 H :    0.256272
  10 C :   -0.518014
  11 H :    0.239946
  12 H :    0.289110
  13 H :    0.278623
  14 H :    0.307287
  15 H :    0.305083
  16 C :   -0.877343
  17 H :    0.245987
  18 H :    0.217480
  19 H :    0.207865
  20 H :    0.057055
Sum of atomic charges:    1.0000000

LOEWDIN ATOMIC CHARGES
----------------------
   0 Sc:    0.561457
   1 C :   -0.038931
   2 N :    0.005253
   3 C :   -0.083269
   4 C :   -0.071323
   5 N :   -0.000077
   6 C :   -0.239607
   7 H :    0.160914
   8 H :    0.166419
   9 H :    0.144858
  10 C :   -0.231824
  11 H :    0.142509
  12 H :    0.160443
  13 H :    0.154672
  14 H :    0.169590
  15 H :    0.167741
  16 C :   -0.569956
  17 H :    0.143087
  18 H :    0.124999
  19 H :    0.122801
  20 H :    0.010245

  Mayer bond orders larger than 0.100000
B(  0-Sc,  1-C ) :   0.6447 B(  0-Sc, 16-C ) :   0.9512 B(  0-Sc, 20-H ) :   0.9795
B(  1-C ,  2-N ) :   1.2341 B(  1-C ,  5-N ) :   1.2349 B(  2-N ,  3-C ) :   1.1534
B(  2-N , 10-C ) :   0.9137 B(  3-C ,  4-C ) :   1.6296 B(  3-C , 14-H ) :   0.8759
B(  4-C ,  5-N ) :   1.1526 B(  4-C , 15-H ) :   0.8778 B(  5-N ,  6-C ) :   0.8950
B(  6-C ,  7-H ) :   0.9049 B(  6-C ,  8-H ) :   0.8718 B(  6-C ,  9-H ) :   0.9024
B( 10-C , 11-H ) :   0.9130 B( 10-C , 12-H ) :   0.8913 B( 10-C , 13-H ) :   0.8928
B( 16-C , 17-H ) :   0.9203 B( 16-C , 18-H ) :   0.9174 B( 16-C , 19-H ) :   0.9145

Dispersion correction           -0.011027996
FINAL SINGLE POINT ENERGY     -1104.420420765992
Dispersion correction            ... done

DIPOLE MOMENT
-------------
                                X             Y             Z
Electronic contribution:      7.84250      -7.40488      -3.56285
Nuclear contribution   :     -6.26580       6.02001       4.38550
                        -----------------------------------------
Total Dipole Moment    :      1.57670      -1.38488       0.82265
                        -----------------------------------------
Magnitude (a.u.)       :      2.25402
Magnitude (Debye)      :      5.72927

Rotational constants in cm-1:     0.052240     0.029067     0.021446
Rotational constants in MHz :  1566.109816   871.415579   642.926918

                             ****ORCA TERMINATED NORMALLY****
TOTAL RUN TIME: 0 days 0 hours 2 minutes 11 seconds 114 msec
