                         Program Version 5.0.3 -  RELEASE  -
|  1> ! EnGrad PBEh-3c
|  2> %output
|  3> xyzfile=True
|  4> end
|  5> %scf
|  6> maxiter 250
|  7> end
|  8> %output
|  9> Print[P_Hirshfeld] = 1
| 10> end
| 11> % maxcore
| 12> 4000
| 13> *xyz 1 1
| 14> Sc   1.01346205  -0.66336985  -2.02484989
| 15> C    0.35629050  -0.54159879   0.23437013
| 16> N   -0.45912185  -1.34639366   0.93612124
| 17> C   -0.73520537  -0.81301169   2.16617937
| 18> C   -0.10157149   0.37608921   2.21986092
| 19> N    0.56000704   0.52729935   1.02305104
| 20> C    1.39165218   1.67350596   0.67078528
| 21> H    1.33599616   2.42510134   1.44361377
| 22> H    1.03822570   2.11567493  -0.27560510
| 23> H    2.43824634   1.36890012   0.58478979
| 24> C   -0.96388912  -2.64782779   0.53415451
| 25> H   -0.66862705  -2.87644452  -0.48984243
| 26> H   -2.05060688  -2.65987148   0.56940675
| 27> H   -0.58142009  -3.42559777   1.19330314
| 28> H   -1.36173370  -1.29762001   2.89690315
| 29> H   -0.04640067   1.10476279   3.01000833
| 30> C   -0.06796180   1.63103448  -2.84165527
| 31> H   -0.66578310   1.55367259  -3.75330358
| 32> H    0.54082882   2.54337223  -2.95011028
| 33> H   -0.78380349   1.78271019  -2.03326606
| 34> H   -0.18815092  -0.82802840  -3.11302300
| 35> *
| 36>
| 37>                          ****END OF INPUT****

CARTESIAN COORDINATES (ANGSTROEM)
---------------------------------
  Sc     1.013462   -0.663370   -2.024850
  C      0.356291   -0.541599    0.234370
  N     -0.459122   -1.346394    0.936121
  C     -0.735205   -0.813012    2.166179
  C     -0.101571    0.376089    2.219861
  N      0.560007    0.527299    1.023051
  C      1.391652    1.673506    0.670785
  H      1.335996    2.425101    1.443614
  H      1.038226    2.115675   -0.275605
  H      2.438246    1.368900    0.584790
  C     -0.963889   -2.647828    0.534155
  H     -0.668627   -2.876445   -0.489842
  H     -2.050607   -2.659871    0.569407
  H     -0.581420   -3.425598    1.193303
  H     -1.361734   -1.297620    2.896903
  H     -0.046401    1.104763    3.010008
  C     -0.067962    1.631034   -2.841655
  H     -0.665783    1.553673   -3.753304
  H      0.540829    2.543372   -2.950110
  H     -0.783803    1.782710   -2.033266
  H     -0.188151   -0.828028   -3.113023

 Total Charge           Charge          ....    1
 Multiplicity           Mult            ....    1
 Number of Electrons    NEL             ....   82
 Basis Dimension        Dim             ....  175

ORBITAL ENERGIES
----------------

  NO   OCC          E(Eh)            E(eV)
   0   2.0000    -162.893376     -4432.5541
   1   2.0000     -18.202320      -495.3103
   2   2.0000     -15.041243      -409.2930
   3   2.0000     -15.037382      -409.1880
   4   2.0000     -15.034788      -409.1174
   5   2.0000     -14.871301      -404.6687
   6   2.0000     -14.869018      -404.6065
   7   2.0000     -10.651629      -289.8456
   8   2.0000     -10.633512      -289.3526
   9   2.0000     -10.631501      -289.2979
  10   2.0000     -10.631018      -289.2847
  11   2.0000     -10.626923      -289.1733
  12   2.0000     -10.515446      -286.1398
  13   2.0000      -2.413928       -65.6863
  14   2.0000      -1.564608       -42.5751
  15   2.0000      -1.555474       -42.3266
  16   2.0000      -1.550261       -42.1847
  17   2.0000      -1.317603       -35.8538
  18   2.0000      -1.194069       -32.4923
  19   2.0000      -1.030592       -28.0438
  20   2.0000      -0.988229       -26.8911
  21   2.0000      -0.932460       -25.3735
  22   2.0000      -0.850132       -23.1333
  23   2.0000      -0.824721       -22.4418
  24   2.0000      -0.809792       -22.0356
  25   2.0000      -0.757062       -20.6007
  26   2.0000      -0.709123       -19.2962
  27   2.0000      -0.680783       -18.5250
  28   2.0000      -0.663912       -18.0660
  29   2.0000      -0.661929       -18.0120
  30   2.0000      -0.657387       -17.8884
  31   2.0000      -0.610442       -16.6110
  32   2.0000      -0.605002       -16.4629
  33   2.0000      -0.597455       -16.2576
  34   2.0000      -0.529153       -14.3990
  35   2.0000      -0.520730       -14.1698
  36   2.0000      -0.518047       -14.0968
  37   2.0000      -0.492522       -13.4022
  38   2.0000      -0.458732       -12.4827
  39   2.0000      -0.441291       -12.0081
  40   2.0000      -0.368952       -10.0397
  41   0.0000      -0.192035        -5.2255
  42   0.0000      -0.183157        -4.9840
  43   0.0000      -0.173643        -4.7251
  44   0.0000      -0.166704        -4.5363
  45   0.0000      -0.156058        -4.2466

MULLIKEN ATOMIC CHARGES
-----------------------
   0 Sc:    0.708773
   1 C :    0.201081
   2 N :   -0.417036
   3 C :   -0.063960
   4 C :   -0.063829
   5 N :   -0.415460
   6 C :   -0.543225
   7 H :    0.285775
   8 H :    0.298968
   9 H :    0.254469
  10 C :   -0.516996
  11 H :    0.237094
  12 H :    0.288222
  13 H :    0.279792
  14 H :    0.306289
  15 H :    0.304638
  16 C :   -0.885924
  17 H :    0.251325
  18 H :    0.213905
  19 H :    0.205515
  20 H :    0.070585
Sum of atomic charges:    1.0000000

LOEWDIN ATOMIC CHARGES
----------------------
   0 Sc:    0.569239
   1 C :   -0.041983
   2 N :    0.003607
   3 C :   -0.083656
   4 C :   -0.073811
   5 N :    0.001858
   6 C :   -0.241746
   7 H :    0.160668
   8 H :    0.166698
   9 H :    0.144505
  10 C :   -0.231839
  11 H :    0.141545
  12 H :    0.159847
  13 H :    0.154919
  14 H :    0.170519
  15 H :    0.168760
  16 C :   -0.574956
  17 H :    0.143400
  18 H :    0.125941
  19 H :    0.123162
  20 H :    0.013322

  Mayer bond orders larger than 0.100000
B(  0-Sc,  1-C ) :   0.6433 B(  0-Sc, 16-C ) :   0.9472 B(  0-Sc, 20-H ) :   0.9746
B(  1-C ,  2-N ) :   1.2350 B(  1-C ,  5-N ) :   1.2432 B(  2-N ,  3-C ) :   1.1484
B(  2-N , 10-C ) :   0.9145 B(  3-C ,  4-C ) :   1.6411 B(  3-C , 14-H ) :   0.8762
B(  4-C ,  5-N ) :   1.1432 B(  4-C , 15-H ) :   0.8776 B(  5-N ,  6-C ) :   0.8984
B(  6-C ,  7-H ) :   0.9024 B(  6-C ,  8-H ) :   0.8741 B(  6-C ,  9-H ) :   0.9026
B( 10-C , 11-H ) :   0.9147 B( 10-C , 12-H ) :   0.8914 B( 10-C , 13-H ) :   0.8926
B( 16-C , 17-H ) :   0.9163 B( 16-C , 18-H ) :   0.9192 B( 16-C , 19-H ) :   0.9132

Dispersion correction           -0.011014114
FINAL SINGLE POINT ENERGY     -1104.423685712778
Dispersion correction            ... done

DIPOLE MOMENT
-------------
                                X             Y             Z
Electronic contribution:      7.65381      -7.25905      -3.76702
Nuclear contribution   :     -6.13811       5.86756       4.52110
                        -----------------------------------------
Total Dipole Moment    :      1.51570      -1.39149       0.75407
                        -----------------------------------------
Magnitude (a.u.)       :      2.19139
Magnitude (Debye)      :      5.57008

Rotational constants in cm-1:     0.052729     0.029047     0.021476
Rotational constants in MHz :  1580.781268   870.805291   643.829723

                             ****ORCA TERMINATED NORMALLY****
TOTAL RUN TIME: 0 days 0 hours 2 minutes 9 seconds 329 msec
