                         Program Version 5.0.3 -  RELEASE  -
|  1> ! EnGrad PBEh-3c
|  2> %output
|  3> xyzfile=True
|  4> end
|  5> %scf
|  6> maxiter 250
|  7> end
|  8> %output
|  9> Print[P_Hirshfeld] = 1
| 10> end
| 11> % maxcore
| 12> 4000
| 13> *xyz 1 1
| 14> Sc   0.99290279  -0.61293225  -2.04746259
| 15> C    0.37429106  -0.55691923   0.23680889
| 16> N   -0.45630085  -1.35031681   0.93799662
| 17> C   -0.75088669  -0.80279890   2.15900958
| 18> C   -0.10936079   0.38884380   2.20639548
| 19> N    0.56981063   0.51917586   1.01985208
| 20> C    1.39944235   1.65872253   0.65567107
| 21> H    1.36794572   2.39517099   1.45138328
| 22> H    1.03172072   2.12016773  -0.27860126
| 23> H    2.44446325   1.34982022   0.54288027
| 24> C   -0.96432733  -2.64979605   0.53674384
| 25> H   -0.65161241  -2.89343509  -0.47755761
| 26> H   -2.05269266  -2.65646915   0.54827854
| 27> H   -0.60108920  -3.42184192   1.21367462
| 28> H   -1.38765391  -1.28340758   2.88718081
| 29> H   -0.06790395   1.12824013   2.99115456
| 30> C   -0.08456689   1.62321395  -2.82169434
| 31> H   -0.69081404   1.53723129  -3.73010932
| 32> H    0.50976537   2.55271972  -2.92365041
| 33> H   -0.80408111   1.75194419  -2.00555120
| 34> H   -0.06790391  -0.79402478  -3.10120889
| 35> *
| 36>
| 37>                          ****END OF INPUT****

CARTESIAN COORDINATES (ANGSTROEM)
---------------------------------
  Sc     0.992903   -0.612932   -2.047463
  C      0.374291   -0.556919    0.236809
  N     -0.456301   -1.350317    0.937997
  C     -0.750887   -0.802799    2.159010
  C     -0.109361    0.388844    2.206395
  N      0.569811    0.519176    1.019852
  C      1.399442    1.658723    0.655671
  H      1.367946    2.395171    1.451383
  H      1.031721    2.120168   -0.278601
  H      2.444463    1.349820    0.542880
  C     -0.964327   -2.649796    0.536744
  H     -0.651612   -2.893435   -0.477558
  H     -2.052693   -2.656469    0.548279
  H     -0.601089   -3.421842    1.213675
  H     -1.387654   -1.283408    2.887181
  H     -0.067904    1.128240    2.991155
  C     -0.084567    1.623214   -2.821694
  H     -0.690814    1.537231   -3.730109
  H      0.509765    2.552720   -2.923650
  H     -0.804081    1.751944   -2.005551
  H     -0.067904   -0.794025   -3.101209

 Total Charge           Charge          ....    1
 Multiplicity           Mult            ....    1
 Number of Electrons    NEL             ....   82
 Basis Dimension        Dim             ....  175

ORBITAL ENERGIES
----------------

  NO   OCC          E(Eh)            E(eV)
   0   2.0000    -162.879643     -4432.1804
   1   2.0000     -18.189605      -494.9643
   2   2.0000     -15.028259      -408.9397
   3   2.0000     -15.024867      -408.8474
   4   2.0000     -15.021659      -408.7601
   5   2.0000     -14.870405      -404.6443
   6   2.0000     -14.868331      -404.5878
   7   2.0000     -10.650244      -289.8079
   8   2.0000     -10.633760      -289.3593
   9   2.0000     -10.631255      -289.2912
  10   2.0000     -10.630528      -289.2714
  11   2.0000     -10.627425      -289.1869
  12   2.0000     -10.514990      -286.1274
  13   2.0000      -2.407528       -65.5122
  14   2.0000      -1.558452       -42.4076
  15   2.0000      -1.551221       -42.2109
  16   2.0000      -1.545463       -42.0542
  17   2.0000      -1.316154       -35.8144
  18   2.0000      -1.193650       -32.4809
  19   2.0000      -1.029431       -28.0122
  20   2.0000      -0.986884       -26.8545
  21   2.0000      -0.931599       -25.3501
  22   2.0000      -0.848886       -23.0994
  23   2.0000      -0.824604       -22.4386
  24   2.0000      -0.808616       -22.0035
  25   2.0000      -0.755619       -20.5614
  26   2.0000      -0.708153       -19.2698
  27   2.0000      -0.680347       -18.5132
  28   2.0000      -0.663119       -18.0444
  29   2.0000      -0.661398       -17.9976
  30   2.0000      -0.655716       -17.8429
  31   2.0000      -0.609330       -16.5807
  32   2.0000      -0.604041       -16.4368
  33   2.0000      -0.596175       -16.2227
  34   2.0000      -0.529499       -14.4084
  35   2.0000      -0.520081       -14.1521
  36   2.0000      -0.519455       -14.1351
  37   2.0000      -0.491782       -13.3821
  38   2.0000      -0.469882       -12.7861
  39   2.0000      -0.439457       -11.9582
  40   2.0000      -0.374694       -10.1959
  41   0.0000      -0.191056        -5.1989
  42   0.0000      -0.179130        -4.8744
  43   0.0000      -0.169486        -4.6120
  44   0.0000      -0.164541        -4.4774
  45   0.0000      -0.150879        -4.1056

MULLIKEN ATOMIC CHARGES
-----------------------
   0 Sc:    0.735559
   1 C :    0.198369
   2 N :   -0.416246
   3 C :   -0.065301
   4 C :   -0.064262
   5 N :   -0.410674
   6 C :   -0.543661
   7 H :    0.284297
   8 H :    0.298414
   9 H :    0.254494
  10 C :   -0.516291
  11 H :    0.235086
  12 H :    0.286338
  13 H :    0.280212
  14 H :    0.306036
  15 H :    0.304660
  16 C :   -0.902786
  17 H :    0.252945
  18 H :    0.215571
  19 H :    0.204184
  20 H :    0.063056
Sum of atomic charges:    1.0000000

LOEWDIN ATOMIC CHARGES
----------------------
   0 Sc:    0.580956
   1 C :   -0.044212
   2 N :    0.002514
   3 C :   -0.084060
   4 C :   -0.074990
   5 N :    0.001836
   6 C :   -0.242171
   7 H :    0.160604
   8 H :    0.166117
   9 H :    0.144763
  10 C :   -0.232893
  11 H :    0.140584
  12 H :    0.158796
  13 H :    0.155265
  14 H :    0.170665
  15 H :    0.169023
  16 C :   -0.582617
  17 H :    0.144581
  18 H :    0.128128
  19 H :    0.124359
  20 H :    0.012752

  Mayer bond orders larger than 0.100000
B(  0-Sc,  1-C ) :   0.6380 B(  0-Sc, 16-C ) :   0.9381 B(  0-Sc, 20-H ) :   0.9685
B(  1-C ,  2-N ) :   1.2343 B(  1-C ,  5-N ) :   1.2409 B(  2-N ,  3-C ) :   1.1498
B(  2-N , 10-C ) :   0.9152 B(  3-C ,  4-C ) :   1.6372 B(  3-C , 14-H ) :   0.8763
B(  4-C ,  5-N ) :   1.1449 B(  4-C , 15-H ) :   0.8773 B(  5-N ,  6-C ) :   0.8997
B(  6-C ,  7-H ) :   0.9032 B(  6-C ,  8-H ) :   0.8733 B(  6-C ,  9-H ) :   0.9022
B( 10-C , 11-H ) :   0.9163 B( 10-C , 12-H ) :   0.8918 B( 10-C , 13-H ) :   0.8931
B( 16-C , 17-H ) :   0.9141 B( 16-C , 18-H ) :   0.9185 B( 16-C , 19-H ) :   0.9102

Dispersion correction           -0.011030748
FINAL SINGLE POINT ENERGY     -1104.419854761117
Dispersion correction            ... done

DIPOLE MOMENT
-------------
                                X             Y             Z
Electronic contribution:      7.43828      -6.98700      -4.01462
Nuclear contribution   :     -6.01063       5.60759       4.67745
                        -----------------------------------------
Total Dipole Moment    :      1.42766      -1.37941       0.66283
                        -----------------------------------------
Magnitude (a.u.)       :      2.09293
Magnitude (Debye)      :      5.31979

Rotational constants in cm-1:     0.053428     0.029013     0.021531
Rotational constants in MHz :  1601.716678   869.779000   645.481024

                             ****ORCA TERMINATED NORMALLY****
TOTAL RUN TIME: 0 days 0 hours 2 minutes 7 seconds 420 msec
