                         Program Version 5.0.3 -  RELEASE  -
|  1> ! EnGrad PBEh-3c
|  2> %output
|  3> xyzfile=True
|  4> end
|  5> %scf
|  6> maxiter 250
|  7> end
|  8> %output
|  9> Print[P_Hirshfeld] = 1
| 10> end
| 11> % maxcore
| 12> 4000
| 13> *xyz 1 1
| 14> Sc   1.07990215  -0.51472731  -1.97812472
| 15> C    0.38991711  -0.58458418   0.23434697
| 16> N   -0.44760709  -1.35873008   0.94256133
| 17> C   -0.77612371  -0.77877145   2.14288646
| 18> C   -0.11654113   0.40747938   2.18536605
| 19> N    0.58464855   0.50116820   1.00812876
| 20> C    1.41006932   1.63567582   0.63555095
| 21> H    1.41954493   2.35234767   1.45509401
| 22> H    1.02446733   2.12465371  -0.26979359
| 23> H    2.44332285   1.32019771   0.47348568
| 24> C   -0.96801659  -2.65550124   0.54097601
| 25> H   -0.62242110  -2.91838233  -0.45535956
| 26> H   -2.05585468  -2.64880540   0.51739020
| 27> H   -0.63305894  -3.41546426   1.24204675
| 28> H   -1.42529125  -1.25731028   2.86844688
| 29> H   -0.10106127   1.16040838   2.95769998
| 30> C   -0.11664151   1.60210311  -2.78704092
| 31> H   -0.73619005   1.51553427  -3.70620553
| 32> H    0.45596918   2.54626265  -2.88307231
| 33> H   -0.83789445   1.70597509  -1.95882837
| 34> H    0.03200158  -0.73450137  -3.16420584
| 35> *
| 36>
| 37>                          ****END OF INPUT****

CARTESIAN COORDINATES (ANGSTROEM)
---------------------------------
  Sc     1.079902   -0.514727   -1.978125
  C      0.389917   -0.584584    0.234347
  N     -0.447607   -1.358730    0.942561
  C     -0.776124   -0.778771    2.142886
  C     -0.116541    0.407479    2.185366
  N      0.584649    0.501168    1.008129
  C      1.410069    1.635676    0.635551
  H      1.419545    2.352348    1.455094
  H      1.024467    2.124654   -0.269794
  H      2.443323    1.320198    0.473486
  C     -0.968017   -2.655501    0.540976
  H     -0.622421   -2.918382   -0.455360
  H     -2.055855   -2.648805    0.517390
  H     -0.633059   -3.415464    1.242047
  H     -1.425291   -1.257310    2.868447
  H     -0.101061    1.160408    2.957700
  C     -0.116642    1.602103   -2.787041
  H     -0.736190    1.515534   -3.706206
  H      0.455969    2.546263   -2.883072
  H     -0.837894    1.705975   -1.958828
  H      0.032002   -0.734501   -3.164206

 Total Charge           Charge          ....    1
 Multiplicity           Mult            ....    1
 Number of Electrons    NEL             ....   82
 Basis Dimension        Dim             ....  175

ORBITAL ENERGIES
----------------

  NO   OCC          E(Eh)            E(eV)
   0   2.0000    -162.880749     -4432.2105
   1   2.0000     -18.190265      -494.9823
   2   2.0000     -15.029327      -408.9688
   3   2.0000     -15.025309      -408.8594
   4   2.0000     -15.022445      -408.7815
   5   2.0000     -14.872859      -404.7111
   6   2.0000     -14.872168      -404.6923
   7   2.0000     -10.651487      -289.8417
   8   2.0000     -10.637640      -289.4649
   9   2.0000     -10.635097      -289.3957
  10   2.0000     -10.632868      -289.3350
  11   2.0000     -10.628543      -289.2174
  12   2.0000     -10.517350      -286.1916
  13   2.0000      -2.405270       -65.4507
  14   2.0000      -1.557012       -42.3685
  15   2.0000      -1.547835       -42.1187
  16   2.0000      -1.542017       -41.9604
  17   2.0000      -1.319049       -35.8931
  18   2.0000      -1.196499       -32.5584
  19   2.0000      -1.032357       -28.0919
  20   2.0000      -0.990249       -26.9460
  21   2.0000      -0.934171       -25.4201
  22   2.0000      -0.851985       -23.1837
  23   2.0000      -0.823614       -22.4117
  24   2.0000      -0.811324       -22.0773
  25   2.0000      -0.758310       -20.6347
  26   2.0000      -0.711284       -19.3550
  27   2.0000      -0.683641       -18.6028
  28   2.0000      -0.665241       -18.1021
  29   2.0000      -0.664747       -18.0887
  30   2.0000      -0.657921       -17.9029
  31   2.0000      -0.610834       -16.6216
  32   2.0000      -0.607668       -16.5355
  33   2.0000      -0.599026       -16.3003
  34   2.0000      -0.531459       -14.4617
  35   2.0000      -0.523299       -14.2397
  36   2.0000      -0.518162       -14.0999
  37   2.0000      -0.494289       -13.4503
  38   2.0000      -0.457871       -12.4593
  39   2.0000      -0.442332       -12.0365
  40   2.0000      -0.373321       -10.1586
  41   0.0000      -0.188901        -5.1403
  42   0.0000      -0.181023        -4.9259
  43   0.0000      -0.167886        -4.5684
  44   0.0000      -0.161728        -4.4008
  45   0.0000      -0.149499        -4.0681

MULLIKEN ATOMIC CHARGES
-----------------------
   0 Sc:    0.721798
   1 C :    0.187592
   2 N :   -0.417562
   3 C :   -0.066247
   4 C :   -0.061360
   5 N :   -0.406151
   6 C :   -0.554498
   7 H :    0.290536
   8 H :    0.301692
   9 H :    0.251858
  10 C :   -0.517960
  11 H :    0.243110
  12 H :    0.285469
  13 H :    0.279261
  14 H :    0.307171
  15 H :    0.307449
  16 C :   -0.894547
  17 H :    0.253383
  18 H :    0.214179
  19 H :    0.201888
  20 H :    0.072937
Sum of atomic charges:    1.0000000

LOEWDIN ATOMIC CHARGES
----------------------
   0 Sc:    0.552986
   1 C :   -0.043763
   2 N :    0.006083
   3 C :   -0.080637
   4 C :   -0.074445
   5 N :    0.002663
   6 C :   -0.243093
   7 H :    0.163967
   8 H :    0.166361
   9 H :    0.143529
  10 C :   -0.233523
  11 H :    0.144341
  12 H :    0.158662
  13 H :    0.155038
  14 H :    0.171896
  15 H :    0.170432
  16 C :   -0.577635
  17 H :    0.147038
  18 H :    0.127189
  19 H :    0.124616
  20 H :    0.018295

  Mayer bond orders larger than 0.100000
B(  0-Sc,  1-C ) :   0.6365 B(  0-Sc, 16-C ) :   0.9440 B(  0-Sc, 20-H ) :   0.9671
B(  1-C ,  2-N ) :   1.2452 B(  1-C ,  5-N ) :   1.2294 B(  2-N ,  3-C ) :   1.1556
B(  2-N , 10-C ) :   0.9122 B(  3-C ,  4-C ) :   1.6328 B(  3-C , 14-H ) :   0.8757
B(  4-C ,  5-N ) :   1.1439 B(  4-C , 15-H ) :   0.8754 B(  5-N ,  6-C ) :   0.9016
B(  6-C ,  7-H ) :   0.9015 B(  6-C ,  8-H ) :   0.8683 B(  6-C ,  9-H ) :   0.9012
B( 10-C , 11-H ) :   0.9155 B( 10-C , 12-H ) :   0.8923 B( 10-C , 13-H ) :   0.8940
B( 16-C , 17-H ) :   0.9154 B( 16-C , 18-H ) :   0.9154 B( 16-C , 19-H ) :   0.9077

Dispersion correction           -0.011087096
FINAL SINGLE POINT ENERGY     -1104.428639703798
Dispersion correction            ... done

DIPOLE MOMENT
-------------
                                X             Y             Z
Electronic contribution:      8.00725      -6.26469      -3.44243
Nuclear contribution   :     -6.51173       5.10907       4.29994
                        -----------------------------------------
Total Dipole Moment    :      1.49552      -1.15561       0.85751
                        -----------------------------------------
Magnitude (a.u.)       :      2.07542
Magnitude (Debye)      :      5.27529

Rotational constants in cm-1:     0.054458     0.029206     0.022052
Rotational constants in MHz :  1632.602767   875.584728   661.093993

                             ****ORCA TERMINATED NORMALLY****
TOTAL RUN TIME: 0 days 0 hours 2 minutes 7 seconds 370 msec
