                         Program Version 5.0.3 -  RELEASE  -
|  1> ! EnGrad PBEh-3c
|  2> %output
|  3> xyzfile=True
|  4> end
|  5> %scf
|  6> maxiter 250
|  7> end
|  8> %output
|  9> Print[P_Hirshfeld] = 1
| 10> end
| 11> % maxcore
| 12> 4000
| 13> *xyz 1 1
| 14> Sc   1.17271121  -0.42499455  -1.91419199
| 15> C    0.40620960  -0.61253421   0.24278859
| 16> N   -0.44447416  -1.36997717   0.94850087
| 17> C   -0.79900951  -0.75118732   2.12344089
| 18> C   -0.13212613   0.41790121   2.15860257
| 19> N    0.60007153   0.48226170   0.99917488
| 20> C    1.42364346   1.61436231   0.61689522
| 21> H    1.47722711   2.30292287   1.45177081
| 22> H    1.01418373   2.13137213  -0.25825439
| 23> H    2.44041259   1.28585682   0.39649400
| 24> C   -0.97183266  -2.66114654   0.54730437
| 25> H   -0.58938815  -2.94469534  -0.43120965
| 26> H   -2.05929115  -2.63850797   0.48420994
| 27> H   -0.66958504  -3.41073656   1.27321889
| 28> H   -1.46370497  -1.22246058   2.84213972
| 29> H   -0.13455150   1.19570173   2.91750048
| 30> C   -0.16758532   1.57646459  -2.75256926
| 31> H   -0.78532972   1.49180318  -3.67501285
| 32> H    0.39691672   2.52407462  -2.83972940
| 33> H   -0.87521327   1.65274038  -1.91073711
| 34> H    0.16579032  -0.63258845  -3.21913669
| 35> *
| 36>
| 37>                          ****END OF INPUT****

CARTESIAN COORDINATES (ANGSTROEM)
---------------------------------
  Sc     1.172711   -0.424995   -1.914192
  C      0.406210   -0.612534    0.242789
  N     -0.444474   -1.369977    0.948501
  C     -0.799010   -0.751187    2.123441
  C     -0.132126    0.417901    2.158603
  N      0.600072    0.482262    0.999175
  C      1.423643    1.614362    0.616895
  H      1.477227    2.302923    1.451771
  H      1.014184    2.131372   -0.258254
  H      2.440413    1.285857    0.396494
  C     -0.971833   -2.661147    0.547304
  H     -0.589388   -2.944695   -0.431210
  H     -2.059291   -2.638508    0.484210
  H     -0.669585   -3.410737    1.273219
  H     -1.463705   -1.222461    2.842140
  H     -0.134551    1.195702    2.917500
  C     -0.167585    1.576465   -2.752569
  H     -0.785330    1.491803   -3.675013
  H      0.396917    2.524075   -2.839729
  H     -0.875213    1.652740   -1.910737
  H      0.165790   -0.632588   -3.219137

 Total Charge           Charge          ....    1
 Multiplicity           Mult            ....    1
 Number of Electrons    NEL             ....   82
 Basis Dimension        Dim             ....  175

ORBITAL ENERGIES
----------------

  NO   OCC          E(Eh)            E(eV)
   0   2.0000    -162.875847     -4432.0771
   1   2.0000     -18.184386      -494.8223
   2   2.0000     -15.024081      -408.8260
   3   2.0000     -15.019231      -408.6940
   4   2.0000     -15.016395      -408.6169
   5   2.0000     -14.873761      -404.7356
   6   2.0000     -14.872488      -404.7010
   7   2.0000     -10.650953      -289.8272
   8   2.0000     -10.638626      -289.4917
   9   2.0000     -10.638186      -289.4798
  10   2.0000     -10.635044      -289.3943
  11   2.0000     -10.626517      -289.1622
  12   2.0000     -10.518241      -286.2159
  13   2.0000      -2.399373       -65.2903
  14   2.0000      -1.552449       -42.2443
  15   2.0000      -1.541825       -41.9552
  16   2.0000      -1.535212       -41.7752
  17   2.0000      -1.321891       -35.9705
  18   2.0000      -1.198564       -32.6146
  19   2.0000      -1.036229       -28.1972
  20   2.0000      -0.992319       -27.0024
  21   2.0000      -0.936417       -25.4812
  22   2.0000      -0.853452       -23.2236
  23   2.0000      -0.824730       -22.4420
  24   2.0000      -0.813749       -22.1432
  25   2.0000      -0.759810       -20.6755
  26   2.0000      -0.714049       -19.4303
  27   2.0000      -0.685137       -18.6435
  28   2.0000      -0.667775       -18.1711
  29   2.0000      -0.665203       -18.1011
  30   2.0000      -0.660520       -17.9737
  31   2.0000      -0.617529       -16.8038
  32   2.0000      -0.606597       -16.5063
  33   2.0000      -0.601414       -16.3653
  34   2.0000      -0.531673       -14.4676
  35   2.0000      -0.524223       -14.2648
  36   2.0000      -0.520404       -14.1609
  37   2.0000      -0.495443       -13.4817
  38   2.0000      -0.450778       -12.2663
  39   2.0000      -0.444799       -12.1036
  40   2.0000      -0.365993        -9.9592
  41   0.0000      -0.186776        -5.0824
  42   0.0000      -0.180201        -4.9035
  43   0.0000      -0.164119        -4.4659
  44   0.0000      -0.157217        -4.2781
  45   0.0000      -0.145814        -3.9678

MULLIKEN ATOMIC CHARGES
-----------------------
   0 Sc:    0.718180
   1 C :    0.182641
   2 N :   -0.419430
   3 C :   -0.064162
   4 C :   -0.061081
   5 N :   -0.402136
   6 C :   -0.563445
   7 H :    0.298594
   8 H :    0.304367
   9 H :    0.247597
  10 C :   -0.518062
  11 H :    0.247882
  12 H :    0.283603
  13 H :    0.277671
  14 H :    0.306253
  15 H :    0.306832
  16 C :   -0.885217
  17 H :    0.255064
  18 H :    0.211119
  19 H :    0.201182
  20 H :    0.072550
Sum of atomic charges:    1.0000000

LOEWDIN ATOMIC CHARGES
----------------------
   0 Sc:    0.526874
   1 C :   -0.041863
   2 N :    0.006677
   3 C :   -0.078315
   4 C :   -0.076408
   5 N :    0.001864
   6 C :   -0.240239
   7 H :    0.166770
   8 H :    0.167164
   9 H :    0.142837
  10 C :   -0.234040
  11 H :    0.147150
  12 H :    0.158060
  13 H :    0.154520
  14 H :    0.172027
  15 H :    0.171458
  16 C :   -0.569510
  17 H :    0.147857
  18 H :    0.125936
  19 H :    0.124605
  20 H :    0.026577

  Mayer bond orders larger than 0.100000
B(  0-Sc,  1-C ) :   0.6307 B(  0-Sc, 16-C ) :   0.9405 B(  0-Sc, 20-H ) :   0.9594
B(  1-C ,  2-N ) :   1.2550 B(  1-C ,  5-N ) :   1.2247 B(  2-N ,  3-C ) :   1.1529
B(  2-N , 10-C ) :   0.9117 B(  3-C ,  4-C ) :   1.6419 B(  3-C , 14-H ) :   0.8763
B(  4-C ,  5-N ) :   1.1352 B(  4-C , 15-H ) :   0.8754 B(  5-N ,  6-C ) :   0.9025
B(  6-C ,  7-H ) :   0.8984 B(  6-C ,  8-H ) :   0.8639 B(  6-C ,  9-H ) :   0.8997
B( 10-C , 11-H ) :   0.9151 B( 10-C , 12-H ) :   0.8929 B( 10-C , 13-H ) :   0.8949
B( 16-C , 17-H ) :   0.9168 B( 16-C , 18-H ) :   0.9142 B( 16-C , 19-H ) :   0.9073

Dispersion correction           -0.011126412
FINAL SINGLE POINT ENERGY     -1104.426582870016
Dispersion correction            ... done

DIPOLE MOMENT
-------------
                                X             Y             Z
Electronic contribution:      8.56196      -5.62758      -2.98411
Nuclear contribution   :     -7.00715       4.67983       3.94021
                        -----------------------------------------
Total Dipole Moment    :      1.55480      -0.94775       0.95611
                        -----------------------------------------
Magnitude (a.u.)       :      2.05664
Magnitude (Debye)      :      5.22757

Rotational constants in cm-1:     0.055260     0.029270     0.022546
Rotational constants in MHz :  1656.646875   877.478739   675.904293

                             ****ORCA TERMINATED NORMALLY****
TOTAL RUN TIME: 0 days 0 hours 2 minutes 7 seconds 818 msec
