                         Program Version 5.0.3 -  RELEASE  -
|  1> ! EnGrad PBEh-3c
|  2> %output
|  3> xyzfile=True
|  4> end
|  5> %scf
|  6> maxiter 250
|  7> end
|  8> %output
|  9> Print[P_Hirshfeld] = 1
| 10> end
| 11> % maxcore
| 12> 4000
| 13> *xyz 1 1
| 14> Sc   1.19974022  -0.40583909  -1.90954540
| 15> C    0.40913879  -0.62178845   0.24788033
| 16> N   -0.44751551  -1.37108479   0.95182445
| 17> C   -0.81082771  -0.75935387   2.11880731
| 18> C   -0.13449961   0.43305666   2.15465469
| 19> N    0.60131088   0.47896346   1.00429766
| 20> C    1.42597749   1.60387040   0.60816344
| 21> H    1.49359865   2.29391939   1.44575941
| 22> H    1.00924330   2.13401345  -0.24721466
| 23> H    2.43621216   1.27566445   0.37644339
| 24> C   -0.97326810  -2.66431950   0.54902907
| 25> H   -0.57990902  -2.94826416  -0.42219773
| 26> H   -2.05869609  -2.63269449   0.47750559
| 27> H   -0.68124551  -3.41289213   1.27951400
| 28> H   -1.46922020  -1.20329642   2.82726274
| 29> H   -0.13972671   1.19802412   2.89758078
| 30> C   -0.18787332   1.55246076  -2.73962451
| 31> H   -0.79787215   1.48063947  -3.66262906
| 32> H    0.38291040   2.48382338  -2.82941778
| 33> H   -0.88806654   1.63621732  -1.90316646
| 34> H    0.21653395  -0.54376986  -3.22349416
| 35> *
| 36>
| 37>                          ****END OF INPUT****

CARTESIAN COORDINATES (ANGSTROEM)
---------------------------------
  Sc     1.199740   -0.405839   -1.909545
  C      0.409139   -0.621788    0.247880
  N     -0.447516   -1.371085    0.951824
  C     -0.810828   -0.759354    2.118807
  C     -0.134500    0.433057    2.154655
  N      0.601311    0.478963    1.004298
  C      1.425977    1.603870    0.608163
  H      1.493599    2.293919    1.445759
  H      1.009243    2.134013   -0.247215
  H      2.436212    1.275664    0.376443
  C     -0.973268   -2.664319    0.549029
  H     -0.579909   -2.948264   -0.422198
  H     -2.058696   -2.632694    0.477506
  H     -0.681246   -3.412892    1.279514
  H     -1.469220   -1.203296    2.827263
  H     -0.139727    1.198024    2.897581
  C     -0.187873    1.552461   -2.739625
  H     -0.797872    1.480639   -3.662629
  H      0.382910    2.483823   -2.829418
  H     -0.888067    1.636217   -1.903166
  H      0.216534   -0.543770   -3.223494

 Total Charge           Charge          ....    1
 Multiplicity           Mult            ....    1
 Number of Electrons    NEL             ....   82
 Basis Dimension        Dim             ....  175

ORBITAL ENERGIES
----------------

  NO   OCC          E(Eh)            E(eV)
   0   2.0000    -162.866905     -4431.8338
   1   2.0000     -18.174897      -494.5641
   2   2.0000     -15.015035      -408.5799
   3   2.0000     -15.009710      -408.4350
   4   2.0000     -15.006538      -408.3487
   5   2.0000     -14.873156      -404.7192
   6   2.0000     -14.872130      -404.6912
   7   2.0000     -10.648517      -289.7609
   8   2.0000     -10.638099      -289.4774
   9   2.0000     -10.637481      -289.4606
  10   2.0000     -10.633727      -289.3584
  11   2.0000     -10.625310      -289.1294
  12   2.0000     -10.515861      -286.1511
  13   2.0000      -2.392318       -65.0983
  14   2.0000      -1.546267       -42.0761
  15   2.0000      -1.535096       -41.7721
  16   2.0000      -1.528687       -41.5977
  17   2.0000      -1.320717       -35.9385
  18   2.0000      -1.199389       -32.6370
  19   2.0000      -1.033073       -28.1113
  20   2.0000      -0.991254       -26.9734
  21   2.0000      -0.937873       -25.5208
  22   2.0000      -0.854893       -23.2628
  23   2.0000      -0.827545       -22.5187
  24   2.0000      -0.812313       -22.1042
  25   2.0000      -0.761096       -20.7105
  26   2.0000      -0.713544       -19.4165
  27   2.0000      -0.687597       -18.7105
  28   2.0000      -0.669449       -18.2166
  29   2.0000      -0.667832       -18.1726
  30   2.0000      -0.658178       -17.9099
  31   2.0000      -0.615446       -16.7471
  32   2.0000      -0.606673       -16.5084
  33   2.0000      -0.601127       -16.3575
  34   2.0000      -0.532661       -14.4944
  35   2.0000      -0.523125       -14.2350
  36   2.0000      -0.522310       -14.2128
  37   2.0000      -0.496750       -13.5173
  38   2.0000      -0.451806       -12.2943
  39   2.0000      -0.439785       -11.9672
  40   2.0000      -0.361108        -9.8262
  41   0.0000      -0.185299        -5.0422
  42   0.0000      -0.176156        -4.7934
  43   0.0000      -0.160024        -4.3545
  44   0.0000      -0.152887        -4.1603
  45   0.0000      -0.141680        -3.8553

MULLIKEN ATOMIC CHARGES
-----------------------
   0 Sc:    0.713522
   1 C :    0.180625
   2 N :   -0.416273
   3 C :   -0.069305
   4 C :   -0.063194
   5 N :   -0.399618
   6 C :   -0.567528
   7 H :    0.299253
   8 H :    0.305391
   9 H :    0.247295
  10 C :   -0.516793
  11 H :    0.247670
  12 H :    0.283062
  13 H :    0.277706
  14 H :    0.307428
  15 H :    0.308088
  16 C :   -0.889132
  17 H :    0.255698
  18 H :    0.211963
  19 H :    0.205162
  20 H :    0.078978
Sum of atomic charges:    1.0000000

LOEWDIN ATOMIC CHARGES
----------------------
   0 Sc:    0.516706
   1 C :   -0.045485
   2 N :    0.010143
   3 C :   -0.079397
   4 C :   -0.075617
   5 N :    0.003348
   6 C :   -0.240432
   7 H :    0.167181
   8 H :    0.166758
   9 H :    0.143094
  10 C :   -0.232891
  11 H :    0.146895
  12 H :    0.157872
  13 H :    0.154723
  14 H :    0.168925
  15 H :    0.168721
  16 C :   -0.566133
  17 H :    0.147158
  18 H :    0.125843
  19 H :    0.125985
  20 H :    0.036603

  Mayer bond orders larger than 0.100000
B(  0-Sc,  1-C ) :   0.6279 B(  0-Sc, 16-C ) :   0.9294 B(  0-Sc, 20-H ) :   0.9475
B(  1-C ,  2-N ) :   1.2526 B(  1-C ,  5-N ) :   1.2162 B(  2-N ,  3-C ) :   1.1681
B(  2-N , 10-C ) :   0.9107 B(  3-C ,  4-C ) :   1.6258 B(  3-C , 14-H ) :   0.8759
B(  4-C ,  5-N ) :   1.1499 B(  4-C , 15-H ) :   0.8748 B(  5-N ,  6-C ) :   0.9054
B(  6-C ,  7-H ) :   0.8983 B(  6-C ,  8-H ) :   0.8630 B(  6-C ,  9-H ) :   0.8989
B( 10-C , 11-H ) :   0.9157 B( 10-C , 12-H ) :   0.8935 B( 10-C , 13-H ) :   0.8953
B( 16-C , 17-H ) :   0.9177 B( 16-C , 18-H ) :   0.9136 B( 16-C , 19-H ) :   0.9078

Dispersion correction           -0.011150201
FINAL SINGLE POINT ENERGY     -1104.423173989295
Dispersion correction            ... done

DIPOLE MOMENT
-------------
                                X             Y             Z
Electronic contribution:      8.69505      -5.55033      -3.01317
Nuclear contribution   :     -7.12066       4.63254       3.89460
                        -----------------------------------------
Total Dipole Moment    :      1.57439      -0.91780       0.88143
                        -----------------------------------------
Magnitude (a.u.)       :      2.02434
Magnitude (Debye)      :      5.14547

Rotational constants in cm-1:     0.055419     0.029198     0.022621
Rotational constants in MHz :  1661.430908   875.338663   678.155399

                             ****ORCA TERMINATED NORMALLY****
TOTAL RUN TIME: 0 days 0 hours 2 minutes 2 seconds 490 msec
