                         Program Version 5.0.3 -  RELEASE  -
|  1> ! EnGrad PBEh-3c
|  2> %output
|  3> xyzfile=True
|  4> end
|  5> %scf
|  6> maxiter 250
|  7> end
|  8> %output
|  9> Print[P_Hirshfeld] = 1
| 10> end
| 11> % maxcore
| 12> 4000
| 13> *xyz 1 1
| 14> Sc   1.20596581  -0.39712103  -1.91794201
| 15> C    0.41099993  -0.62363033   0.25089450
| 16> N   -0.45303487  -1.37307497   0.95366667
| 17> C   -0.80360716  -0.75133845   2.11413740
| 18> C   -0.14375341   0.42329843   2.14968838
| 19> N    0.59962573   0.47861124   1.00925755
| 20> C    1.42592980   1.59870849   0.60562724
| 21> H    1.49991167   2.29299256   1.43993709
| 22> H    1.00430635   2.13534166  -0.24022796
| 23> H    2.43499429   1.27050168   0.37024138
| 24> C   -0.97324094  -2.66498087   0.55024763
| 25> H   -0.57596984  -2.94703998  -0.41832569
| 26> H   -2.05774441  -2.62860137   0.47669538
| 27> H   -0.68618423  -3.41690097   1.28061166
| 28> H   -1.47508217  -1.19514263   2.82358198
| 29> H   -0.13857310   1.20142615   2.89100909
| 30> C   -0.19347817   1.52449777  -2.73280584
| 31> H   -0.80200015   1.47065996  -3.65389426
| 32> H    0.38241362   2.44205132  -2.82666179
| 33> H   -0.89638498   1.62800341  -1.90438055
| 34> H    0.24155293  -0.46029693  -3.21980546
| 35> *
| 36>
| 37>                          ****END OF INPUT****

CARTESIAN COORDINATES (ANGSTROEM)
---------------------------------
  Sc     1.205966   -0.397121   -1.917942
  C      0.411000   -0.623630    0.250895
  N     -0.453035   -1.373075    0.953667
  C     -0.803607   -0.751338    2.114137
  C     -0.143753    0.423298    2.149688
  N      0.599626    0.478611    1.009258
  C      1.425930    1.598708    0.605627
  H      1.499912    2.292993    1.439937
  H      1.004306    2.135342   -0.240228
  H      2.434994    1.270502    0.370241
  C     -0.973241   -2.664981    0.550248
  H     -0.575970   -2.947040   -0.418326
  H     -2.057744   -2.628601    0.476695
  H     -0.686184   -3.416901    1.280612
  H     -1.475082   -1.195143    2.823582
  H     -0.138573    1.201426    2.891009
  C     -0.193478    1.524498   -2.732806
  H     -0.802000    1.470660   -3.653894
  H      0.382414    2.442051   -2.826662
  H     -0.896385    1.628003   -1.904381
  H      0.241553   -0.460297   -3.219805

 Total Charge           Charge          ....    1
 Multiplicity           Mult            ....    1
 Number of Electrons    NEL             ....   82
 Basis Dimension        Dim             ....  175

ORBITAL ENERGIES
----------------

  NO   OCC          E(Eh)            E(eV)
   0   2.0000    -162.857144     -4431.5682
   1   2.0000     -18.164773      -494.2886
   2   2.0000     -15.005292      -408.3147
   3   2.0000     -14.999585      -408.1595
   4   2.0000     -14.996027      -408.0626
   5   2.0000     -14.870132      -404.6369
   6   2.0000     -14.869224      -404.6122
   7   2.0000     -10.646901      -289.7169
   8   2.0000     -10.636877      -289.4441
   9   2.0000     -10.633214      -289.3445
  10   2.0000     -10.629554      -289.2449
  11   2.0000     -10.623982      -289.0933
  12   2.0000     -10.514303      -286.1087
  13   2.0000      -2.385149       -64.9032
  14   2.0000      -1.539930       -41.9036
  15   2.0000      -1.528251       -41.5858
  16   2.0000      -1.522429       -41.4274
  17   2.0000      -1.320216       -35.9249
  18   2.0000      -1.197877       -32.5959
  19   2.0000      -1.034966       -28.1629
  20   2.0000      -0.988587       -26.9008
  21   2.0000      -0.937514       -25.5111
  22   2.0000      -0.851048       -23.1582
  23   2.0000      -0.830804       -22.6073
  24   2.0000      -0.812976       -22.1222
  25   2.0000      -0.759410       -20.6646
  26   2.0000      -0.712656       -19.3924
  27   2.0000      -0.683532       -18.5999
  28   2.0000      -0.667949       -18.1758
  29   2.0000      -0.665635       -18.1129
  30   2.0000      -0.657814       -17.9000
  31   2.0000      -0.615020       -16.7355
  32   2.0000      -0.605282       -16.4706
  33   2.0000      -0.600787       -16.3483
  34   2.0000      -0.533779       -14.5249
  35   2.0000      -0.524782       -14.2801
  36   2.0000      -0.519858       -14.1461
  37   2.0000      -0.494981       -13.4691
  38   2.0000      -0.455494       -12.3946
  39   2.0000      -0.439989       -11.9727
  40   2.0000      -0.357936        -9.7399
  41   0.0000      -0.184068        -5.0087
  42   0.0000      -0.172460        -4.6929
  43   0.0000      -0.155874        -4.2416
  44   0.0000      -0.148745        -4.0476
  45   0.0000      -0.137677        -3.7464

MULLIKEN ATOMIC CHARGES
-----------------------
   0 Sc:    0.713113
   1 C :    0.181677
   2 N :   -0.416525
   3 C :   -0.066394
   4 C :   -0.061886
   5 N :   -0.399094
   6 C :   -0.568185
   7 H :    0.298960
   8 H :    0.304207
   9 H :    0.246995
  10 C :   -0.515413
  11 H :    0.246159
  12 H :    0.281728
  13 H :    0.277026
  14 H :    0.304644
  15 H :    0.304843
  16 C :   -0.898187
  17 H :    0.257152
  18 H :    0.214279
  19 H :    0.208705
  20 H :    0.086196
Sum of atomic charges:    1.0000000

LOEWDIN ATOMIC CHARGES
----------------------
   0 Sc:    0.508865
   1 C :   -0.042295
   2 N :    0.008147
   3 C :   -0.081711
   4 C :   -0.078038
   5 N :    0.001994
   6 C :   -0.240677
   7 H :    0.166698
   8 H :    0.165896
   9 H :    0.143378
  10 C :   -0.232913
  11 H :    0.146308
  12 H :    0.157108
  13 H :    0.154448
  14 H :    0.168965
  15 H :    0.168697
  16 C :   -0.564229
  17 H :    0.146692
  18 H :    0.126691
  19 H :    0.127983
  20 H :    0.047994

  Mayer bond orders larger than 0.100000
B(  0-Sc,  1-C ) :   0.6248 B(  0-Sc, 16-C ) :   0.9146 B(  0-Sc, 20-H ) :   0.9329
B(  1-C ,  2-N ) :   1.2513 B(  1-C ,  5-N ) :   1.2213 B(  2-N ,  3-C ) :   1.1626
B(  2-N , 10-C ) :   0.9128 B(  3-C ,  4-C ) :   1.6348 B(  3-C , 14-H ) :   0.8776
B(  4-C ,  5-N ) :   1.1441 B(  4-C , 15-H ) :   0.8767 B(  5-N ,  6-C ) :   0.9074
B(  6-C ,  7-H ) :   0.8985 B(  6-C ,  8-H ) :   0.8638 B(  6-C ,  9-H ) :   0.8990
B( 10-C , 11-H ) :   0.9162 B( 10-C , 12-H ) :   0.8941 B( 10-C , 13-H ) :   0.8956
B( 16-C , 17-H ) :   0.9174 B( 16-C , 18-H ) :   0.9118 B( 16-C , 19-H ) :   0.9077

Dispersion correction           -0.011144318
FINAL SINGLE POINT ENERGY     -1104.421084444255
Dispersion correction            ... done

DIPOLE MOMENT
-------------
                                X             Y             Z
Electronic contribution:      8.71813      -5.54805      -3.17008
Nuclear contribution   :     -7.13718       4.64127       3.93632
                        -----------------------------------------
Total Dipole Moment    :      1.58095      -0.90678       0.76624
                        -----------------------------------------
Magnitude (a.u.)       :      1.97706
Magnitude (Debye)      :      5.02529

Rotational constants in cm-1:     0.055731     0.029171     0.022648
Rotational constants in MHz :  1670.773585   874.513868   678.964887

                             ****ORCA TERMINATED NORMALLY****
TOTAL RUN TIME: 0 days 0 hours 2 minutes 4 seconds 908 msec
