                         Program Version 5.0.3 -  RELEASE  -
|  1> ! EnGrad PBEh-3c
|  2> %output
|  3> xyzfile=True
|  4> end
|  5> %scf
|  6> maxiter 250
|  7> end
|  8> %output
|  9> Print[P_Hirshfeld] = 1
| 10> end
| 11> % maxcore
| 12> 4000
| 13> *xyz 1 1
| 14> Sc   1.21923417  -0.34978734  -1.94042193
| 15> C    0.41625567  -0.63033952   0.25684616
| 16> N   -0.45861310  -1.37430478   0.94967218
| 17> C   -0.80575132  -0.75060746   2.11356407
| 18> C   -0.15853645   0.42375622   2.14500408
| 19> N    0.59679730   0.47102967   1.01150740
| 20> C    1.42588216   1.58440991   0.60194154
| 21> H    1.52056957   2.28825210   1.42553831
| 22> H    0.98722455   2.13810631  -0.22355167
| 23> H    2.43514117   1.25303527   0.35006342
| 24> C   -0.97432128  -2.66704505   0.55647116
| 25> H   -0.56254674  -2.94420775  -0.40770276
| 26> H   -2.05562695  -2.61713448   0.47278967
| 27> H   -0.70115598  -3.42886293   1.28502627
| 28> H   -1.49218617  -1.16862020   2.81133229
| 29> H   -0.13871992   1.20914262   2.86958837
| 30> C   -0.20281483   1.42394579  -2.70967475
| 31> H   -0.81424731   1.43392603  -3.62351614
| 32> H    0.38798793   2.31727559  -2.81649162
| 33> H   -0.92270863   1.59972786  -1.90696265
| 34> H    0.30722340  -0.20154059  -3.21948976
| 35> *
| 36>
| 37>                          ****END OF INPUT****

CARTESIAN COORDINATES (ANGSTROEM)
---------------------------------
  Sc     1.219234   -0.349787   -1.940422
  C      0.416256   -0.630340    0.256846
  N     -0.458613   -1.374305    0.949672
  C     -0.805751   -0.750607    2.113564
  C     -0.158536    0.423756    2.145004
  N      0.596797    0.471030    1.011507
  C      1.425882    1.584410    0.601942
  H      1.520570    2.288252    1.425538
  H      0.987225    2.138106   -0.223552
  H      2.435141    1.253035    0.350063
  C     -0.974321   -2.667045    0.556471
  H     -0.562547   -2.944208   -0.407703
  H     -2.055627   -2.617134    0.472790
  H     -0.701156   -3.428863    1.285026
  H     -1.492186   -1.168620    2.811332
  H     -0.138720    1.209143    2.869588
  C     -0.202815    1.423946   -2.709675
  H     -0.814247    1.433926   -3.623516
  H      0.387988    2.317276   -2.816492
  H     -0.922709    1.599728   -1.906963
  H      0.307223   -0.201541   -3.219490

 Total Charge           Charge          ....    1
 Multiplicity           Mult            ....    1
 Number of Electrons    NEL             ....   82
 Basis Dimension        Dim             ....  175

ORBITAL ENERGIES
----------------

  NO   OCC          E(Eh)            E(eV)
   0   2.0000    -162.824742     -4430.6865
   1   2.0000     -18.130995      -493.3694
   2   2.0000     -14.972807      -407.4308
   3   2.0000     -14.965668      -407.2365
   4   2.0000     -14.961146      -407.1135
   5   2.0000     -14.862949      -404.4414
   6   2.0000     -14.861877      -404.4122
   7   2.0000     -10.640121      -289.5324
   8   2.0000     -10.634369      -289.3759
   9   2.0000     -10.626211      -289.1539
  10   2.0000     -10.622419      -289.0507
  11   2.0000     -10.619263      -288.9648
  12   2.0000     -10.516480      -286.1680
  13   2.0000      -2.360737       -64.2389
  14   2.0000      -1.518540       -41.3216
  15   2.0000      -1.505136       -40.9568
  16   2.0000      -1.500438       -40.8290
  17   2.0000      -1.314985       -35.7825
  18   2.0000      -1.192289       -32.4438
  19   2.0000      -1.031145       -28.0589
  20   2.0000      -0.983896       -26.7732
  21   2.0000      -0.932819       -25.3833
  22   2.0000      -0.846168       -23.0254
  23   2.0000      -0.845140       -22.9974
  24   2.0000      -0.808062       -21.9885
  25   2.0000      -0.755585       -20.5605
  26   2.0000      -0.708235       -19.2720
  27   2.0000      -0.678984       -18.4761
  28   2.0000      -0.664169       -18.0730
  29   2.0000      -0.661209       -17.9924
  30   2.0000      -0.654680       -17.8148
  31   2.0000      -0.610450       -16.6112
  32   2.0000      -0.600568       -16.3423
  33   2.0000      -0.596728       -16.2378
  34   2.0000      -0.539809       -14.6889
  35   2.0000      -0.537167       -14.6170
  36   2.0000      -0.511008       -13.9052
  37   2.0000      -0.489368       -13.3164
  38   2.0000      -0.473610       -12.8876
  39   2.0000      -0.435383       -11.8474
  40   2.0000      -0.341950        -9.3049
  41   0.0000      -0.179607        -4.8874
  42   0.0000      -0.159318        -4.3353
  43   0.0000      -0.141641        -3.8543
  44   0.0000      -0.134760        -3.6670
  45   0.0000      -0.125176        -3.4062

MULLIKEN ATOMIC CHARGES
-----------------------
   0 Sc:    0.721073
   1 C :    0.186954
   2 N :   -0.418296
   3 C :   -0.066731
   4 C :   -0.064194
   5 N :   -0.395523
   6 C :   -0.569842
   7 H :    0.299817
   8 H :    0.297163
   9 H :    0.245288
  10 C :   -0.511690
  11 H :    0.241674
  12 H :    0.277866
  13 H :    0.275540
  14 H :    0.301539
  15 H :    0.300722
  16 C :   -0.937269
  17 H :    0.266708
  18 H :    0.222905
  19 H :    0.223480
  20 H :    0.102815
Sum of atomic charges:    1.0000000

LOEWDIN ATOMIC CHARGES
----------------------
   0 Sc:    0.463281
   1 C :   -0.040893
   2 N :    0.003648
   3 C :   -0.083864
   4 C :   -0.080310
   5 N :   -0.001135
   6 C :   -0.240609
   7 H :    0.165523
   8 H :    0.162694
   9 H :    0.144245
  10 C :   -0.233164
  11 H :    0.144481
  12 H :    0.154787
  13 H :    0.153717
  14 H :    0.166564
  15 H :    0.166134
  16 C :   -0.553262
  17 H :    0.146906
  18 H :    0.133588
  19 H :    0.136955
  20 H :    0.090713

  Mayer bond orders larger than 0.100000
B(  0-Sc,  1-C ) :   0.6127 B(  0-Sc, 16-C ) :   0.8444 B(  0-Sc, 20-H ) :   0.8615
B(  1-C ,  2-N ) :   1.2469 B(  1-C ,  5-N ) :   1.2270 B(  2-N ,  3-C ) :   1.1519
B(  2-N , 10-C ) :   0.9168 B(  3-C ,  4-C ) :   1.6493 B(  3-C , 14-H ) :   0.8794
B(  4-C ,  5-N ) :   1.1363 B(  4-C , 15-H ) :   0.8787 B(  5-N ,  6-C ) :   0.9128
B(  6-C ,  7-H ) :   0.8978 B(  6-C ,  8-H ) :   0.8674 B(  6-C ,  9-H ) :   0.8989
B( 10-C , 11-H ) :   0.9180 B( 10-C , 12-H ) :   0.8956 B( 10-C , 13-H ) :   0.8964
B( 16-C , 17-H ) :   0.9111 B( 16-C , 18-H ) :   0.9008 B( 16-C , 19-H ) :   0.9038

Dispersion correction           -0.011182301
FINAL SINGLE POINT ENERGY     -1104.411426562918
Dispersion correction            ... done

DIPOLE MOMENT
-------------
                                X             Y             Z
Electronic contribution:      8.70375      -5.31426      -3.62611
Nuclear contribution   :     -7.16794       4.55783       4.03531
                        -----------------------------------------
Total Dipole Moment    :      1.53581      -0.75643       0.40921
                        -----------------------------------------
Magnitude (a.u.)       :      1.76021
Magnitude (Debye)      :      4.47411

Rotational constants in cm-1:     0.056900     0.029093     0.022703
Rotational constants in MHz :  1705.811952   872.173549   680.627697

                             ****ORCA TERMINATED NORMALLY****
TOTAL RUN TIME: 0 days 0 hours 2 minutes 17 seconds 557 msec
