                         Program Version 5.0.3 -  RELEASE  -
|  1> ! EnGrad PBEh-3c
|  2> %output
|  3> xyzfile=True
|  4> end
|  5> %scf
|  6> maxiter 250
|  7> end
|  8> %output
|  9> Print[P_Hirshfeld] = 1
| 10> end
| 11> % maxcore
| 12> 4000
| 13> *xyz 0 1
| 14> C   -1.52579702   0.19144874  -0.56080106
| 15> C   -2.06251305  -0.87323906  -1.27401763
| 16> C   -1.70746367  -2.17436353  -0.96047030
| 17> C   -0.77822165  -2.43099946   0.03434000
| 18> C   -0.67105487  -0.12784425   0.47536539
| 19> C   -0.25712270  -1.40085396   0.80212567
| 20> H   -1.87031723   1.16767205  -0.87709077
| 21> H   -2.78970579  -0.69129257  -2.05285460
| 22> H   -2.17654250  -2.99541108  -1.48848258
| 23> H    0.46759929  -1.65902603   1.56240150
| 24> H   -0.50383596  -3.45217490   0.26033352
| 25> Pd   1.44045870   1.10989010  -0.11268460
| 26> O    3.25066746   1.29867281  -1.23176939
| 27> O    2.65899356  -0.53926591  -0.25565705
| 28> O    0.36312840   2.83259936   0.13970470
| 29> C   -0.01078629   2.95248214   1.30218971
| 30> O    0.35477024   2.13111503   2.22066325
| 31> H   -1.23208679   1.27943784   2.83596083
| 32> C    3.44846554   0.08604948  -1.00950989
| 33> H    4.33575336  -0.43428802  -1.39106928
| 34> H   -0.73438322   3.72938119   1.58133422
| 35> *
| 36>
| 37>                          ****END OF INPUT****

CARTESIAN COORDINATES (ANGSTROEM)
---------------------------------
  C     -1.525797    0.191449   -0.560801
  C     -2.062513   -0.873239   -1.274018
  C     -1.707464   -2.174364   -0.960470
  C     -0.778222   -2.430999    0.034340
  C     -0.671055   -0.127844    0.475365
  C     -0.257123   -1.400854    0.802126
  H     -1.870317    1.167672   -0.877091
  H     -2.789706   -0.691293   -2.052855
  H     -2.176543   -2.995411   -1.488483
  H      0.467599   -1.659026    1.562401
  H     -0.503836   -3.452175    0.260334
  Pd     1.440459    1.109890   -0.112685
  O      3.250667    1.298673   -1.231769
  O      2.658994   -0.539266   -0.255657
  O      0.363128    2.832599    0.139705
  C     -0.010786    2.952482    1.302190
  O      0.354770    2.131115    2.220663
  H     -1.232087    1.279438    2.835961
  C      3.448466    0.086049   -1.009510
  H      4.335753   -0.434288   -1.391069
  H     -0.734383    3.729381    1.581334

 Total Charge           Charge          ....    0
 Multiplicity           Mult            ....    1
 Number of Electrons    NEL             ....  106
 Basis Dimension        Dim             ....  227

ORBITAL ENERGIES
----------------

  NO   OCC          E(Eh)            E(eV)
   0   2.0000     -19.536655      -531.6194
   1   2.0000     -19.519771      -531.1600
   2   2.0000     -19.518191      -531.1170
   3   2.0000     -19.510209      -530.8998
   4   2.0000     -10.582278      -287.9584
   5   2.0000     -10.577011      -287.8151
   6   2.0000     -10.488800      -285.4148
   7   2.0000     -10.467252      -284.8284
   8   2.0000     -10.464096      -284.7425
   9   2.0000     -10.460608      -284.6476
  10   2.0000     -10.459912      -284.6287
  11   2.0000     -10.459124      -284.6072
  12   2.0000      -3.667682       -99.8027
  13   2.0000      -2.320130       -63.1340
  14   2.0000      -2.305944       -62.7479
  15   2.0000      -2.279632       -62.0319
  16   2.0000      -1.220733       -33.2178
  17   2.0000      -1.217116       -33.1194
  18   2.0000      -1.104392       -30.0520
  19   2.0000      -1.102848       -30.0100
  20   2.0000      -0.971768       -26.4432
  21   2.0000      -0.855724       -23.2854
  22   2.0000      -0.840268       -22.8648
  23   2.0000      -0.692306       -18.8386
  24   2.0000      -0.691751       -18.8235
  25   2.0000      -0.681368       -18.5410
  26   2.0000      -0.680325       -18.5126
  27   2.0000      -0.592529       -16.1235
  28   2.0000      -0.583224       -15.8703
  29   2.0000      -0.575945       -15.6723
  30   2.0000      -0.554176       -15.0799
  31   2.0000      -0.541132       -14.7249
  32   2.0000      -0.530614       -14.4387
  33   2.0000      -0.522662       -14.2224
  34   2.0000      -0.521419       -14.1885
  35   2.0000      -0.517935       -14.0937
  36   2.0000      -0.495227       -13.4758
  37   2.0000      -0.452974       -12.3260
  38   2.0000      -0.440559       -11.9882
  39   2.0000      -0.425002       -11.5649
  40   2.0000      -0.418779       -11.3955
  41   2.0000      -0.403053       -10.9676
  42   2.0000      -0.393018       -10.6946
  43   2.0000      -0.381530       -10.3819
  44   2.0000      -0.379123       -10.3164
  45   2.0000      -0.364419        -9.9163
  46   2.0000      -0.356927        -9.7125
  47   2.0000      -0.338813        -9.2196
  48   2.0000      -0.331375        -9.0172
  49   2.0000      -0.314095        -8.5470
  50   2.0000      -0.306369        -8.3367
  51   2.0000      -0.299429        -8.1479
  52   2.0000      -0.255238        -6.9454
  53   0.0000      -0.141317        -3.8454
  54   0.0000      -0.085039        -2.3140
  55   0.0000       0.004973         0.1353
  56   0.0000       0.013537         0.3684
  57   0.0000       0.033326         0.9068

MULLIKEN ATOMIC CHARGES
-----------------------
   0 C :   -0.201794
   1 C :   -0.230241
   2 C :   -0.208196
   3 C :   -0.228016
   4 C :   -0.165645
   5 C :   -0.203821
   6 H :    0.250791
   7 H :    0.231413
   8 H :    0.229886
   9 H :    0.261504
  10 H :    0.229973
  11 Pd:    0.440598
  12 O :   -0.456590
  13 O :   -0.464991
  14 O :   -0.423783
  15 C :    0.361453
  16 O :   -0.417077
  17 H :    0.192005
  18 C :    0.403441
  19 H :    0.198433
  20 H :    0.200658
Sum of atomic charges:    0.0000000

LOEWDIN ATOMIC CHARGES
----------------------
   0 C :   -0.115855
   1 C :   -0.128192
   2 C :   -0.121683
   3 C :   -0.122765
   4 C :   -0.026678
   5 C :   -0.103367
   6 H :    0.157923
   7 H :    0.139621
   8 H :    0.140743
   9 H :    0.162523
  10 H :    0.140431
  11 Pd:   -0.213851
  12 O :   -0.162444
  13 O :   -0.148960
  14 O :   -0.092721
  15 C :    0.119741
  16 O :   -0.223121
  17 H :    0.214040
  18 C :    0.153529
  19 H :    0.117666
  20 H :    0.113421

  Mayer bond orders larger than 0.100000
B(  0-C ,  1-C ) :   1.4115 B(  0-C ,  4-C ) :   1.3568 B(  0-C ,  6-H ) :   0.8997
B(  1-C ,  2-C ) :   1.4276 B(  1-C ,  7-H ) :   0.9102 B(  2-C ,  3-C ) :   1.4178
B(  2-C ,  8-H ) :   0.9166 B(  3-C ,  5-C ) :   1.4181 B(  3-C , 10-H ) :   0.9111
B(  4-C ,  5-C ) :   1.3917 B(  4-C , 11-Pd) :   0.5068 B(  4-C , 17-H ) :   0.3433
B(  5-C ,  9-H ) :   0.8965 B( 11-Pd, 12-O ) :   0.4552 B( 11-Pd, 13-O ) :   0.5659
B( 11-Pd, 14-O ) :   0.5049 B( 11-Pd, 16-O ) :   0.1301 B( 11-Pd, 17-H ) :   0.1062
B( 12-O , 13-O ) :   0.1135 B( 12-O , 18-C ) :   1.5433 B( 13-O , 18-C ) :   1.4368
B( 14-O , 15-C ) :   1.5355 B( 15-C , 16-O ) :   1.5178 B( 15-C , 20-H ) :   0.8775
B( 16-O , 17-H ) :   0.3371 B( 18-C , 19-H ) :   0.8854

Dispersion correction           -0.013399525
FINAL SINGLE POINT ENERGY      -736.903216649822
Dispersion correction            ... done

DIPOLE MOMENT
-------------
                                X             Y             Z
Electronic contribution:     53.24412      41.36580      -5.31121
Nuclear contribution   :    -54.37114     -41.94605       5.35248
                        -----------------------------------------
Total Dipole Moment    :     -1.12702      -0.58025       0.04127
                        -----------------------------------------
Magnitude (a.u.)       :      1.26830
Magnitude (Debye)      :      3.22376

Rotational constants in cm-1:     0.028135     0.017444     0.012959
Rotational constants in MHz :   843.454025   522.965007   388.511110

                             ****ORCA TERMINATED NORMALLY****
TOTAL RUN TIME: 0 days 0 hours 4 minutes 42 seconds 811 msec
