                         Program Version 5.0.3 -  RELEASE  -
|  1> ! EnGrad PBEh-3c
|  2> %output
|  3> xyzfile=True
|  4> end
|  5> %scf
|  6> maxiter 250
|  7> end
|  8> %output
|  9> Print[P_Hirshfeld] = 1
| 10> end
| 11> % maxcore
| 12> 4000
| 13> *xyz 0 1
| 14> C   -1.58464440   0.19270238  -0.42036626
| 15> C   -2.02099851  -0.84853548  -1.23488282
| 16> C   -1.58374022  -2.14585499  -1.00983120
| 17> C   -0.74910255  -2.39813237   0.06299990
| 18> C   -0.67203542  -0.01422830   0.64941132
| 19> C   -0.32786715  -1.36241069   0.88595923
| 20> H   -1.92029644   1.20507628  -0.62853615
| 21> H   -2.62542788  -0.64134359  -2.09514105
| 22> H   -1.88668254  -2.96020244  -1.66842414
| 23> H    0.34677493  -1.56041720   1.71108268
| 24> H   -0.36711854  -3.38395446   0.22935440
| 25> Pd   1.25038271   0.96593590   0.01108779
| 26> O    3.08006217   1.25486509  -1.29679729
| 27> O    2.52633598  -0.55162753  -0.19068517
| 28> O    0.35270193   2.72382149   0.22890644
| 29> C   -0.06325095   2.89346681   1.33827746
| 30> O   -0.03376335   2.00131481   2.30714076
| 31> H   -0.54291915   1.20289155   1.97895097
| 32> C    3.28120801   0.06480414  -1.00203616
| 33> H    4.13873098  -0.49000532  -1.39717972
| 34> H   -0.60147286   3.83317230   1.51946407
| 35> *
| 36>
| 37>                          ****END OF INPUT****

CARTESIAN COORDINATES (ANGSTROEM)
---------------------------------
  C     -1.584644    0.192702   -0.420366
  C     -2.020999   -0.848535   -1.234883
  C     -1.583740   -2.145855   -1.009831
  C     -0.749103   -2.398132    0.063000
  C     -0.672035   -0.014228    0.649411
  C     -0.327867   -1.362411    0.885959
  H     -1.920296    1.205076   -0.628536
  H     -2.625428   -0.641344   -2.095141
  H     -1.886683   -2.960202   -1.668424
  H      0.346775   -1.560417    1.711083
  H     -0.367119   -3.383954    0.229354
  Pd     1.250383    0.965936    0.011088
  O      3.080062    1.254865   -1.296797
  O      2.526336   -0.551628   -0.190685
  O      0.352702    2.723821    0.228906
  C     -0.063251    2.893467    1.338277
  O     -0.033763    2.001315    2.307141
  H     -0.542919    1.202892    1.978951
  C      3.281208    0.064804   -1.002036
  H      4.138731   -0.490005   -1.397180
  H     -0.601473    3.833172    1.519464

 Total Charge           Charge          ....    0
 Multiplicity           Mult            ....    1
 Number of Electrons    NEL             ....  106
 Basis Dimension        Dim             ....  227

ORBITAL ENERGIES
----------------

  NO   OCC          E(Eh)            E(eV)
   0   2.0000     -19.586209      -532.9678
   1   2.0000     -19.551817      -532.0320
   2   2.0000     -19.513368      -530.9857
   3   2.0000     -19.503556      -530.7187
   4   2.0000     -10.634077      -289.3679
   5   2.0000     -10.571722      -287.6712
   6   2.0000     -10.456971      -284.5486
   7   2.0000     -10.455144      -284.4989
   8   2.0000     -10.450422      -284.3704
   9   2.0000     -10.448233      -284.3109
  10   2.0000     -10.446169      -284.2547
  11   2.0000     -10.444584      -284.2116
  12   2.0000      -3.671431       -99.9047
  13   2.0000      -2.324315       -63.2478
  14   2.0000      -2.311154       -62.8897
  15   2.0000      -2.282783       -62.1177
  16   2.0000      -1.284090       -34.9419
  17   2.0000      -1.209404       -32.9096
  18   2.0000      -1.185910       -32.2703
  19   2.0000      -1.100033       -29.9334
  20   2.0000      -0.951568       -25.8935
  21   2.0000      -0.835499       -22.7351
  22   2.0000      -0.829761       -22.5789
  23   2.0000      -0.760825       -20.7031
  24   2.0000      -0.681371       -18.5411
  25   2.0000      -0.678353       -18.4589
  26   2.0000      -0.672362       -18.2959
  27   2.0000      -0.659697       -17.9513
  28   2.0000      -0.630532       -17.1576
  29   2.0000      -0.589310       -16.0359
  30   2.0000      -0.575935       -15.6720
  31   2.0000      -0.569972       -15.5097
  32   2.0000      -0.539876       -14.6908
  33   2.0000      -0.514440       -13.9986
  34   2.0000      -0.512837       -13.9550
  35   2.0000      -0.508105       -13.8262
  36   2.0000      -0.492081       -13.3902
  37   2.0000      -0.477771       -13.0008
  38   2.0000      -0.452570       -12.3151
  39   2.0000      -0.449251       -12.2247
  40   2.0000      -0.430824       -11.7233
  41   2.0000      -0.426316       -11.6007
  42   2.0000      -0.397896       -10.8273
  43   2.0000      -0.391707       -10.6589
  44   2.0000      -0.384213       -10.4550
  45   2.0000      -0.378337       -10.2951
  46   2.0000      -0.363366        -9.8877
  47   2.0000      -0.353419        -9.6170
  48   2.0000      -0.331112        -9.0100
  49   2.0000      -0.326477        -8.8839
  50   2.0000      -0.297833        -8.1044
  51   2.0000      -0.290455        -7.9037
  52   2.0000      -0.269424        -7.3314
  53   0.0000      -0.091453        -2.4886
  54   0.0000      -0.026134        -0.7111
  55   0.0000       0.017568         0.4781
  56   0.0000       0.018222         0.4958
  57   0.0000       0.040612         1.1051

MULLIKEN ATOMIC CHARGES
-----------------------
   0 C :   -0.170975
   1 C :   -0.221768
   2 C :   -0.213273
   3 C :   -0.214978
   4 C :   -0.469298
   5 C :   -0.177867
   6 H :    0.218142
   7 H :    0.220624
   8 H :    0.225499
   9 H :    0.240321
  10 H :    0.222262
  11 Pd:    0.468453
  12 O :   -0.445998
  13 O :   -0.486486
  14 O :   -0.360051
  15 C :    0.387066
  16 O :   -0.561384
  17 H :    0.513570
  18 C :    0.396620
  19 H :    0.192758
  20 H :    0.236762
Sum of atomic charges:   -0.0000000

LOEWDIN ATOMIC CHARGES
----------------------
   0 C :   -0.097513
   1 C :   -0.141370
   2 C :   -0.109021
   3 C :   -0.136438
   4 C :   -0.203338
   5 C :   -0.083119
   6 H :    0.138719
   7 H :    0.137634
   8 H :    0.139047
   9 H :    0.148854
  10 H :    0.138800
  11 Pd:   -0.238284
  12 O :   -0.181687
  13 O :   -0.156991
  14 O :   -0.013971
  15 C :    0.189697
  16 O :   -0.285537
  17 H :    0.354872
  18 C :    0.148694
  19 H :    0.113577
  20 H :    0.137373

  Mayer bond orders larger than 0.100000
B(  0-C ,  1-C ) :   1.4507 B(  0-C ,  4-C ) :   1.3177 B(  0-C ,  6-H ) :   0.9127
B(  1-C ,  2-C ) :   1.4087 B(  1-C ,  7-H ) :   0.9171 B(  2-C ,  3-C ) :   1.4153
B(  2-C ,  8-H ) :   0.9175 B(  3-C ,  5-C ) :   1.4405 B(  3-C , 10-H ) :   0.9164
B(  4-C ,  5-C ) :   1.3760 B(  4-C , 11-Pd) :   0.6648 B(  4-C , 17-H ) :   0.1527
B(  5-C ,  9-H ) :   0.9074 B( 11-Pd, 12-O ) :   0.3953 B( 11-Pd, 13-O ) :   0.5843
B( 11-Pd, 14-O ) :   0.4406 B( 12-O , 13-O ) :   0.1147 B( 12-O , 18-C ) :   1.6013
B( 13-O , 18-C ) :   1.4002 B( 14-O , 15-C ) :   1.7217 B( 15-C , 16-O ) :   1.2594
B( 15-C , 20-H ) :   0.8769 B( 16-O , 17-H ) :   0.5435 B( 18-C , 19-H ) :   0.8857

Dispersion correction           -0.013569974
FINAL SINGLE POINT ENERGY      -737.067807639070
Dispersion correction            ... done

DIPOLE MOMENT
-------------
                                X             Y             Z
Electronic contribution:     47.02915      36.29596      -0.72154
Nuclear contribution   :    -47.69533     -35.97196       0.84308
                        -----------------------------------------
Total Dipole Moment    :     -0.66618       0.32400       0.12154
                        -----------------------------------------
Magnitude (a.u.)       :      0.75070
Magnitude (Debye)      :      1.90812

Rotational constants in cm-1:     0.028306     0.019364     0.013955
Rotational constants in MHz :   848.584828   580.532362   418.369458

                             ****ORCA TERMINATED NORMALLY****
TOTAL RUN TIME: 0 days 0 hours 4 minutes 27 seconds 644 msec
