                         Program Version 5.0.3 -  RELEASE  -
|  1> ! EnGrad PBEh-3c
|  2> %output
|  3> xyzfile=True
|  4> end
|  5> %scf
|  6> maxiter 250
|  7> end
|  8> %output
|  9> Print[P_Hirshfeld] = 1
| 10> end
| 11> % maxcore
| 12> 4000
| 13> *xyz 0 1
| 14> C   -1.58910439   0.19696225  -0.39703071
| 15> C   -2.01082633  -0.84251578  -1.22480246
| 16> C   -1.56076304  -2.13580856  -1.01473304
| 17> C   -0.74266850  -2.38950187   0.06760567
| 18> C   -0.68602379  -0.02153417   0.66839771
| 19> C   -0.33864912  -1.35864731   0.90938658
| 20> H   -1.93475174   1.21440735  -0.58983584
| 21> H   -2.59710509  -0.62596713  -2.09641349
| 22> H   -1.82133896  -2.93620600  -1.69510223
| 23> H    0.33249493  -1.55158205   1.74385558
| 24> H   -0.34125113  -3.37049543   0.23004205
| 25> Pd   1.23934975   0.94702750   0.00158339
| 26> O    3.02642782   1.24339295  -1.28757221
| 27> O    2.50382403  -0.57053575  -0.18399206
| 28> O    0.34946041   2.69310929   0.23606993
| 29> C   -0.09925883   2.88998243   1.36668323
| 30> O   -0.13500232   2.00692954   2.32383218
| 31> H   -0.37436928   1.17382320   1.78702193
| 32> C    3.24413147   0.05198872  -1.00015932
| 33> H    4.09818294  -0.49853867  -1.39567212
| 34> H   -0.56651489   3.86170880   1.52391822
| 35> *
| 36>
| 37>                          ****END OF INPUT****

CARTESIAN COORDINATES (ANGSTROEM)
---------------------------------
  C     -1.589104    0.196962   -0.397031
  C     -2.010826   -0.842516   -1.224802
  C     -1.560763   -2.135809   -1.014733
  C     -0.742668   -2.389502    0.067606
  C     -0.686024   -0.021534    0.668398
  C     -0.338649   -1.358647    0.909387
  H     -1.934752    1.214407   -0.589836
  H     -2.597105   -0.625967   -2.096413
  H     -1.821339   -2.936206   -1.695102
  H      0.332495   -1.551582    1.743856
  H     -0.341251   -3.370495    0.230042
  Pd     1.239350    0.947028    0.001583
  O      3.026428    1.243393   -1.287572
  O      2.503824   -0.570536   -0.183992
  O      0.349460    2.693109    0.236070
  C     -0.099259    2.889982    1.366683
  O     -0.135002    2.006930    2.323832
  H     -0.374369    1.173823    1.787022
  C      3.244131    0.051989   -1.000159
  H      4.098183   -0.498539   -1.395672
  H     -0.566515    3.861709    1.523918

 Total Charge           Charge          ....    0
 Multiplicity           Mult            ....    1
 Number of Electrons    NEL             ....  106
 Basis Dimension        Dim             ....  227

ORBITAL ENERGIES
----------------

  NO   OCC          E(Eh)            E(eV)
   0   2.0000     -19.575508      -532.6767
   1   2.0000     -19.556381      -532.1562
   2   2.0000     -19.519980      -531.1657
   3   2.0000     -19.512097      -530.9511
   4   2.0000     -10.629725      -289.2495
   5   2.0000     -10.577989      -287.8417
   6   2.0000     -10.457380      -284.5598
   7   2.0000     -10.454266      -284.4750
   8   2.0000     -10.451067      -284.3880
   9   2.0000     -10.448845      -284.3275
  10   2.0000     -10.445450      -284.2352
  11   2.0000     -10.444688      -284.2144
  12   2.0000      -3.678215      -100.0893
  13   2.0000      -2.331319       -63.4384
  14   2.0000      -2.317856       -63.0721
  15   2.0000      -2.289285       -62.2946
  16   2.0000      -1.271349       -34.5952
  17   2.0000      -1.218266       -33.1507
  18   2.0000      -1.178856       -32.0783
  19   2.0000      -1.107821       -30.1453
  20   2.0000      -0.953874       -25.9562
  21   2.0000      -0.835725       -22.7412
  22   2.0000      -0.833556       -22.6822
  23   2.0000      -0.759168       -20.6580
  24   2.0000      -0.687386       -18.7047
  25   2.0000      -0.679761       -18.4972
  26   2.0000      -0.672763       -18.3068
  27   2.0000      -0.646751       -17.5990
  28   2.0000      -0.623390       -16.9633
  29   2.0000      -0.587802       -15.9949
  30   2.0000      -0.579601       -15.7717
  31   2.0000      -0.568405       -15.4671
  32   2.0000      -0.547741       -14.9048
  33   2.0000      -0.521301       -14.1853
  34   2.0000      -0.514441       -13.9987
  35   2.0000      -0.510313       -13.8863
  36   2.0000      -0.493809       -13.4372
  37   2.0000      -0.477758       -13.0005
  38   2.0000      -0.454806       -12.3759
  39   2.0000      -0.449982       -12.2446
  40   2.0000      -0.433751       -11.8030
  41   2.0000      -0.430065       -11.7027
  42   2.0000      -0.400478       -10.8976
  43   2.0000      -0.394794       -10.7429
  44   2.0000      -0.392004       -10.6670
  45   2.0000      -0.383396       -10.4327
  46   2.0000      -0.369058       -10.0426
  47   2.0000      -0.357480        -9.7275
  48   2.0000      -0.335594        -9.1320
  49   2.0000      -0.330881        -9.0037
  50   2.0000      -0.304195        -8.2776
  51   2.0000      -0.290740        -7.9114
  52   2.0000      -0.273532        -7.4432
  53   0.0000      -0.091978        -2.5028
  54   0.0000      -0.019470        -0.5298
  55   0.0000       0.016513         0.4494
  56   0.0000       0.020152         0.5484
  57   0.0000       0.035389         0.9630

MULLIKEN ATOMIC CHARGES
-----------------------
   0 C :   -0.176260
   1 C :   -0.222385
   2 C :   -0.209308
   3 C :   -0.218875
   4 C :   -0.477796
   5 C :   -0.176290
   6 H :    0.217636
   7 H :    0.219675
   8 H :    0.226082
   9 H :    0.237580
  10 H :    0.221276
  11 Pd:    0.471956
  12 O :   -0.445802
  13 O :   -0.483081
  14 O :   -0.407265
  15 C :    0.375663
  16 O :   -0.539508
  17 H :    0.543183
  18 C :    0.403327
  19 H :    0.196895
  20 H :    0.243297
Sum of atomic charges:    0.0000000

LOEWDIN ATOMIC CHARGES
----------------------
   0 C :   -0.095151
   1 C :   -0.138910
   2 C :   -0.111509
   3 C :   -0.134170
   4 C :   -0.205143
   5 C :   -0.084018
   6 H :    0.141268
   7 H :    0.137840
   8 H :    0.139464
   9 H :    0.149348
  10 H :    0.138779
  11 Pd:   -0.232947
  12 O :   -0.171830
  13 O :   -0.150613
  14 O :   -0.060954
  15 C :    0.191853
  16 O :   -0.267180
  17 H :    0.342319
  18 C :    0.154416
  19 H :    0.116061
  20 H :    0.141076

  Mayer bond orders larger than 0.100000
B(  0-C ,  1-C ) :   1.4438 B(  0-C ,  4-C ) :   1.3248 B(  0-C ,  6-H ) :   0.9145
B(  1-C ,  2-C ) :   1.4079 B(  1-C ,  7-H ) :   0.9182 B(  2-C ,  3-C ) :   1.4169
B(  2-C ,  8-H ) :   0.9177 B(  3-C ,  5-C ) :   1.4311 B(  3-C , 10-H ) :   0.9175
B(  4-C ,  5-C ) :   1.3783 B(  4-C , 11-Pd) :   0.6168 B(  4-C , 17-H ) :   0.2015
B(  5-C ,  9-H ) :   0.9096 B( 11-Pd, 12-O ) :   0.4197 B( 11-Pd, 13-O ) :   0.5827
B( 11-Pd, 14-O ) :   0.4735 B( 12-O , 13-O ) :   0.1150 B( 12-O , 18-C ) :   1.5808
B( 13-O , 18-C ) :   1.4072 B( 14-O , 15-C ) :   1.6301 B( 15-C , 16-O ) :   1.3577
B( 15-C , 20-H ) :   0.8784 B( 16-O , 17-H ) :   0.4617 B( 18-C , 19-H ) :   0.8868

Dispersion correction           -0.013642192
FINAL SINGLE POINT ENERGY      -737.078864537899
Dispersion correction            ... done

DIPOLE MOMENT
-------------
                                X             Y             Z
Electronic contribution:     47.31367      35.47501      -1.54185
Nuclear contribution   :    -47.70500     -35.24343       1.50349
                        -----------------------------------------
Total Dipole Moment    :     -0.39133       0.23157      -0.03836
                        -----------------------------------------
Magnitude (a.u.)       :      0.45633
Magnitude (Debye)      :      1.15989

Rotational constants in cm-1:     0.028139     0.019741     0.014085
Rotational constants in MHz :   843.573756   591.811040   422.251454

                             ****ORCA TERMINATED NORMALLY****
TOTAL RUN TIME: 0 days 0 hours 4 minutes 11 seconds 73 msec
