                         Program Version 5.0.3 -  RELEASE  -
|  1> ! EnGrad PBEh-3c
|  2> %output
|  3> xyzfile=True
|  4> end
|  5> %scf
|  6> maxiter 250
|  7> end
|  8> %output
|  9> Print[P_Hirshfeld] = 1
| 10> end
| 11> % maxcore
| 12> 4000
| 13> *xyz 0 1
| 14> C   -1.57689164   0.19826238  -0.40713242
| 15> C   -2.01522887  -0.84147316  -1.22067642
| 16> C   -1.56854727  -2.13577255  -1.00801418
| 17> C   -0.74824651  -2.39180034   0.07771110
| 18> C   -0.65197115  -0.03457652   0.62395684
| 19> C   -0.32693614  -1.36035345   0.90416209
| 20> H   -1.92303127   1.21276267  -0.60526486
| 21> H   -2.61412657  -0.62201527  -2.09124721
| 22> H   -1.82469293  -2.92678990  -1.68614546
| 23> H    0.34649243  -1.55952419   1.73372962
| 24> H   -0.34984786  -3.38123004   0.24033155
| 25> Pd   1.24001383   0.94553869  -0.01745256
| 26> O    3.01429524   1.24063978  -1.26206846
| 27> O    2.49801779  -0.58943377  -0.20060939
| 28> O    0.34099027   2.69007223   0.23631986
| 29> C   -0.11958809   2.89776353   1.38067132
| 30> O   -0.15290457   2.06407397   2.32597235
| 31> H   -0.36525130   1.14345422   1.79245646
| 32> C    3.25228398   0.04814768  -0.98968216
| 33> H    4.10668858  -0.49408854  -1.40034715
| 34> H   -0.56608741   3.87234950   1.54397083
| 35> *
| 36>
| 37>                          ****END OF INPUT****

CARTESIAN COORDINATES (ANGSTROEM)
---------------------------------
  C     -1.576892    0.198262   -0.407132
  C     -2.015229   -0.841473   -1.220676
  C     -1.568547   -2.135773   -1.008014
  C     -0.748247   -2.391800    0.077711
  C     -0.651971   -0.034577    0.623957
  C     -0.326936   -1.360353    0.904162
  H     -1.923031    1.212763   -0.605265
  H     -2.614127   -0.622015   -2.091247
  H     -1.824693   -2.926790   -1.686145
  H      0.346492   -1.559524    1.733730
  H     -0.349848   -3.381230    0.240332
  Pd     1.240014    0.945539   -0.017453
  O      3.014295    1.240640   -1.262068
  O      2.498018   -0.589434   -0.200609
  O      0.340990    2.690072    0.236320
  C     -0.119588    2.897764    1.380671
  O     -0.152905    2.064074    2.325972
  H     -0.365251    1.143454    1.792456
  C      3.252284    0.048148   -0.989682
  H      4.106689   -0.494089   -1.400347
  H     -0.566087    3.872349    1.543971

 Total Charge           Charge          ....    0
 Multiplicity           Mult            ....    1
 Number of Electrons    NEL             ....  106
 Basis Dimension        Dim             ....  227

ORBITAL ENERGIES
----------------

  NO   OCC          E(Eh)            E(eV)
   0   2.0000     -19.562801      -532.3309
   1   2.0000     -19.559338      -532.2366
   2   2.0000     -19.519116      -531.1422
   3   2.0000     -19.512392      -530.9592
   4   2.0000     -10.621461      -289.0246
   5   2.0000     -10.578334      -287.8511
   6   2.0000     -10.457889      -284.5736
   7   2.0000     -10.454540      -284.4825
   8   2.0000     -10.451865      -284.4097
   9   2.0000     -10.450329      -284.3679
  10   2.0000     -10.448153      -284.3087
  11   2.0000     -10.447436      -284.2892
  12   2.0000      -3.676320      -100.0378
  13   2.0000      -2.328492       -63.3615
  14   2.0000      -2.316709       -63.0408
  15   2.0000      -2.287265       -62.2396
  16   2.0000      -1.267609       -34.4934
  17   2.0000      -1.219367       -33.1807
  18   2.0000      -1.169900       -31.8346
  19   2.0000      -1.106934       -30.1212
  20   2.0000      -0.957127       -26.0448
  21   2.0000      -0.838754       -22.8236
  22   2.0000      -0.835657       -22.7394
  23   2.0000      -0.753173       -20.4949
  24   2.0000      -0.687439       -18.7062
  25   2.0000      -0.681200       -18.5364
  26   2.0000      -0.673877       -18.3371
  27   2.0000      -0.640216       -17.4212
  28   2.0000      -0.618715       -16.8361
  29   2.0000      -0.588802       -16.0221
  30   2.0000      -0.579399       -15.7663
  31   2.0000      -0.565432       -15.3862
  32   2.0000      -0.548302       -14.9200
  33   2.0000      -0.521358       -14.1869
  34   2.0000      -0.514604       -14.0031
  35   2.0000      -0.512616       -13.9490
  36   2.0000      -0.485054       -13.1990
  37   2.0000      -0.480331       -13.0705
  38   2.0000      -0.453806       -12.3487
  39   2.0000      -0.448555       -12.2058
  40   2.0000      -0.437023       -11.8920
  41   2.0000      -0.427622       -11.6362
  42   2.0000      -0.400095       -10.8871
  43   2.0000      -0.398192       -10.8354
  44   2.0000      -0.391764       -10.6604
  45   2.0000      -0.382159       -10.3991
  46   2.0000      -0.367096        -9.9892
  47   2.0000      -0.355594        -9.6762
  48   2.0000      -0.333887        -9.0855
  49   2.0000      -0.329197        -8.9579
  50   2.0000      -0.305770        -8.3204
  51   2.0000      -0.292802        -7.9675
  52   2.0000      -0.275461        -7.4957
  53   0.0000      -0.087218        -2.3733
  54   0.0000      -0.009663        -0.2629
  55   0.0000       0.015700         0.4272
  56   0.0000       0.019119         0.5203
  57   0.0000       0.035324         0.9612

MULLIKEN ATOMIC CHARGES
-----------------------
   0 C :   -0.170730
   1 C :   -0.226721
   2 C :   -0.206004
   3 C :   -0.225085
   4 C :   -0.489148
   5 C :   -0.160787
   6 H :    0.223524
   7 H :    0.220452
   8 H :    0.227493
   9 H :    0.239181
  10 H :    0.221719
  11 Pd:    0.480407
  12 O :   -0.448658
  13 O :   -0.481239
  14 O :   -0.434241
  15 C :    0.376946
  16 O :   -0.508854
  17 H :    0.519250
  18 C :    0.405589
  19 H :    0.198047
  20 H :    0.238860
Sum of atomic charges:    0.0000000

LOEWDIN ATOMIC CHARGES
----------------------
   0 C :   -0.093036
   1 C :   -0.136782
   2 C :   -0.112230
   3 C :   -0.131906
   4 C :   -0.199924
   5 C :   -0.083785
   6 H :    0.144699
   7 H :    0.138209
   8 H :    0.139585
   9 H :    0.150515
  10 H :    0.139003
  11 Pd:   -0.241292
  12 O :   -0.168177
  13 O :   -0.151241
  14 O :   -0.088529
  15 C :    0.171232
  16 O :   -0.243811
  17 H :    0.357369
  18 C :    0.156131
  19 H :    0.117144
  20 H :    0.136829

  Mayer bond orders larger than 0.100000
B(  0-C ,  1-C ) :   1.4427 B(  0-C ,  4-C ) :   1.3357 B(  0-C ,  6-H ) :   0.9130
B(  1-C ,  2-C ) :   1.4120 B(  1-C ,  7-H ) :   0.9175 B(  2-C ,  3-C ) :   1.4156
B(  2-C ,  8-H ) :   0.9174 B(  3-C ,  5-C ) :   1.4357 B(  3-C , 10-H ) :   0.9171
B(  4-C ,  5-C ) :   1.3696 B(  4-C , 11-Pd) :   0.6106 B(  4-C , 17-H ) :   0.2290
B(  5-C ,  9-H ) :   0.9099 B( 11-Pd, 12-O ) :   0.4355 B( 11-Pd, 13-O ) :   0.5743
B( 11-Pd, 14-O ) :   0.4894 B( 12-O , 13-O ) :   0.1150 B( 12-O , 18-C ) :   1.5629
B( 13-O , 18-C ) :   1.4169 B( 14-O , 15-C ) :   1.5801 B( 15-C , 16-O ) :   1.4254
B( 15-C , 20-H ) :   0.8792 B( 16-O , 17-H ) :   0.4416 B( 18-C , 19-H ) :   0.8868

Dispersion correction           -0.013630154
FINAL SINGLE POINT ENERGY      -737.087934417978
Dispersion correction            ... done

DIPOLE MOMENT
-------------
                                X             Y             Z
Electronic contribution:     47.38658      35.20729      -2.35600
Nuclear contribution   :    -47.79733     -35.11998       2.35833
                        -----------------------------------------
Total Dipole Moment    :     -0.41076       0.08732       0.00233
                        -----------------------------------------
Magnitude (a.u.)       :      0.41994
Magnitude (Debye)      :      1.06741

Rotational constants in cm-1:     0.027998     0.019802     0.014046
Rotational constants in MHz :   839.355431   593.660578   421.101550

                             ****ORCA TERMINATED NORMALLY****
TOTAL RUN TIME: 0 days 0 hours 3 minutes 53 seconds 874 msec
