                         Program Version 5.0.3 -  RELEASE  -
|  1> ! EnGrad PBEh-3c
|  2> %output
|  3> xyzfile=True
|  4> end
|  5> %scf
|  6> maxiter 250
|  7> end
|  8> %output
|  9> Print[P_Hirshfeld] = 1
| 10> end
| 11> % maxcore
| 12> 4000
| 13> *xyz 0 1
| 14> C   -1.56543189   0.19913733  -0.41432954
| 15> C   -2.01957332  -0.83845528  -1.21795945
| 16> C   -1.56874938  -2.13365126  -1.00224524
| 17> C   -0.75163384  -2.39590117   0.08944723
| 18> C   -0.60733180  -0.03250694   0.58699153
| 19> C   -0.31393936  -1.36035350   0.89632114
| 20> H   -1.90992783   1.20897943  -0.61176581
| 21> H   -2.62604617  -0.62013013  -2.08975747
| 22> H   -1.82344062  -2.92886864  -1.69205543
| 23> H    0.35371561  -1.56125066   1.72308013
| 24> H   -0.35611740  -3.39050707   0.24746010
| 25> Pd   1.22360603   0.93857601  -0.01782795
| 26> O    3.00652960   1.23653876  -1.24830610
| 27> O    2.48832528  -0.60475092  -0.21138705
| 28> O    0.32851364   2.69387349   0.24736633
| 29> C   -0.12532061   2.91052847   1.37306068
| 30> O   -0.17940075   2.08132583   2.33257620
| 31> H   -0.35680235   1.13515024   1.81001496
| 32> C    3.25500382   0.04397814  -0.98191452
| 33> H    4.11038931  -0.49313289  -1.40763399
| 34> H   -0.56776565   3.88462113   1.55679137
| 35> *
| 36>
| 37>                          ****END OF INPUT****

CARTESIAN COORDINATES (ANGSTROEM)
---------------------------------
  C     -1.565432    0.199137   -0.414330
  C     -2.019573   -0.838455   -1.217959
  C     -1.568749   -2.133651   -1.002245
  C     -0.751634   -2.395901    0.089447
  C     -0.607332   -0.032507    0.586992
  C     -0.313939   -1.360353    0.896321
  H     -1.909928    1.208979   -0.611766
  H     -2.626046   -0.620130   -2.089757
  H     -1.823441   -2.928869   -1.692055
  H      0.353716   -1.561251    1.723080
  H     -0.356117   -3.390507    0.247460
  Pd     1.223606    0.938576   -0.017828
  O      3.006530    1.236539   -1.248306
  O      2.488325   -0.604751   -0.211387
  O      0.328514    2.693873    0.247366
  C     -0.125321    2.910528    1.373061
  O     -0.179401    2.081326    2.332576
  H     -0.356802    1.135150    1.810015
  C      3.255004    0.043978   -0.981915
  H      4.110389   -0.493133   -1.407634
  H     -0.567766    3.884621    1.556791

 Total Charge           Charge          ....    0
 Multiplicity           Mult            ....    1
 Number of Electrons    NEL             ....  106
 Basis Dimension        Dim             ....  227

ORBITAL ENERGIES
----------------

  NO   OCC          E(Eh)            E(eV)
   0   2.0000     -19.564451      -532.3758
   1   2.0000     -19.559810      -532.2495
   2   2.0000     -19.516087      -531.0597
   3   2.0000     -19.509095      -530.8695
   4   2.0000     -10.620509      -288.9987
   5   2.0000     -10.576515      -287.8016
   6   2.0000     -10.458545      -284.5915
   7   2.0000     -10.456112      -284.5253
   8   2.0000     -10.452205      -284.4190
   9   2.0000     -10.451723      -284.4058
  10   2.0000     -10.451106      -284.3891
  11   2.0000     -10.448574      -284.3201
  12   2.0000      -3.674436       -99.9865
  13   2.0000      -2.325441       -63.2785
  14   2.0000      -2.315981       -63.0210
  15   2.0000      -2.285431       -62.1898
  16   2.0000      -1.268335       -34.5131
  17   2.0000      -1.215579       -33.0776
  18   2.0000      -1.173325       -31.9278
  19   2.0000      -1.102767       -30.0078
  20   2.0000      -0.958056       -26.0700
  21   2.0000      -0.840687       -22.8762
  22   2.0000      -0.835593       -22.7376
  23   2.0000      -0.752373       -20.4731
  24   2.0000      -0.684811       -18.6346
  25   2.0000      -0.681598       -18.5472
  26   2.0000      -0.674738       -18.3605
  27   2.0000      -0.639606       -17.4046
  28   2.0000      -0.619528       -16.8582
  29   2.0000      -0.589308       -16.0359
  30   2.0000      -0.576230       -15.6800
  31   2.0000      -0.564912       -15.3720
  32   2.0000      -0.545412       -14.8414
  33   2.0000      -0.518344       -14.1049
  34   2.0000      -0.516259       -14.0481
  35   2.0000      -0.513369       -13.9695
  36   2.0000      -0.487456       -13.2644
  37   2.0000      -0.482515       -13.1299
  38   2.0000      -0.453487       -12.3400
  39   2.0000      -0.447186       -12.1685
  40   2.0000      -0.438760       -11.9393
  41   2.0000      -0.427465       -11.6319
  42   2.0000      -0.400393       -10.8953
  43   2.0000      -0.399362       -10.8672
  44   2.0000      -0.390011       -10.6127
  45   2.0000      -0.379964       -10.3393
  46   2.0000      -0.365902        -9.9567
  47   2.0000      -0.355395        -9.6708
  48   2.0000      -0.333735        -9.0814
  49   2.0000      -0.328541        -8.9401
  50   2.0000      -0.306349        -8.3362
  51   2.0000      -0.293804        -7.9948
  52   2.0000      -0.274096        -7.4585
  53   0.0000      -0.083667        -2.2767
  54   0.0000      -0.006417        -0.1746
  55   0.0000       0.015082         0.4104
  56   0.0000       0.017385         0.4731
  57   0.0000       0.036675         0.9980

MULLIKEN ATOMIC CHARGES
-----------------------
   0 C :   -0.167852
   1 C :   -0.225638
   2 C :   -0.210177
   3 C :   -0.223221
   4 C :   -0.496695
   5 C :   -0.151844
   6 H :    0.225432
   7 H :    0.221775
   8 H :    0.226947
   9 H :    0.240730
  10 H :    0.223230
  11 Pd:    0.475726
  12 O :   -0.451032
  13 O :   -0.481829
  14 O :   -0.419734
  15 C :    0.376604
  16 O :   -0.514895
  17 H :    0.513212
  18 C :    0.403953
  19 H :    0.197494
  20 H :    0.237815
Sum of atomic charges:   -0.0000000

LOEWDIN ATOMIC CHARGES
----------------------
   0 C :   -0.091248
   1 C :   -0.136959
   2 C :   -0.111878
   3 C :   -0.132003
   4 C :   -0.188380
   5 C :   -0.081415
   6 H :    0.145577
   7 H :    0.139206
   8 H :    0.139471
   9 H :    0.151235
  10 H :    0.140070
  11 Pd:   -0.256768
  12 O :   -0.172334
  13 O :   -0.155979
  14 O :   -0.074263
  15 C :    0.164865
  16 O :   -0.250588
  17 H :    0.362639
  18 C :    0.155689
  19 H :    0.117034
  20 H :    0.136029

  Mayer bond orders larger than 0.100000
B(  0-C ,  1-C ) :   1.4435 B(  0-C ,  4-C ) :   1.3393 B(  0-C ,  6-H ) :   0.9120
B(  1-C ,  2-C ) :   1.4126 B(  1-C ,  7-H ) :   0.9168 B(  2-C ,  3-C ) :   1.4128
B(  2-C ,  8-H ) :   0.9174 B(  3-C ,  5-C ) :   1.4402 B(  3-C , 10-H ) :   0.9165
B(  4-C ,  5-C ) :   1.3606 B(  4-C , 11-Pd) :   0.6565 B(  4-C , 17-H ) :   0.2058
B(  5-C ,  9-H ) :   0.9095 B( 11-Pd, 12-O ) :   0.4303 B( 11-Pd, 13-O ) :   0.5692
B( 11-Pd, 14-O ) :   0.4737 B( 12-O , 13-O ) :   0.1149 B( 12-O , 18-C ) :   1.5616
B( 13-O , 18-C ) :   1.4190 B( 14-O , 15-C ) :   1.6089 B( 15-C , 16-O ) :   1.4038
B( 15-C , 20-H ) :   0.8788 B( 16-O , 17-H ) :   0.4659 B( 18-C , 19-H ) :   0.8860

Dispersion correction           -0.013645026
FINAL SINGLE POINT ENERGY      -737.093263059648
Dispersion correction            ... done

DIPOLE MOMENT
-------------
                                X             Y             Z
Electronic contribution:     46.64135      34.88244      -2.35119
Nuclear contribution   :    -47.11037     -34.78989       2.37433
                        -----------------------------------------
Total Dipole Moment    :     -0.46902       0.09255       0.02315
                        -----------------------------------------
Magnitude (a.u.)       :      0.47863
Magnitude (Debye)      :      1.21657

Rotational constants in cm-1:     0.027913     0.019938     0.014074
Rotational constants in MHz :   836.825443   597.729633   421.938503

                             ****ORCA TERMINATED NORMALLY****
TOTAL RUN TIME: 0 days 0 hours 4 minutes 12 seconds 687 msec
