                         Program Version 5.0.3 -  RELEASE  -
|  1> ! EnGrad PBEh-3c
|  2> %output
|  3> xyzfile=True
|  4> end
|  5> %scf
|  6> maxiter 250
|  7> end
|  8> %output
|  9> Print[P_Hirshfeld] = 1
| 10> end
| 11> % maxcore
| 12> 4000
| 13> *xyz 0 1
| 14> C   -1.54144667   0.19910876  -0.43431210
| 15> C   -2.02916912  -0.83941849  -1.21938977
| 16> C   -1.57892846  -2.13682427  -0.99351045
| 17> C   -0.76029645  -2.40664549   0.09791451
| 18> C   -0.54810241  -0.03411669   0.53296793
| 19> C   -0.29005479  -1.36092593   0.87564195
| 20> H   -1.88639355   1.20410538  -0.63875640
| 21> H   -2.65331506  -0.62312032  -2.08156115
| 22> H   -1.84370670  -2.93439104  -1.68518629
| 23> H    0.37506209  -1.56929900   1.69836504
| 24> H   -0.37762738  -3.40641402   0.26013887
| 25> Pd   1.21255731   0.93914935  -0.02311907
| 26> O    3.01496238   1.23548767  -1.22592745
| 27> O    2.48548655  -0.62330465  -0.23010861
| 28> O    0.31825394   2.70779841   0.23930612
| 29> C   -0.13418620   2.93425915   1.37645616
| 30> O   -0.19122663   2.08477062   2.33053176
| 31> H   -0.39248780   1.15274140   1.90343875
| 32> C    3.26498884   0.03928252  -0.97542406
| 33> H    4.12858107  -0.48596528  -1.41449857
| 34> H   -0.57935965   3.89371253   1.57262696
| 35> *
| 36>
| 37>                          ****END OF INPUT****

CARTESIAN COORDINATES (ANGSTROEM)
---------------------------------
  C     -1.541447    0.199109   -0.434312
  C     -2.029169   -0.839418   -1.219390
  C     -1.578928   -2.136824   -0.993510
  C     -0.760296   -2.406645    0.097915
  C     -0.548102   -0.034117    0.532968
  C     -0.290055   -1.360926    0.875642
  H     -1.886394    1.204105   -0.638756
  H     -2.653315   -0.623120   -2.081561
  H     -1.843707   -2.934391   -1.685186
  H      0.375062   -1.569299    1.698365
  H     -0.377627   -3.406414    0.260139
  Pd     1.212557    0.939149   -0.023119
  O      3.014962    1.235488   -1.225927
  O      2.485487   -0.623305   -0.230109
  O      0.318254    2.707798    0.239306
  C     -0.134186    2.934259    1.376456
  O     -0.191227    2.084771    2.330532
  H     -0.392488    1.152741    1.903439
  C      3.264989    0.039283   -0.975424
  H      4.128581   -0.485965   -1.414499
  H     -0.579360    3.893713    1.572627

 Total Charge           Charge          ....    0
 Multiplicity           Mult            ....    1
 Number of Electrons    NEL             ....  106
 Basis Dimension        Dim             ....  227

ORBITAL ENERGIES
----------------

  NO   OCC          E(Eh)            E(eV)
   0   2.0000     -19.571588      -532.5700
   1   2.0000     -19.569670      -532.5178
   2   2.0000     -19.508495      -530.8531
   3   2.0000     -19.500643      -530.6395
   4   2.0000     -10.630421      -289.2685
   5   2.0000     -10.570408      -287.6354
   6   2.0000     -10.456355      -284.5319
   7   2.0000     -10.453614      -284.4573
   8   2.0000     -10.451298      -284.3943
   9   2.0000     -10.450575      -284.3746
  10   2.0000     -10.449887      -284.3559
  11   2.0000     -10.447342      -284.2866
  12   2.0000      -3.667746       -99.8044
  13   2.0000      -2.317081       -63.0510
  14   2.0000      -2.310797       -62.8800
  15   2.0000      -2.279148       -62.0188
  16   2.0000      -1.272171       -34.6175
  17   2.0000      -1.207492       -32.8575
  18   2.0000      -1.177418       -32.0392
  19   2.0000      -1.094463       -29.7819
  20   2.0000      -0.955377       -25.9971
  21   2.0000      -0.838990       -22.8301
  22   2.0000      -0.832779       -22.6611
  23   2.0000      -0.770107       -20.9557
  24   2.0000      -0.680955       -18.5297
  25   2.0000      -0.676478       -18.4079
  26   2.0000      -0.672916       -18.3110
  27   2.0000      -0.650514       -17.7014
  28   2.0000      -0.624778       -17.0011
  29   2.0000      -0.587298       -15.9812
  30   2.0000      -0.570136       -15.5142
  31   2.0000      -0.565035       -15.3754
  32   2.0000      -0.538468       -14.6525
  33   2.0000      -0.516182       -14.0460
  34   2.0000      -0.513228       -13.9657
  35   2.0000      -0.508817       -13.8456
  36   2.0000      -0.491146       -13.3648
  37   2.0000      -0.481922       -13.1138
  38   2.0000      -0.453273       -12.3342
  39   2.0000      -0.447058       -12.1651
  40   2.0000      -0.438168       -11.9232
  41   2.0000      -0.431696       -11.7470
  42   2.0000      -0.401082       -10.9140
  43   2.0000      -0.395945       -10.7742
  44   2.0000      -0.384367       -10.4592
  45   2.0000      -0.374090       -10.1795
  46   2.0000      -0.361252        -9.8302
  47   2.0000      -0.350422        -9.5355
  48   2.0000      -0.329423        -8.9641
  49   2.0000      -0.324523        -8.8307
  50   2.0000      -0.302711        -8.2372
  51   2.0000      -0.291348        -7.9280
  52   2.0000      -0.268725        -7.3124
  53   0.0000      -0.074379        -2.0240
  54   0.0000      -0.019475        -0.5299
  55   0.0000       0.015825         0.4306
  56   0.0000       0.018383         0.5002
  57   0.0000       0.040813         1.1106

MULLIKEN ATOMIC CHARGES
-----------------------
   0 C :   -0.169872
   1 C :   -0.224156
   2 C :   -0.216613
   3 C :   -0.220314
   4 C :   -0.482429
   5 C :   -0.153635
   6 H :    0.225456
   7 H :    0.222314
   8 H :    0.224378
   9 H :    0.240722
  10 H :    0.224006
  11 Pd:    0.461672
  12 O :   -0.456144
  13 O :   -0.481974
  14 O :   -0.417504
  15 C :    0.388060
  16 O :   -0.524830
  17 H :    0.518803
  18 C :    0.399735
  19 H :    0.193723
  20 H :    0.248603
Sum of atomic charges:    0.0000000

LOEWDIN ATOMIC CHARGES
----------------------
   0 C :   -0.094841
   1 C :   -0.137481
   2 C :   -0.115513
   3 C :   -0.132280
   4 C :   -0.171980
   5 C :   -0.083554
   6 H :    0.145034
   7 H :    0.139528
   8 H :    0.138153
   9 H :    0.150770
  10 H :    0.140692
  11 Pd:   -0.280465
  12 O :   -0.180356
  13 O :   -0.162814
  14 O :   -0.073083
  15 C :    0.184216
  16 O :   -0.240720
  17 H :    0.366583
  18 C :    0.151748
  19 H :    0.115166
  20 H :    0.141196

  Mayer bond orders larger than 0.100000
B(  0-C ,  1-C ) :   1.4455 B(  0-C ,  4-C ) :   1.3426 B(  0-C ,  6-H ) :   0.9102
B(  1-C ,  2-C ) :   1.4140 B(  1-C ,  7-H ) :   0.9162 B(  2-C ,  3-C ) :   1.4148
B(  2-C ,  8-H ) :   0.9179 B(  3-C ,  5-C ) :   1.4420 B(  3-C , 10-H ) :   0.9160
B(  4-C ,  5-C ) :   1.3617 B(  4-C , 11-Pd) :   0.7361 B(  4-C , 17-H ) :   0.1490
B(  5-C ,  9-H ) :   0.9084 B( 11-Pd, 12-O ) :   0.4192 B( 11-Pd, 13-O ) :   0.5575
B( 11-Pd, 14-O ) :   0.4549 B( 12-O , 13-O ) :   0.1149 B( 12-O , 18-C ) :   1.5611
B( 13-O , 18-C ) :   1.4270 B( 14-O , 15-C ) :   1.6343 B( 15-C , 16-O ) :   1.3549
B( 15-C , 20-H ) :   0.8773 B( 16-O , 17-H ) :   0.5252 B( 18-C , 19-H ) :   0.8853

Dispersion correction           -0.013623907
FINAL SINGLE POINT ENERGY      -737.098176220704
Dispersion correction            ... done

DIPOLE MOMENT
-------------
                                X             Y             Z
Electronic contribution:     45.89537      35.10153      -2.22674
Nuclear contribution   :    -46.54132     -34.82162       2.49567
                        -----------------------------------------
Total Dipole Moment    :     -0.64595       0.27991       0.26893
                        -----------------------------------------
Magnitude (a.u.)       :      0.75361
Magnitude (Debye)      :      1.91553

Rotational constants in cm-1:     0.027830     0.019958     0.014051
Rotational constants in MHz :   834.309043   598.316804   421.232133

                             ****ORCA TERMINATED NORMALLY****
TOTAL RUN TIME: 0 days 0 hours 4 minutes 16 seconds 770 msec
