                         Program Version 5.0.3 -  RELEASE  -
|  1> ! EnGrad PBEh-3c
|  2> %output
|  3> xyzfile=True
|  4> end
|  5> %scf
|  6> maxiter 250
|  7> end
|  8> %output
|  9> Print[P_Hirshfeld] = 1
| 10> end
| 11> % maxcore
| 12> 4000
| 13> *xyz 0 1
| 14> C   -1.50511906   0.19670009  -0.46737076
| 15> C   -2.04121273  -0.84489983  -1.21972262
| 16> C   -1.59850592  -2.14482441  -0.98296007
| 17> C   -0.77557773  -2.42011205   0.10487825
| 18> C   -0.46992312  -0.03990455   0.45663096
| 19> C   -0.25505455  -1.36505952   0.84231676
| 20> H   -1.84910584   1.20016421  -0.68247772
| 21> H   -2.69473839  -0.62888430  -2.06552439
| 22> H   -1.87812014  -2.94072575  -1.66831422
| 23> H    0.41214529  -1.58183366   1.66136309
| 24> H   -0.41336903  -3.42914386   0.28063940
| 25> Pd   1.20146558   0.94196461  -0.03335308
| 26> O    3.03416467   1.23649823  -1.19109679
| 27> O    2.48366254  -0.64930153  -0.25841559
| 28> O    0.29371890   2.73632111   0.25157142
| 29> C   -0.13636054   2.94792660   1.35224075
| 30> O   -0.21047654   2.08900848   2.33749513
| 31> H   -0.44127979   1.18884069   2.03771216
| 32> C    3.27786212   0.03267614  -0.96906508
| 33> H    4.15529068  -0.47220331  -1.42029292
| 34> H   -0.59767736   3.91178112   1.59561509
| 35> *
| 36>
| 37>                          ****END OF INPUT****

CARTESIAN COORDINATES (ANGSTROEM)
---------------------------------
  C     -1.505119    0.196700   -0.467371
  C     -2.041213   -0.844900   -1.219723
  C     -1.598506   -2.144824   -0.982960
  C     -0.775578   -2.420112    0.104878
  C     -0.469923   -0.039905    0.456631
  C     -0.255055   -1.365060    0.842317
  H     -1.849106    1.200164   -0.682478
  H     -2.694738   -0.628884   -2.065524
  H     -1.878120   -2.940726   -1.668314
  H      0.412145   -1.581834    1.661363
  H     -0.413369   -3.429144    0.280639
  Pd     1.201466    0.941965   -0.033353
  O      3.034165    1.236498   -1.191097
  O      2.483663   -0.649302   -0.258416
  O      0.293719    2.736321    0.251571
  C     -0.136361    2.947927    1.352241
  O     -0.210477    2.089008    2.337495
  H     -0.441280    1.188841    2.037712
  C      3.277862    0.032676   -0.969065
  H      4.155291   -0.472203   -1.420293
  H     -0.597677    3.911781    1.595615

 Total Charge           Charge          ....    0
 Multiplicity           Mult            ....    1
 Number of Electrons    NEL             ....  106
 Basis Dimension        Dim             ....  227

ORBITAL ENERGIES
----------------

  NO   OCC          E(Eh)            E(eV)
   0   2.0000     -19.581224      -532.8322
   1   2.0000     -19.573870      -532.6321
   2   2.0000     -19.501976      -530.6757
   3   2.0000     -19.492228      -530.4105
   4   2.0000     -10.637756      -289.4681
   5   2.0000     -10.564802      -287.4829
   6   2.0000     -10.454820      -284.4901
   7   2.0000     -10.454244      -284.4744
   8   2.0000     -10.450205      -284.3645
   9   2.0000     -10.449201      -284.3372
  10   2.0000     -10.448513      -284.3185
  11   2.0000     -10.446955      -284.2761
  12   2.0000      -3.662971       -99.6745
  13   2.0000      -2.310793       -62.8799
  14   2.0000      -2.307730       -62.7965
  15   2.0000      -2.275222       -61.9119
  16   2.0000      -1.285035       -34.9676
  17   2.0000      -1.199979       -32.6531
  18   2.0000      -1.196989       -32.5717
  19   2.0000      -1.086901       -29.5761
  20   2.0000      -0.953208       -25.9381
  21   2.0000      -0.837148       -22.7799
  22   2.0000      -0.830906       -22.6101
  23   2.0000      -0.783479       -21.3196
  24   2.0000      -0.679290       -18.4844
  25   2.0000      -0.673776       -18.3344
  26   2.0000      -0.671036       -18.2598
  27   2.0000      -0.661406       -17.9978
  28   2.0000      -0.631808       -17.1924
  29   2.0000      -0.587952       -15.9990
  30   2.0000      -0.573221       -15.5981
  31   2.0000      -0.559977       -15.2377
  32   2.0000      -0.532280       -14.4841
  33   2.0000      -0.515939       -14.0394
  34   2.0000      -0.511709       -13.9243
  35   2.0000      -0.502896       -13.6845
  36   2.0000      -0.497235       -13.5304
  37   2.0000      -0.480645       -13.0790
  38   2.0000      -0.454219       -12.3599
  39   2.0000      -0.449192       -12.2231
  40   2.0000      -0.441526       -12.0145
  41   2.0000      -0.434183       -11.8147
  42   2.0000      -0.402670       -10.9572
  43   2.0000      -0.393430       -10.7058
  44   2.0000      -0.380636       -10.3576
  45   2.0000      -0.370615       -10.0849
  46   2.0000      -0.359029        -9.7697
  47   2.0000      -0.346533        -9.4297
  48   2.0000      -0.327382        -8.9085
  49   2.0000      -0.322950        -8.7879
  50   2.0000      -0.300766        -8.1842
  51   2.0000      -0.289147        -7.8681
  52   2.0000      -0.263843        -7.1795
  53   0.0000      -0.064286        -1.7493
  54   0.0000      -0.021678        -0.5899
  55   0.0000       0.015820         0.4305
  56   0.0000       0.018652         0.5075
  57   0.0000       0.043237         1.1765

MULLIKEN ATOMIC CHARGES
-----------------------
   0 C :   -0.182708
   1 C :   -0.221413
   2 C :   -0.223111
   3 C :   -0.217026
   4 C :   -0.428328
   5 C :   -0.168342
   6 H :    0.224558
   7 H :    0.222547
   8 H :    0.222045
   9 H :    0.240887
  10 H :    0.224689
  11 Pd:    0.435946
  12 O :   -0.463253
  13 O :   -0.479085
  14 O :   -0.366819
  15 C :    0.385400
  16 O :   -0.554666
  17 H :    0.517953
  18 C :    0.394675
  19 H :    0.189988
  20 H :    0.246065
Sum of atomic charges:    0.0000000

LOEWDIN ATOMIC CHARGES
----------------------
   0 C :   -0.104750
   1 C :   -0.136036
   2 C :   -0.123861
   3 C :   -0.130632
   4 C :   -0.133961
   5 C :   -0.090423
   6 H :    0.144781
   7 H :    0.139917
   8 H :    0.136826
   9 H :    0.151321
  10 H :    0.141542
  11 Pd:   -0.297565
  12 O :   -0.190689
  13 O :   -0.169165
  14 O :   -0.027514
  15 C :    0.181836
  16 O :   -0.252535
  17 H :    0.359871
  18 C :    0.147101
  19 H :    0.113149
  20 H :    0.140790

  Mayer bond orders larger than 0.100000
B(  0-C ,  1-C ) :   1.4450 B(  0-C ,  4-C ) :   1.3439 B(  0-C ,  6-H ) :   0.9086
B(  1-C ,  2-C ) :   1.4181 B(  1-C ,  7-H ) :   0.9158 B(  2-C ,  3-C ) :   1.4178
B(  2-C ,  8-H ) :   0.9182 B(  3-C ,  5-C ) :   1.4414 B(  3-C , 10-H ) :   0.9156
B(  4-C ,  5-C ) :   1.3691 B(  4-C , 11-Pd) :   0.8369 B(  5-C ,  9-H ) :   0.9069
B( 11-Pd, 12-O ) :   0.4054 B( 11-Pd, 13-O ) :   0.5453 B( 11-Pd, 14-O ) :   0.4088
B( 12-O , 13-O ) :   0.1149 B( 12-O , 18-C ) :   1.5612 B( 13-O , 18-C ) :   1.4369
B( 14-O , 15-C ) :   1.7346 B( 15-C , 16-O ) :   1.2603 B( 15-C , 20-H ) :   0.8753
B( 16-O , 17-H ) :   0.6054 B( 18-C , 19-H ) :   0.8843

Dispersion correction           -0.013583728
FINAL SINGLE POINT ENERGY      -737.101512380966
Dispersion correction            ... done

DIPOLE MOMENT
-------------
                                X             Y             Z
Electronic contribution:     45.14424      35.42848      -2.36652
Nuclear contribution   :    -45.94634     -34.98140       2.80479
                        -----------------------------------------
Total Dipole Moment    :     -0.80210       0.44708       0.43827
                        -----------------------------------------
Magnitude (a.u.)       :      1.01751
Magnitude (Debye)      :      2.58630

Rotational constants in cm-1:     0.027718     0.019940     0.013990
Rotational constants in MHz :   830.977711   597.793669   419.413585

                             ****ORCA TERMINATED NORMALLY****
TOTAL RUN TIME: 0 days 0 hours 4 minutes 3 seconds 283 msec
