                         Program Version 5.0.3 -  RELEASE  -
|  1> ! EnGrad PBEh-3c
|  2> %output
|  3> xyzfile=True
|  4> end
|  5> %scf
|  6> maxiter 250
|  7> end
|  8> %output
|  9> Print[P_Hirshfeld] = 1
| 10> end
| 11> % maxcore
| 12> 4000
| 13> *xyz 0 1
| 14> C   -1.53153149   0.19845134  -0.44333506
| 15> C   -2.03245628  -0.84091456  -1.21948062
| 16> C   -1.58427189  -2.13900781  -0.99063086
| 17> C   -0.76446729  -2.41032103   0.09981518
| 18> C   -0.52676433  -0.03569642   0.51213269
| 19> C   -0.28050190  -1.36205415   0.86654625
| 20> H   -1.87621633   1.20302969  -0.65068960
| 21> H   -2.66462105  -0.62469353  -2.07718411
| 22> H   -1.85309942  -2.93612002  -1.68058127
| 23> H    0.38518350  -1.57272018   1.68826581
| 24> H   -0.38738263  -3.41261785   0.26573424
| 25> Pd   1.20952996   0.93991774  -0.02591232
| 26> O    3.02020341   1.23576349  -1.21642085
| 27> O    2.48498871  -0.63040018  -0.23783465
| 28> O    0.31155740   2.71558333   0.24265378
| 29> C   -0.13477966   2.93798951   1.36984686
| 30> O   -0.19648066   2.08592729   2.33243233
| 31> H   -0.40580498   1.16259426   1.94008703
| 32> C    3.26850244   0.03747939  -0.97368845
| 33> H    4.13587113  -0.48220912  -1.41608007
| 34> H   -0.58435924   3.89864413   1.57890129
| 35> *
| 36>
| 37>                          ****END OF INPUT****

CARTESIAN COORDINATES (ANGSTROEM)
---------------------------------
  C     -1.531531    0.198451   -0.443335
  C     -2.032456   -0.840915   -1.219481
  C     -1.584272   -2.139008   -0.990631
  C     -0.764467   -2.410321    0.099815
  C     -0.526764   -0.035696    0.512133
  C     -0.280502   -1.362054    0.866546
  H     -1.876216    1.203030   -0.650690
  H     -2.664621   -0.624694   -2.077184
  H     -1.853099   -2.936120   -1.680581
  H      0.385183   -1.572720    1.688266
  H     -0.387383   -3.412618    0.265734
  Pd     1.209530    0.939918   -0.025912
  O      3.020203    1.235763   -1.216421
  O      2.484989   -0.630400   -0.237835
  O      0.311557    2.715583    0.242654
  C     -0.134780    2.937990    1.369847
  O     -0.196481    2.085927    2.332432
  H     -0.405805    1.162594    1.940087
  C      3.268502    0.037479   -0.973688
  H      4.135871   -0.482209   -1.416080
  H     -0.584359    3.898644    1.578901

 Total Charge           Charge          ....    0
 Multiplicity           Mult            ....    1
 Number of Electrons    NEL             ....  106
 Basis Dimension        Dim             ....  227

ORBITAL ENERGIES
----------------

  NO   OCC          E(Eh)            E(eV)
   0   2.0000     -19.573175      -532.6132
   1   2.0000     -19.573139      -532.6122
   2   2.0000     -19.506512      -530.7992
   3   2.0000     -19.498122      -530.5709
   4   2.0000     -10.632792      -289.3330
   5   2.0000     -10.568669      -287.5881
   6   2.0000     -10.455781      -284.5163
   7   2.0000     -10.452384      -284.4238
   8   2.0000     -10.451925      -284.4113
   9   2.0000     -10.450315      -284.3675
  10   2.0000     -10.449396      -284.3425
  11   2.0000     -10.447117      -284.2805
  12   2.0000      -3.666062       -99.7586
  13   2.0000      -2.314801       -62.9890
  14   2.0000      -2.309723       -62.8508
  15   2.0000      -2.277677       -61.9787
  16   2.0000      -1.275484       -34.7077
  17   2.0000      -1.205226       -32.7959
  18   2.0000      -1.183614       -32.2078
  19   2.0000      -1.092225       -29.7210
  20   2.0000      -0.954766       -25.9805
  21   2.0000      -0.838493       -22.8166
  22   2.0000      -0.832158       -22.6442
  23   2.0000      -0.774024       -21.0623
  24   2.0000      -0.680353       -18.5133
  25   2.0000      -0.674837       -18.3633
  26   2.0000      -0.672461       -18.2986
  27   2.0000      -0.654510       -17.8101
  28   2.0000      -0.626912       -17.0591
  29   2.0000      -0.587311       -15.9815
  30   2.0000      -0.570523       -15.5247
  31   2.0000      -0.564270       -15.3546
  32   2.0000      -0.536561       -14.6006
  33   2.0000      -0.516041       -14.0422
  34   2.0000      -0.512648       -13.9499
  35   2.0000      -0.507010       -13.7965
  36   2.0000      -0.493320       -13.4239
  37   2.0000      -0.481597       -13.1049
  38   2.0000      -0.453600       -12.3431
  39   2.0000      -0.447632       -12.1807
  40   2.0000      -0.438653       -11.9364
  41   2.0000      -0.433038       -11.7836
  42   2.0000      -0.401437       -10.9236
  43   2.0000      -0.395105       -10.7514
  44   2.0000      -0.383149       -10.4260
  45   2.0000      -0.372884       -10.1467
  46   2.0000      -0.360457        -9.8085
  47   2.0000      -0.349221        -9.5028
  48   2.0000      -0.328576        -8.9410
  49   2.0000      -0.323908        -8.8140
  50   2.0000      -0.301978        -8.2172
  51   2.0000      -0.290718        -7.9108
  52   2.0000      -0.267148        -7.2695
  53   0.0000      -0.071502        -1.9457
  54   0.0000      -0.020639        -0.5616
  55   0.0000       0.015944         0.4339
  56   0.0000       0.018502         0.5035
  57   0.0000       0.041720         1.1353

MULLIKEN ATOMIC CHARGES
-----------------------
   0 C :   -0.172569
   1 C :   -0.223559
   2 C :   -0.218378
   3 C :   -0.219504
   4 C :   -0.469487
   5 C :   -0.156862
   6 H :    0.225175
   7 H :    0.222335
   8 H :    0.223717
   9 H :    0.240818
  10 H :    0.224151
  11 Pd:    0.453490
  12 O :   -0.458126
  13 O :   -0.481182
  14 O :   -0.403635
  15 C :    0.387895
  16 O :   -0.533090
  17 H :    0.519518
  18 C :    0.398363
  19 H :    0.192566
  20 H :    0.248363
Sum of atomic charges:    0.0000000

LOEWDIN ATOMIC CHARGES
----------------------
   0 C :   -0.097488
   1 C :   -0.137099
   2 C :   -0.117744
   3 C :   -0.131831
   4 C :   -0.162313
   5 C :   -0.085333
   6 H :    0.144871
   7 H :    0.139602
   8 H :    0.137779
   9 H :    0.150871
  10 H :    0.140892
  11 Pd:   -0.286879
  12 O :   -0.183241
  13 O :   -0.164557
  14 O :   -0.060364
  15 C :    0.184104
  16 O :   -0.243063
  17 H :    0.365601
  18 C :    0.150321
  19 H :    0.114545
  20 H :    0.141325

  Mayer bond orders larger than 0.100000
B(  0-C ,  1-C ) :   1.4456 B(  0-C ,  4-C ) :   1.3436 B(  0-C ,  6-H ) :   0.9097
B(  1-C ,  2-C ) :   1.4151 B(  1-C ,  7-H ) :   0.9160 B(  2-C ,  3-C ) :   1.4156
B(  2-C ,  8-H ) :   0.9180 B(  3-C ,  5-C ) :   1.4422 B(  3-C , 10-H ) :   0.9158
B(  4-C ,  5-C ) :   1.3640 B(  4-C , 11-Pd) :   0.7666 B(  4-C , 17-H ) :   0.1262
B(  5-C ,  9-H ) :   0.9079 B( 11-Pd, 12-O ) :   0.4151 B( 11-Pd, 13-O ) :   0.5542
B( 11-Pd, 14-O ) :   0.4412 B( 12-O , 13-O ) :   0.1148 B( 12-O , 18-C ) :   1.5610
B( 13-O , 18-C ) :   1.4299 B( 14-O , 15-C ) :   1.6632 B( 15-C , 16-O ) :   1.3268
B( 15-C , 20-H ) :   0.8768 B( 16-O , 17-H ) :   0.5504 B( 18-C , 19-H ) :   0.8851

Dispersion correction           -0.013613498
FINAL SINGLE POINT ENERGY      -737.100185605599
Dispersion correction            ... done

DIPOLE MOMENT
-------------
                                X             Y             Z
Electronic contribution:     45.68539      35.19746      -2.25852
Nuclear contribution   :    -46.37893     -34.86523       2.58004
                        -----------------------------------------
Total Dipole Moment    :     -0.69354       0.33223       0.32153
                        -----------------------------------------
Magnitude (a.u.)       :      0.83352
Magnitude (Debye)      :      2.11864

Rotational constants in cm-1:     0.027801     0.019954     0.014035
Rotational constants in MHz :   833.455914   598.199665   420.755283

                             ****ORCA TERMINATED NORMALLY****
TOTAL RUN TIME: 0 days 0 hours 3 minutes 54 seconds 35 msec
