                         Program Version 5.0.3 -  RELEASE  -
|  1> ! EnGrad PBEh-3c
|  2> %output
|  3> xyzfile=True
|  4> end
|  5> %scf
|  6> maxiter 250
|  7> end
|  8> %output
|  9> Print[P_Hirshfeld] = 1
| 10> end
| 11> % maxcore
| 12> 4000
| 13> *xyz 0 1
| 14> C   -1.55498283   0.16784740  -0.56331977
| 15> C   -2.06699713  -0.88238837  -1.27350498
| 16> C   -1.70208449  -2.17645282  -0.97141172
| 17> C   -0.78650964  -2.44513660   0.04374377
| 18> C   -0.60629318  -0.05464890   0.49489300
| 19> C   -0.27144831  -1.41393756   0.79074174
| 20> H   -1.85980924   1.17807174  -0.84983069
| 21> H   -2.78094976  -0.68738253  -2.06169886
| 22> H   -2.15650257  -2.99309054  -1.49970562
| 23> H    0.46058863  -1.64092257   1.57444195
| 24> H   -0.49302396  -3.45263700   0.25544638
| 25> Pd   1.37856845   1.07188370  -0.06017883
| 26> O    3.25024119   1.29721172  -1.25138770
| 27> O    2.62421020  -0.53140090  -0.25450175
| 28> O    0.38556790   2.83343248   0.06615447
| 29> C   -0.01261815   2.89161612   1.41068478
| 30> O    0.29429738   2.14766873   2.20391833
| 31> H   -1.16626732   1.28847098   2.77214774
| 32> C    3.46160848   0.09652288  -0.99536571
| 33> H    4.32700370  -0.43860618  -1.40282204
| 34> H   -0.72470642   3.74147640   1.56879203
| 35> *
| 36>
| 37>                          ****END OF INPUT****

CARTESIAN COORDINATES (ANGSTROEM)
---------------------------------
  C     -1.554983    0.167847   -0.563320
  C     -2.066997   -0.882388   -1.273505
  C     -1.702084   -2.176453   -0.971412
  C     -0.786510   -2.445137    0.043744
  C     -0.606293   -0.054649    0.494893
  C     -0.271448   -1.413938    0.790742
  H     -1.859809    1.178072   -0.849831
  H     -2.780950   -0.687383   -2.061699
  H     -2.156503   -2.993091   -1.499706
  H      0.460589   -1.640923    1.574442
  H     -0.493024   -3.452637    0.255446
  Pd     1.378568    1.071884   -0.060179
  O      3.250241    1.297212   -1.251388
  O      2.624210   -0.531401   -0.254502
  O      0.385568    2.833432    0.066154
  C     -0.012618    2.891616    1.410685
  O      0.294297    2.147669    2.203918
  H     -1.166267    1.288471    2.772148
  C      3.461608    0.096523   -0.995366
  H      4.327004   -0.438606   -1.402822
  H     -0.724706    3.741476    1.568792

 Total Charge           Charge          ....    0
 Multiplicity           Mult            ....    1
 Number of Electrons    NEL             ....  106
 Basis Dimension        Dim             ....  227

ORBITAL ENERGIES
----------------

  NO   OCC          E(Eh)            E(eV)
   0   2.0000     -19.547708      -531.9202
   1   2.0000     -19.511456      -530.9337
   2   2.0000     -19.507683      -530.8310
   3   2.0000     -19.500100      -530.6247
   4   2.0000     -10.585655      -288.0503
   5   2.0000     -10.570114      -287.6274
   6   2.0000     -10.496009      -285.6109
   7   2.0000     -10.472564      -284.9730
   8   2.0000     -10.471015      -284.9308
   9   2.0000     -10.468452      -284.8611
  10   2.0000     -10.460346      -284.6405
  11   2.0000     -10.459798      -284.6256
  12   2.0000      -3.666489       -99.7702
  13   2.0000      -2.317923       -63.0739
  14   2.0000      -2.303297       -62.6759
  15   2.0000      -2.279558       -62.0299
  16   2.0000      -1.262422       -34.3523
  17   2.0000      -1.201012       -32.6812
  18   2.0000      -1.088088       -29.6084
  19   2.0000      -1.076399       -29.2903
  20   2.0000      -0.968566       -26.3560
  21   2.0000      -0.856887       -23.3171
  22   2.0000      -0.837709       -22.7952
  23   2.0000      -0.688958       -18.7475
  24   2.0000      -0.684992       -18.6396
  25   2.0000      -0.681678       -18.5494
  26   2.0000      -0.674557       -18.3556
  27   2.0000      -0.597933       -16.2706
  28   2.0000      -0.594521       -16.1778
  29   2.0000      -0.565676       -15.3928
  30   2.0000      -0.555128       -15.1058
  31   2.0000      -0.543019       -14.7763
  32   2.0000      -0.531990       -14.4762
  33   2.0000      -0.523227       -14.2377
  34   2.0000      -0.522134       -14.2080
  35   2.0000      -0.503683       -13.7059
  36   2.0000      -0.498330       -13.5603
  37   2.0000      -0.457207       -12.4412
  38   2.0000      -0.439166       -11.9503
  39   2.0000      -0.426859       -11.6154
  40   2.0000      -0.408393       -11.1129
  41   2.0000      -0.402699       -10.9580
  42   2.0000      -0.385816       -10.4986
  43   2.0000      -0.378225       -10.2920
  44   2.0000      -0.367569       -10.0021
  45   2.0000      -0.359381        -9.7793
  46   2.0000      -0.354905        -9.6575
  47   2.0000      -0.339251        -9.2315
  48   2.0000      -0.321255        -8.7418
  49   2.0000      -0.317725        -8.6457
  50   2.0000      -0.310022        -8.4361
  51   2.0000      -0.295485        -8.0405
  52   2.0000      -0.274721        -7.4755
  53   0.0000      -0.154321        -4.1993
  54   0.0000      -0.075666        -2.0590
  55   0.0000       0.005050         0.1374
  56   0.0000       0.009250         0.2517
  57   0.0000       0.038625         1.0510

MULLIKEN ATOMIC CHARGES
-----------------------
   0 C :   -0.215708
   1 C :   -0.200388
   2 C :   -0.216806
   3 C :   -0.201762
   4 C :   -0.212312
   5 C :   -0.213384
   6 H :    0.257224
   7 H :    0.233572
   8 H :    0.234455
   9 H :    0.256895
  10 H :    0.234597
  11 Pd:    0.455976
  12 O :   -0.446088
  13 O :   -0.495466
  14 O :   -0.527480
  15 C :    0.341501
  16 O :   -0.283486
  17 H :    0.217562
  18 C :    0.393919
  19 H :    0.197959
  20 H :    0.189218
Sum of atomic charges:   -0.0000000

LOEWDIN ATOMIC CHARGES
----------------------
   0 C :   -0.090389
   1 C :   -0.139873
   2 C :   -0.096815
   3 C :   -0.134365
   4 C :   -0.051040
   5 C :   -0.083381
   6 H :    0.157829
   7 H :    0.143056
   8 H :    0.141697
   9 H :    0.158808
  10 H :    0.143544
  11 Pd:   -0.235462
  12 O :   -0.174654
  13 O :   -0.177853
  14 O :   -0.224205
  15 C :    0.114053
  16 O :   -0.075774
  17 H :    0.244727
  18 C :    0.155918
  19 H :    0.116867
  20 H :    0.107312

  Mayer bond orders larger than 0.100000
B(  0-C ,  1-C ) :   1.4319 B(  0-C ,  4-C ) :   1.3045 B(  0-C ,  6-H ) :   0.9001
B(  1-C ,  2-C ) :   1.4088 B(  1-C ,  7-H ) :   0.9119 B(  2-C ,  3-C ) :   1.3983
B(  2-C ,  8-H ) :   0.9145 B(  3-C ,  5-C ) :   1.4451 B(  3-C , 10-H ) :   0.9117
B(  4-C ,  5-C ) :   1.3285 B(  4-C , 11-Pd) :   0.5474 B(  4-C , 17-H ) :   0.4080
B(  5-C ,  9-H ) :   0.9010 B( 11-Pd, 12-O ) :   0.4141 B( 11-Pd, 13-O ) :   0.5645
B( 11-Pd, 14-O ) :   0.6386 B( 11-Pd, 17-H ) :   0.1065 B( 12-O , 13-O ) :   0.1138
B( 12-O , 18-C ) :   1.5973 B( 13-O , 18-C ) :   1.3974 B( 14-O , 15-C ) :   1.2521
B( 15-C , 16-O ) :   1.8289 B( 15-C , 20-H ) :   0.8729 B( 16-O , 17-H ) :   0.2218
B( 18-C , 19-H ) :   0.8828

Dispersion correction           -0.013504189
FINAL SINGLE POINT ENERGY      -736.890020744100
Dispersion correction            ... done

DIPOLE MOMENT
-------------
                                X             Y             Z
Electronic contribution:     50.46330      39.45644      -2.39328
Nuclear contribution   :    -51.73252     -40.24859       2.93031
                        -----------------------------------------
Total Dipole Moment    :     -1.26922      -0.79215       0.53703
                        -----------------------------------------
Magnitude (a.u.)       :      1.58960
Magnitude (Debye)      :      4.04044

Rotational constants in cm-1:     0.028197     0.017678     0.013096
Rotational constants in MHz :   845.339329   529.970335   392.594330

                             ****ORCA TERMINATED NORMALLY****
TOTAL RUN TIME: 0 days 0 hours 4 minutes 23 seconds 94 msec
