                         Program Version 5.0.3 -  RELEASE  -
|  1> ! EnGrad PBEh-3c
|  2> %output
|  3> xyzfile=True
|  4> end
|  5> %scf
|  6> maxiter 250
|  7> end
|  8> %output
|  9> Print[P_Hirshfeld] = 1
| 10> end
| 11> % maxcore
| 12> 4000
| 13> *xyz 0 1
| 14> C   -1.53955417   0.18032391  -0.56198829
| 15> C   -2.06462668  -0.87755172  -1.27377599
| 16> C   -1.70492812  -2.17534834  -0.96562770
| 17> C   -0.78212831  -2.43766320   0.03877260
| 18> C   -0.64052852  -0.09334257   0.48457001
| 19> C   -0.26387528  -1.40702110   0.79675969
| 20> H   -1.86536414   1.17257410  -0.86424134
| 21> H   -2.78557851  -0.68944951  -2.05702347
| 22> H   -2.16709639  -2.99431726  -1.49377272
| 23> H    0.46429472  -1.65049270   1.56807694
| 24> H   -0.49873957  -3.45239272   0.25802990
| 25> Pd   1.41128584   1.09197524  -0.08793526
| 26> O    3.25046653   1.29798411  -1.24101676
| 27> O    2.64259793  -0.53555863  -0.25511248
| 28> O    0.37370558   2.83299206   0.10503575
| 29> C   -0.01164976   2.92379207   1.35333041
| 30> O    0.32626550   2.13891785   2.21277029
| 31> H   -1.20106184   1.28369574   2.80588161
| 32> C    3.45466065   0.09098627  -1.00284283
| 33> H    4.33162908  -0.43632345  -1.39660911
| 34> H   -0.72982192   3.73508244   1.57542228
| 35> *
| 36>
| 37>                          ****END OF INPUT****

CARTESIAN COORDINATES (ANGSTROEM)
---------------------------------
  C     -1.539554    0.180324   -0.561988
  C     -2.064627   -0.877552   -1.273776
  C     -1.704928   -2.175348   -0.965628
  C     -0.782128   -2.437663    0.038773
  C     -0.640529   -0.093343    0.484570
  C     -0.263875   -1.407021    0.796760
  H     -1.865364    1.172574   -0.864241
  H     -2.785579   -0.689450   -2.057023
  H     -2.167096   -2.994317   -1.493773
  H      0.464295   -1.650493    1.568077
  H     -0.498740   -3.452393    0.258030
  Pd     1.411286    1.091975   -0.087935
  O      3.250467    1.297984   -1.241017
  O      2.642598   -0.535559   -0.255112
  O      0.373706    2.832992    0.105036
  C     -0.011650    2.923792    1.353330
  O      0.326265    2.138918    2.212770
  H     -1.201062    1.283696    2.805882
  C      3.454661    0.090986   -1.002843
  H      4.331629   -0.436323   -1.396609
  H     -0.729822    3.735082    1.575422

 Total Charge           Charge          ....    0
 Multiplicity           Mult            ....    1
 Number of Electrons    NEL             ....  106
 Basis Dimension        Dim             ....  227

ORBITAL ENERGIES
----------------

  NO   OCC          E(Eh)            E(eV)
   0   2.0000     -19.531755      -531.4861
   1   2.0000     -19.525434      -531.3141
   2   2.0000     -19.515037      -531.0311
   3   2.0000     -19.506346      -530.7947
   4   2.0000     -10.584365      -288.0152
   5   2.0000     -10.574461      -287.7457
   6   2.0000     -10.491293      -285.4826
   7   2.0000     -10.468835      -284.8715
   8   2.0000     -10.466559      -284.8095
   9   2.0000     -10.463293      -284.7207
  10   2.0000     -10.459217      -284.6098
  11   2.0000     -10.459055      -284.6054
  12   2.0000      -3.668427       -99.8230
  13   2.0000      -2.320585       -63.1463
  14   2.0000      -2.305769       -62.7432
  15   2.0000      -2.280728       -62.0618
  16   2.0000      -1.216726       -33.1088
  17   2.0000      -1.211110       -32.9560
  18   2.0000      -1.107899       -30.1475
  19   2.0000      -1.097144       -29.8548
  20   2.0000      -0.969277       -26.3754
  21   2.0000      -0.855348       -23.2752
  22   2.0000      -0.838691       -22.8219
  23   2.0000      -0.689828       -18.7712
  24   2.0000      -0.687380       -18.7045
  25   2.0000      -0.681609       -18.5475
  26   2.0000      -0.678487       -18.4626
  27   2.0000      -0.593161       -16.1407
  28   2.0000      -0.580667       -15.8007
  29   2.0000      -0.570852       -15.5337
  30   2.0000      -0.554413       -15.0863
  31   2.0000      -0.537752       -14.6330
  32   2.0000      -0.527556       -14.3555
  33   2.0000      -0.521865       -14.2007
  34   2.0000      -0.519857       -14.1460
  35   2.0000      -0.512214       -13.9380
  36   2.0000      -0.496642       -13.5143
  37   2.0000      -0.454224       -12.3601
  38   2.0000      -0.439123       -11.9491
  39   2.0000      -0.428465       -11.6591
  40   2.0000      -0.413959       -11.2644
  41   2.0000      -0.406254       -11.0547
  42   2.0000      -0.391450       -10.6519
  43   2.0000      -0.378008       -10.2861
  44   2.0000      -0.375107       -10.2072
  45   2.0000      -0.367408        -9.9977
  46   2.0000      -0.357479        -9.7275
  47   2.0000      -0.341340        -9.2883
  48   2.0000      -0.328131        -8.9289
  49   2.0000      -0.316262        -8.6059
  50   2.0000      -0.307615        -8.3706
  51   2.0000      -0.297669        -8.1000
  52   2.0000      -0.265707        -7.2303
  53   0.0000      -0.147989        -4.0270
  54   0.0000      -0.080846        -2.1999
  55   0.0000       0.007432         0.2022
  56   0.0000       0.009748         0.2653
  57   0.0000       0.034381         0.9356

MULLIKEN ATOMIC CHARGES
-----------------------
   0 C :   -0.209485
   1 C :   -0.215237
   2 C :   -0.213679
   3 C :   -0.214652
   4 C :   -0.189208
   5 C :   -0.210065
   6 H :    0.253705
   7 H :    0.231816
   8 H :    0.231517
   9 H :    0.259059
  10 H :    0.231650
  11 Pd:    0.452405
  12 O :   -0.451101
  13 O :   -0.478957
  14 O :   -0.483291
  15 C :    0.365664
  16 O :   -0.363644
  17 H :    0.208848
  18 C :    0.399721
  19 H :    0.198649
  20 H :    0.196285
Sum of atomic charges:    0.0000000

LOEWDIN ATOMIC CHARGES
----------------------
   0 C :   -0.104630
   1 C :   -0.133700
   2 C :   -0.111112
   3 C :   -0.128309
   4 C :   -0.040595
   5 C :   -0.095118
   6 H :    0.157422
   7 H :    0.141009
   8 H :    0.140942
   9 H :    0.160427
  10 H :    0.141702
  11 Pd:   -0.218313
  12 O :   -0.167621
  13 O :   -0.161763
  14 O :   -0.160631
  15 C :    0.123543
  16 O :   -0.159844
  17 H :    0.232974
  18 C :    0.155206
  19 H :    0.117479
  20 H :    0.110932

  Mayer bond orders larger than 0.100000
B(  0-C ,  1-C ) :   1.4222 B(  0-C ,  4-C ) :   1.3345 B(  0-C ,  6-H ) :   0.9002
B(  1-C ,  2-C ) :   1.4196 B(  1-C ,  7-H ) :   0.9113 B(  2-C ,  3-C ) :   1.4097
B(  2-C ,  8-H ) :   0.9158 B(  3-C ,  5-C ) :   1.4316 B(  3-C , 10-H ) :   0.9116
B(  4-C ,  5-C ) :   1.3643 B(  4-C , 11-Pd) :   0.5202 B(  4-C , 17-H ) :   0.3789
B(  5-C ,  9-H ) :   0.8989 B( 11-Pd, 12-O ) :   0.4383 B( 11-Pd, 13-O ) :   0.5678
B( 11-Pd, 14-O ) :   0.5702 B( 11-Pd, 16-O ) :   0.1055 B( 11-Pd, 17-H ) :   0.1052
B( 12-O , 13-O ) :   0.1136 B( 12-O , 18-C ) :   1.5688 B( 13-O , 18-C ) :   1.4175
B( 14-O , 15-C ) :   1.3927 B( 15-C , 16-O ) :   1.6620 B( 15-C , 20-H ) :   0.8771
B( 16-O , 17-H ) :   0.2789 B( 18-C , 19-H ) :   0.8841

Dispersion correction           -0.013448781
FINAL SINGLE POINT ENERGY      -736.914015404574
Dispersion correction            ... done

DIPOLE MOMENT
-------------
                                X             Y             Z
Electronic contribution:     51.95617      40.47682      -3.92934
Nuclear contribution   :    -53.12739     -41.14593       4.21076
                        -----------------------------------------
Total Dipole Moment    :     -1.17122      -0.66911       0.28141
                        -----------------------------------------
Magnitude (a.u.)       :      1.37792
Magnitude (Debye)      :      3.50239

Rotational constants in cm-1:     0.028171     0.017558     0.013025
Rotational constants in MHz :   844.530673   526.364413   390.474234

                             ****ORCA TERMINATED NORMALLY****
TOTAL RUN TIME: 0 days 0 hours 4 minutes 36 seconds 174 msec
