                         Program Version 5.0.3 -  RELEASE  -
|  1> ! EnGrad PBEh-3c
|  2> %output
|  3> xyzfile=True
|  4> end
|  5> %scf
|  6> maxiter 250
|  7> end
|  8> %output
|  9> Print[P_Hirshfeld] = 1
| 10> end
| 11> % maxcore
| 12> 4000
| 13> *xyz 0 1
| 14> C   -1.55002451   0.17369374  -0.55454225
| 15> C   -2.06737958  -0.88308558  -1.27518555
| 16> C   -1.69876378  -2.17754314  -0.97062903
| 17> C   -0.78741826  -2.44302052   0.04133325
| 18> C   -0.61014699  -0.05991373   0.49251325
| 19> C   -0.27025805  -1.40572187   0.79517896
| 20> H   -1.86117310   1.17646659  -0.84692471
| 21> H   -2.77893534  -0.68714451  -2.06297631
| 22> H   -2.15323418  -2.99368706  -1.50308397
| 23> H    0.45735254  -1.64026778   1.57492255
| 24> H   -0.49071771  -3.45380840   0.25506574
| 25> Pd   1.37585794   1.07241807  -0.06029594
| 26> O    3.24806183   1.29532364  -1.25182245
| 27> O    2.62627320  -0.52968543  -0.25515642
| 28> O    0.37835242   2.83066554   0.09760418
| 29> C   -0.01378890   2.91406808   1.35695554
| 30> O    0.30271834   2.12767252   2.22630975
| 31> H   -1.16402147   1.28513904   2.76553932
| 32> C    3.45418118   0.09562714  -0.99353359
| 33> H    4.32530043  -0.44021992  -1.40320140
| 34> H   -0.72220400   3.74018225   1.56890560
| 35> *
| 36>
| 37>                          ****END OF INPUT****

CARTESIAN COORDINATES (ANGSTROEM)
---------------------------------
  C     -1.550025    0.173694   -0.554542
  C     -2.067380   -0.883086   -1.275186
  C     -1.698764   -2.177543   -0.970629
  C     -0.787418   -2.443021    0.041333
  C     -0.610147   -0.059914    0.492513
  C     -0.270258   -1.405722    0.795179
  H     -1.861173    1.176467   -0.846925
  H     -2.778935   -0.687145   -2.062976
  H     -2.153234   -2.993687   -1.503084
  H      0.457353   -1.640268    1.574923
  H     -0.490718   -3.453808    0.255066
  Pd     1.375858    1.072418   -0.060296
  O      3.248062    1.295324   -1.251822
  O      2.626273   -0.529685   -0.255156
  O      0.378352    2.830666    0.097604
  C     -0.013789    2.914068    1.356956
  O      0.302718    2.127673    2.226310
  H     -1.164021    1.285139    2.765539
  C      3.454181    0.095627   -0.993534
  H      4.325300   -0.440220   -1.403201
  H     -0.722204    3.740182    1.568906

 Total Charge           Charge          ....    0
 Multiplicity           Mult            ....    1
 Number of Electrons    NEL             ....  106
 Basis Dimension        Dim             ....  227

ORBITAL ENERGIES
----------------

  NO   OCC          E(Eh)            E(eV)
   0   2.0000     -19.543245      -531.7987
   1   2.0000     -19.531686      -531.4842
   2   2.0000     -19.509254      -530.8738
   3   2.0000     -19.499525      -530.6091
   4   2.0000     -10.593575      -288.2658
   5   2.0000     -10.569738      -287.6172
   6   2.0000     -10.487772      -285.3868
   7   2.0000     -10.468262      -284.8559
   8   2.0000     -10.465925      -284.7923
   9   2.0000     -10.462971      -284.7119
  10   2.0000     -10.457344      -284.5588
  11   2.0000     -10.457119      -284.5527
  12   2.0000      -3.666514       -99.7709
  13   2.0000      -2.318289       -63.0839
  14   2.0000      -2.303940       -62.6934
  15   2.0000      -2.278921       -62.0126
  16   2.0000      -1.222271       -33.2597
  17   2.0000      -1.204066       -32.7643
  18   2.0000      -1.112402       -30.2700
  19   2.0000      -1.090602       -29.6768
  20   2.0000      -0.964154       -26.2360
  21   2.0000      -0.851008       -23.1571
  22   2.0000      -0.835593       -22.7377
  23   2.0000      -0.691602       -18.8195
  24   2.0000      -0.686033       -18.6679
  25   2.0000      -0.679651       -18.4942
  26   2.0000      -0.673891       -18.3375
  27   2.0000      -0.591773       -16.1029
  28   2.0000      -0.587963       -15.9993
  29   2.0000      -0.566279       -15.4092
  30   2.0000      -0.558303       -15.1922
  31   2.0000      -0.533367       -14.5137
  32   2.0000      -0.529742       -14.4150
  33   2.0000      -0.520223       -14.1560
  34   2.0000      -0.518393       -14.1062
  35   2.0000      -0.505819       -13.7640
  36   2.0000      -0.493400       -13.4261
  37   2.0000      -0.452786       -12.3209
  38   2.0000      -0.435704       -11.8561
  39   2.0000      -0.429354       -11.6833
  40   2.0000      -0.411969       -11.2102
  41   2.0000      -0.407387       -11.0856
  42   2.0000      -0.387877       -10.5547
  43   2.0000      -0.382156       -10.3990
  44   2.0000      -0.373403       -10.1608
  45   2.0000      -0.365366        -9.9421
  46   2.0000      -0.357382        -9.7249
  47   2.0000      -0.342889        -9.3305
  48   2.0000      -0.325009        -8.8439
  49   2.0000      -0.317714        -8.6454
  50   2.0000      -0.304883        -8.2963
  51   2.0000      -0.294921        -8.0252
  52   2.0000      -0.269216        -7.3257
  53   0.0000      -0.147842        -4.0230
  54   0.0000      -0.077264        -2.1025
  55   0.0000       0.008492         0.2311
  56   0.0000       0.010062         0.2738
  57   0.0000       0.029191         0.7943

MULLIKEN ATOMIC CHARGES
-----------------------
   0 C :   -0.215522
   1 C :   -0.206716
   2 C :   -0.216681
   3 C :   -0.205972
   4 C :   -0.213027
   5 C :   -0.214967
   6 H :    0.249263
   7 H :    0.231069
   8 H :    0.231167
   9 H :    0.255029
  10 H :    0.231541
  11 Pd:    0.450507
  12 O :   -0.447974
  13 O :   -0.485983
  14 O :   -0.481789
  15 C :    0.373508
  16 O :   -0.365577
  17 H :    0.243975
  18 C :    0.393073
  19 H :    0.195756
  20 H :    0.199319
Sum of atomic charges:   -0.0000000

LOEWDIN ATOMIC CHARGES
----------------------
   0 C :   -0.098643
   1 C :   -0.138381
   2 C :   -0.105307
   3 C :   -0.133196
   4 C :   -0.059540
   5 C :   -0.088124
   6 H :    0.153781
   7 H :    0.141321
   8 H :    0.140414
   9 H :    0.157567
  10 H :    0.142104
  11 Pd:   -0.233999
  12 O :   -0.176337
  13 O :   -0.168203
  14 O :   -0.159101
  15 C :    0.136824
  16 O :   -0.158703
  17 H :    0.268012
  18 C :    0.150900
  19 H :    0.115782
  20 H :    0.112828

  Mayer bond orders larger than 0.100000
B(  0-C ,  1-C ) :   1.4305 B(  0-C ,  4-C ) :   1.3154 B(  0-C ,  6-H ) :   0.9023
B(  1-C ,  2-C ) :   1.4131 B(  1-C ,  7-H ) :   0.9127 B(  2-C ,  3-C ) :   1.4054
B(  2-C ,  8-H ) :   0.9156 B(  3-C ,  5-C ) :   1.4378 B(  3-C , 10-H ) :   0.9127
B(  4-C ,  5-C ) :   1.3457 B(  4-C , 11-Pd) :   0.5828 B(  4-C , 17-H ) :   0.3408
B(  5-C ,  9-H ) :   0.9012 B( 11-Pd, 12-O ) :   0.4127 B( 11-Pd, 13-O ) :   0.5701
B( 11-Pd, 14-O ) :   0.5632 B( 12-O , 13-O ) :   0.1133 B( 12-O , 18-C ) :   1.5929
B( 13-O , 18-C ) :   1.4058 B( 14-O , 15-C ) :   1.4009 B( 15-C , 16-O ) :   1.6367
B( 15-C , 20-H ) :   0.8769 B( 16-O , 17-H ) :   0.3102 B( 18-C , 19-H ) :   0.8828

Dispersion correction           -0.013512219
FINAL SINGLE POINT ENERGY      -736.923536734217
Dispersion correction            ... done

DIPOLE MOMENT
-------------
                                X             Y             Z
Electronic contribution:     50.33139      39.74078      -2.51422
Nuclear contribution   :    -51.61459     -40.28196       2.99304
                        -----------------------------------------
Total Dipole Moment    :     -1.28321      -0.54118       0.47882
                        -----------------------------------------
Magnitude (a.u.)       :      1.47267
Magnitude (Debye)      :      3.74324

Rotational constants in cm-1:     0.028219     0.017703     0.013115
Rotational constants in MHz :   845.979179   530.729561   393.182768

                             ****ORCA TERMINATED NORMALLY****
TOTAL RUN TIME: 0 days 0 hours 4 minutes 25 seconds 979 msec
