                         Program Version 5.0.3 -  RELEASE  -
|  1> ! EnGrad PBEh-3c
|  2> %output
|  3> xyzfile=True
|  4> end
|  5> %scf
|  6> maxiter 250
|  7> end
|  8> %output
|  9> Print[P_Hirshfeld] = 1
| 10> end
| 11> % maxcore
| 12> 4000
| 13> *xyz 0 1
| 14> C   -1.55449475   0.17316988  -0.53528754
| 15> C   -2.06841953  -0.88607995  -1.27502836
| 16> C   -1.68791674  -2.18121333  -0.97719455
| 17> C   -0.79143972  -2.44321866   0.04462899
| 18> C   -0.58367070  -0.03361161   0.49751205
| 19> C   -0.27615294  -1.39353667   0.79885377
| 20> H   -1.85961807   1.17851508  -0.82285640
| 21> H   -2.76839496  -0.68416712  -2.07237495
| 22> H   -2.13137709  -2.99428934  -1.51989440
| 23> H    0.44452878  -1.62796107   1.58387362
| 24> H   -0.47803144  -3.45621533   0.25092049
| 25> Pd   1.33450417   1.05039457  -0.03115266
| 26> O    3.24080769   1.29050502  -1.26441287
| 27> O    2.60956483  -0.52340659  -0.25327966
| 28> O    0.37717092   2.82333481   0.11787921
| 29> C   -0.01777373   2.92110035   1.32307401
| 30> O    0.27688950   2.10031190   2.25575866
| 31> H   -1.11353294   1.28426167   2.70663554
| 32> C    3.44416330   0.09867602  -0.98407291
| 33> H    4.31315191  -0.44673893  -1.40982043
| 34> H   -0.70966053   3.74492465   1.56097833
| 35> *
| 36>
| 37>                          ****END OF INPUT****

CARTESIAN COORDINATES (ANGSTROEM)
---------------------------------
  C     -1.554495    0.173170   -0.535288
  C     -2.068420   -0.886080   -1.275028
  C     -1.687917   -2.181213   -0.977195
  C     -0.791440   -2.443219    0.044629
  C     -0.583671   -0.033612    0.497512
  C     -0.276153   -1.393537    0.798854
  H     -1.859618    1.178515   -0.822856
  H     -2.768395   -0.684167   -2.072375
  H     -2.131377   -2.994289   -1.519894
  H      0.444529   -1.627961    1.583874
  H     -0.478031   -3.456215    0.250920
  Pd     1.334504    1.050395   -0.031153
  O      3.240808    1.290505   -1.264413
  O      2.609565   -0.523407   -0.253280
  O      0.377171    2.823335    0.117879
  C     -0.017774    2.921100    1.323074
  O      0.276890    2.100312    2.255759
  H     -1.113533    1.284262    2.706636
  C      3.444163    0.098676   -0.984073
  H      4.313152   -0.446739   -1.409820
  H     -0.709661    3.744925    1.560978

 Total Charge           Charge          ....    0
 Multiplicity           Mult            ....    1
 Number of Electrons    NEL             ....  106
 Basis Dimension        Dim             ....  227

ORBITAL ENERGIES
----------------

  NO   OCC          E(Eh)            E(eV)
   0   2.0000     -19.554388      -532.1019
   1   2.0000     -19.554089      -532.0938
   2   2.0000     -19.502822      -530.6988
   3   2.0000     -19.491110      -530.3801
   4   2.0000     -10.609829      -288.7081
   5   2.0000     -10.563690      -287.4526
   6   2.0000     -10.477317      -285.1023
   7   2.0000     -10.464017      -284.7404
   8   2.0000     -10.460624      -284.6480
   9   2.0000     -10.458057      -284.5782
  10   2.0000     -10.454091      -284.4703
  11   2.0000     -10.453040      -284.4417
  12   2.0000      -3.662902       -99.6726
  13   2.0000      -2.314229       -62.9734
  14   2.0000      -2.301690       -62.6322
  15   2.0000      -2.274911       -61.9035
  16   2.0000      -1.224219       -33.3127
  17   2.0000      -1.197390       -32.5826
  18   2.0000      -1.131955       -30.8021
  19   2.0000      -1.084736       -29.5172
  20   2.0000      -0.956156       -26.0183
  21   2.0000      -0.842231       -22.9183
  22   2.0000      -0.831206       -22.6183
  23   2.0000      -0.707434       -19.2503
  24   2.0000      -0.680906       -18.5284
  25   2.0000      -0.673896       -18.3376
  26   2.0000      -0.666126       -18.1262
  27   2.0000      -0.600309       -16.3352
  28   2.0000      -0.586610       -15.9625
  29   2.0000      -0.574832       -15.6420
  30   2.0000      -0.558178       -15.1888
  31   2.0000      -0.538364       -14.6496
  32   2.0000      -0.526554       -14.3283
  33   2.0000      -0.516579       -14.0568
  34   2.0000      -0.511945       -13.9307
  35   2.0000      -0.499554       -13.5935
  36   2.0000      -0.485627       -13.2146
  37   2.0000      -0.448973       -12.2172
  38   2.0000      -0.435666       -11.8551
  39   2.0000      -0.429840       -11.6966
  40   2.0000      -0.425331       -11.5738
  41   2.0000      -0.401228       -10.9180
  42   2.0000      -0.394149       -10.7253
  43   2.0000      -0.386438       -10.5155
  44   2.0000      -0.371887       -10.1196
  45   2.0000      -0.365128        -9.9356
  46   2.0000      -0.353281        -9.6133
  47   2.0000      -0.344640        -9.3781
  48   2.0000      -0.322117        -8.7653
  49   2.0000      -0.317355        -8.6357
  50   2.0000      -0.297908        -8.1065
  51   2.0000      -0.291614        -7.9352
  52   2.0000      -0.266347        -7.2477
  53   0.0000      -0.138087        -3.7575
  54   0.0000      -0.073654        -2.0042
  55   0.0000       0.003726         0.1014
  56   0.0000       0.013743         0.3740
  57   0.0000       0.022250         0.6054

MULLIKEN ATOMIC CHARGES
-----------------------
   0 C :   -0.216484
   1 C :   -0.207781
   2 C :   -0.217480
   3 C :   -0.205333
   4 C :   -0.241438
   5 C :   -0.215538
   6 H :    0.237628
   7 H :    0.228173
   8 H :    0.228490
   9 H :    0.249398
  10 H :    0.228792
  11 Pd:    0.439658
  12 O :   -0.447532
  13 O :   -0.487519
  14 O :   -0.433870
  15 C :    0.390629
  16 O :   -0.416148
  17 H :    0.300561
  18 C :    0.384980
  19 H :    0.190654
  20 H :    0.210160
Sum of atomic charges:    0.0000000

LOEWDIN ATOMIC CHARGES
----------------------
   0 C :   -0.101021
   1 C :   -0.140618
   2 C :   -0.108510
   3 C :   -0.135736
   4 C :   -0.082862
   5 C :   -0.086479
   6 H :    0.147247
   7 H :    0.140174
   8 H :    0.138990
   9 H :    0.154102
  10 H :    0.141304
  11 Pd:   -0.254179
  12 O :   -0.187679
  13 O :   -0.169938
  14 O :   -0.100165
  15 C :    0.160327
  16 O :   -0.209016
  17 H :    0.319520
  18 C :    0.142567
  19 H :    0.112954
  20 H :    0.119016

  Mayer bond orders larger than 0.100000
B(  0-C ,  1-C ) :   1.4360 B(  0-C ,  4-C ) :   1.3109 B(  0-C ,  6-H ) :   0.9060
B(  1-C ,  2-C ) :   1.4117 B(  1-C ,  7-H ) :   0.9143 B(  2-C ,  3-C ) :   1.4077
B(  2-C ,  8-H ) :   0.9161 B(  3-C ,  5-C ) :   1.4373 B(  3-C , 10-H ) :   0.9143
B(  4-C ,  5-C ) :   1.3466 B(  4-C , 11-Pd) :   0.6770 B(  4-C , 17-H ) :   0.2410
B(  5-C ,  9-H ) :   0.9033 B( 11-Pd, 12-O ) :   0.3843 B( 11-Pd, 13-O ) :   0.5721
B( 11-Pd, 14-O ) :   0.4990 B( 12-O , 13-O ) :   0.1130 B( 12-O , 18-C ) :   1.6130
B( 13-O , 18-C ) :   1.4023 B( 14-O , 15-C ) :   1.5343 B( 15-C , 16-O ) :   1.4663
B( 15-C , 20-H ) :   0.8768 B( 16-O , 17-H ) :   0.4277 B( 18-C , 19-H ) :   0.8817

Dispersion correction           -0.013592574
FINAL SINGLE POINT ENERGY      -736.943997478426
Dispersion correction            ... done

DIPOLE MOMENT
-------------
                                X             Y             Z
Electronic contribution:     48.45528      39.14416      -1.11544
Nuclear contribution   :    -49.86846     -39.31638       1.77567
                        -----------------------------------------
Total Dipole Moment    :     -1.41318      -0.17222       0.66023
                        -----------------------------------------
Magnitude (a.u.)       :      1.56928
Magnitude (Debye)      :      3.98879

Rotational constants in cm-1:     0.028284     0.017914     0.013242
Rotational constants in MHz :   847.925729   537.056053   396.989960

                             ****ORCA TERMINATED NORMALLY****
TOTAL RUN TIME: 0 days 0 hours 4 minutes 21 seconds 663 msec
