                         Program Version 5.0.3 -  RELEASE  -
|  1> ! EnGrad PBEh-3c
|  2> %output
|  3> xyzfile=True
|  4> end
|  5> %scf
|  6> maxiter 250
|  7> end
|  8> %output
|  9> Print[P_Hirshfeld] = 1
| 10> end
| 11> % maxcore
| 12> 4000
| 13> *xyz 0 1
| 14> C   -1.55130997   0.17796160  -0.51172387
| 15> C   -2.06424668  -0.88226772  -1.27031268
| 16> C   -1.67467605  -2.18268769  -0.98442627
| 17> C   -0.78927019  -2.43593238   0.04934714
| 18> C   -0.57827057  -0.02967189   0.49983715
| 19> C   -0.28021646  -1.37590238   0.80721469
| 20> H   -1.86422673   1.17811814  -0.79905135
| 21> H   -2.75528814  -0.68111118  -2.08224498
| 22> H   -2.10536645  -2.99600211  -1.54127705
| 23> H    0.42920352  -1.61821636   1.59385643
| 24> H   -0.46371804  -3.45608495   0.24645881
| 25> Pd   1.30696178   1.03513485  -0.01337779
| 26> O    3.22780821   1.28499841  -1.27487546
| 27> O    2.59848117  -0.52123619  -0.24694438
| 28> O    0.37059160   2.81470100   0.15417487
| 29> C   -0.01935252   2.92814356   1.28597971
| 30> O    0.25001712   2.07850471   2.27530420
| 31> H   -1.06270559   1.28207016   2.64477821
| 32> C    3.42662969   0.09692496  -0.98128031
| 33> H    4.29574766  -0.45444411  -1.41305960
| 34> H   -0.69629263   3.74968631   1.55449799
| 35> *
| 36>
| 37>                          ****END OF INPUT****

CARTESIAN COORDINATES (ANGSTROEM)
---------------------------------
  C     -1.551310    0.177962   -0.511724
  C     -2.064247   -0.882268   -1.270313
  C     -1.674676   -2.182688   -0.984426
  C     -0.789270   -2.435932    0.049347
  C     -0.578271   -0.029672    0.499837
  C     -0.280216   -1.375902    0.807215
  H     -1.864227    1.178118   -0.799051
  H     -2.755288   -0.681111   -2.082245
  H     -2.105366   -2.996002   -1.541277
  H      0.429204   -1.618216    1.593856
  H     -0.463718   -3.456085    0.246459
  Pd     1.306962    1.035135   -0.013378
  O      3.227808    1.284998   -1.274875
  O      2.598481   -0.521236   -0.246944
  O      0.370592    2.814701    0.154175
  C     -0.019353    2.928144    1.285980
  O      0.250017    2.078505    2.275304
  H     -1.062706    1.282070    2.644778
  C      3.426630    0.096925   -0.981280
  H      4.295748   -0.454444   -1.413060
  H     -0.696293    3.749686    1.554498

 Total Charge           Charge          ....    0
 Multiplicity           Mult            ....    1
 Number of Electrons    NEL             ....  106
 Basis Dimension        Dim             ....  227

ORBITAL ENERGIES
----------------

  NO   OCC          E(Eh)            E(eV)
   0   2.0000     -19.574804      -532.6575
   1   2.0000     -19.559028      -532.2282
   2   2.0000     -19.498505      -530.5813
   3   2.0000     -19.485476      -530.2268
   4   2.0000     -10.619483      -288.9708
   5   2.0000     -10.559364      -287.3349
   6   2.0000     -10.467399      -284.8324
   7   2.0000     -10.459324      -284.6127
   8   2.0000     -10.454508      -284.4816
   9   2.0000     -10.453322      -284.4494
  10   2.0000     -10.452176      -284.4182
  11   2.0000     -10.450228      -284.3652
  12   2.0000      -3.658986       -99.5661
  13   2.0000      -2.310009       -62.8585
  14   2.0000      -2.299315       -62.5675
  15   2.0000      -2.270778       -61.7910
  16   2.0000      -1.258106       -34.2348
  17   2.0000      -1.193604       -32.4796
  18   2.0000      -1.134901       -30.8822
  19   2.0000      -1.081600       -29.4318
  20   2.0000      -0.951531       -25.8925
  21   2.0000      -0.835650       -22.7392
  22   2.0000      -0.829832       -22.5809
  23   2.0000      -0.721138       -19.6232
  24   2.0000      -0.678275       -18.4568
  25   2.0000      -0.668980       -18.2039
  26   2.0000      -0.660766       -17.9804
  27   2.0000      -0.617447       -16.8016
  28   2.0000      -0.593539       -16.1510
  29   2.0000      -0.583110       -15.8672
  30   2.0000      -0.558796       -15.2056
  31   2.0000      -0.551530       -15.0079
  32   2.0000      -0.522844       -14.2273
  33   2.0000      -0.513451       -13.9717
  34   2.0000      -0.508387       -13.8339
  35   2.0000      -0.495889       -13.4938
  36   2.0000      -0.479238       -13.0407
  37   2.0000      -0.449489       -12.2312
  38   2.0000      -0.446976       -12.1628
  39   2.0000      -0.432346       -11.7647
  40   2.0000      -0.426760       -11.6127
  41   2.0000      -0.401919       -10.9368
  42   2.0000      -0.398489       -10.8434
  43   2.0000      -0.386706       -10.5228
  44   2.0000      -0.369769       -10.0619
  45   2.0000      -0.362791        -9.8720
  46   2.0000      -0.350228        -9.5302
  47   2.0000      -0.344441        -9.3727
  48   2.0000      -0.319790        -8.7019
  49   2.0000      -0.315258        -8.5786
  50   2.0000      -0.292737        -7.9658
  51   2.0000      -0.289342        -7.8734
  52   2.0000      -0.262436        -7.1412
  53   0.0000      -0.121287        -3.3004
  54   0.0000      -0.070591        -1.9209
  55   0.0000       0.000762         0.0207
  56   0.0000       0.015795         0.4298
  57   0.0000       0.025917         0.7052

MULLIKEN ATOMIC CHARGES
-----------------------
   0 C :   -0.211541
   1 C :   -0.215087
   2 C :   -0.217056
   3 C :   -0.211113
   4 C :   -0.261968
   5 C :   -0.210997
   6 H :    0.227861
   7 H :    0.224992
   8 H :    0.226039
   9 H :    0.246022
  10 H :    0.225560
  11 Pd:    0.426072
  12 O :   -0.449721
  13 O :   -0.486126
  14 O :   -0.367057
  15 C :    0.388109
  16 O :   -0.459982
  17 H :    0.344533
  18 C :    0.380269
  19 H :    0.186417
  20 H :    0.214777
Sum of atomic charges:   -0.0000000

LOEWDIN ATOMIC CHARGES
----------------------
   0 C :   -0.108463
   1 C :   -0.138977
   2 C :   -0.116660
   3 C :   -0.133975
   4 C :   -0.097023
   5 C :   -0.090509
   6 H :    0.142688
   7 H :    0.138655
   8 H :    0.137957
   9 H :    0.152397
  10 H :    0.140063
  11 Pd:   -0.267901
  12 O :   -0.195977
  13 O :   -0.169100
  14 O :   -0.025981
  15 C :    0.161881
  16 O :   -0.252324
  17 H :    0.354604
  18 C :    0.136307
  19 H :    0.110531
  20 H :    0.121807

  Mayer bond orders larger than 0.100000
B(  0-C ,  1-C ) :   1.4370 B(  0-C ,  4-C ) :   1.3222 B(  0-C ,  6-H ) :   0.9083
B(  1-C ,  2-C ) :   1.4155 B(  1-C ,  7-H ) :   0.9153 B(  2-C ,  3-C ) :   1.4131
B(  2-C ,  8-H ) :   0.9166 B(  3-C ,  5-C ) :   1.4343 B(  3-C , 10-H ) :   0.9153
B(  4-C ,  5-C ) :   1.3640 B(  4-C , 11-Pd) :   0.7380 B(  4-C , 17-H ) :   0.1575
B(  5-C ,  9-H ) :   0.9039 B( 11-Pd, 12-O ) :   0.3682 B( 11-Pd, 13-O ) :   0.5706
B( 11-Pd, 14-O ) :   0.4374 B( 12-O , 13-O ) :   0.1130 B( 12-O , 18-C ) :   1.6204
B( 13-O , 18-C ) :   1.4064 B( 14-O , 15-C ) :   1.6854 B( 15-C , 16-O ) :   1.3111
B( 15-C , 20-H ) :   0.8751 B( 16-O , 17-H ) :   0.5422 B( 18-C , 19-H ) :   0.8813

Dispersion correction           -0.013667790
FINAL SINGLE POINT ENERGY      -736.958109508644
Dispersion correction            ... done

DIPOLE MOMENT
-------------
                                X             Y             Z
Electronic contribution:     47.28513      38.80984      -0.35959
Nuclear contribution   :    -48.75988     -38.65432       1.09926
                        -----------------------------------------
Total Dipole Moment    :     -1.47475       0.15552       0.73968
                        -----------------------------------------
Magnitude (a.u.)       :      1.65716
Magnitude (Debye)      :      4.21218

Rotational constants in cm-1:     0.028347     0.018133     0.013361
Rotational constants in MHz :   849.816810   543.627006   400.566028

                             ****ORCA TERMINATED NORMALLY****
TOTAL RUN TIME: 0 days 0 hours 4 minutes 22 seconds 392 msec
