                         Program Version 5.0.3 -  RELEASE  -
|  1> ! EnGrad PBEh-3c
|  2> %output
|  3> xyzfile=True
|  4> end
|  5> %scf
|  6> maxiter 250
|  7> end
|  8> %output
|  9> Print[P_Hirshfeld] = 1
| 10> end
| 11> % maxcore
| 12> 4000
| 13> *xyz 0 1
| 14> C   -1.55254159   0.17942370  -0.49194360
| 15> C   -2.05732607  -0.87626851  -1.26317825
| 16> C   -1.65972902  -2.18083295  -0.99304608
| 17> C   -0.78385299  -2.42811782   0.05581873
| 18> C   -0.57707027  -0.02530596   0.50784801
| 19> C   -0.28646489  -1.36434390   0.81561112
| 20> H   -1.87120453   1.17905657  -0.77250813
| 21> H   -2.73862007  -0.67718841  -2.09157715
| 22> H   -2.07439318  -2.99698115  -1.56552381
| 23> H    0.41317195  -1.60782463   1.60718488
| 24> H   -0.44773575  -3.45181710   0.24132907
| 25> Pd   1.28285871   1.01989702   0.00347270
| 26> O    3.21096883   1.27921419  -1.28649129
| 27> O    2.58557003  -0.52162886  -0.23697994
| 28> O    0.37434122   2.80462212   0.15672625
| 29> C   -0.03082007   2.92713290   1.29558758
| 30> O    0.21429060   2.06281181   2.28520281
| 31> H   -1.00244189   1.28112879   2.57338407
| 32> C    3.40911579   0.09389930  -0.98190533
| 33> H    4.27415155  -0.46292937  -1.41556041
| 34> H   -0.68172237   3.75690980   1.54744344
| 35> *
| 36>
| 37>                          ****END OF INPUT****

CARTESIAN COORDINATES (ANGSTROEM)
---------------------------------
  C     -1.552542    0.179424   -0.491944
  C     -2.057326   -0.876269   -1.263178
  C     -1.659729   -2.180833   -0.993046
  C     -0.783853   -2.428118    0.055819
  C     -0.577070   -0.025306    0.507848
  C     -0.286465   -1.364344    0.815611
  H     -1.871205    1.179057   -0.772508
  H     -2.738620   -0.677188   -2.091577
  H     -2.074393   -2.996981   -1.565524
  H      0.413172   -1.607825    1.607185
  H     -0.447736   -3.451817    0.241329
  Pd     1.282859    1.019897    0.003473
  O      3.210969    1.279214   -1.286491
  O      2.585570   -0.521629   -0.236980
  O      0.374341    2.804622    0.156726
  C     -0.030820    2.927133    1.295588
  O      0.214291    2.062812    2.285203
  H     -1.002442    1.281129    2.573384
  C      3.409116    0.093899   -0.981905
  H      4.274152   -0.462929   -1.415560
  H     -0.681722    3.756910    1.547443

 Total Charge           Charge          ....    0
 Multiplicity           Mult            ....    1
 Number of Electrons    NEL             ....  106
 Basis Dimension        Dim             ....  227

ORBITAL ENERGIES
----------------

  NO   OCC          E(Eh)            E(eV)
   0   2.0000     -19.580938      -532.8244
   1   2.0000     -19.567848      -532.4682
   2   2.0000     -19.494941      -530.4843
   3   2.0000     -19.482092      -530.1347
   4   2.0000     -10.628041      -289.2037
   5   2.0000     -10.556657      -287.2612
   6   2.0000     -10.461876      -284.6821
   7   2.0000     -10.456935      -284.5477
   8   2.0000     -10.452265      -284.4206
   9   2.0000     -10.451393      -284.3969
  10   2.0000     -10.451312      -284.3947
  11   2.0000     -10.449064      -284.3335
  12   2.0000      -3.657022       -99.5126
  13   2.0000      -2.307849       -62.7998
  14   2.0000      -2.297989       -62.5315
  15   2.0000      -2.268747       -61.7357
  16   2.0000      -1.258249       -34.2387
  17   2.0000      -1.189284       -32.3621
  18   2.0000      -1.143383       -31.1130
  19   2.0000      -1.078316       -29.3425
  20   2.0000      -0.950235       -25.8572
  21   2.0000      -0.833311       -22.6755
  22   2.0000      -0.829505       -22.5720
  23   2.0000      -0.731985       -19.9183
  24   2.0000      -0.676852       -18.4181
  25   2.0000      -0.667357       -18.1597
  26   2.0000      -0.658038       -17.9061
  27   2.0000      -0.625529       -17.0215
  28   2.0000      -0.602611       -16.3979
  29   2.0000      -0.582067       -15.8389
  30   2.0000      -0.560997       -15.2655
  31   2.0000      -0.549849       -14.9621
  32   2.0000      -0.519865       -14.1462
  33   2.0000      -0.511395       -13.9158
  34   2.0000      -0.507264       -13.8034
  35   2.0000      -0.492430       -13.3997
  36   2.0000      -0.476399       -12.9635
  37   2.0000      -0.459727       -12.5098
  38   2.0000      -0.447312       -12.1720
  39   2.0000      -0.439077       -11.9479
  40   2.0000      -0.427552       -11.6343
  41   2.0000      -0.410078       -11.1588
  42   2.0000      -0.396439       -10.7876
  43   2.0000      -0.386217       -10.5095
  44   2.0000      -0.368250       -10.0206
  45   2.0000      -0.360644        -9.8136
  46   2.0000      -0.347025        -9.4430
  47   2.0000      -0.344155        -9.3649
  48   2.0000      -0.318102        -8.6560
  49   2.0000      -0.313647        -8.5348
  50   2.0000      -0.291102        -7.9213
  51   2.0000      -0.287883        -7.8337
  52   2.0000      -0.261171        -7.1068
  53   0.0000      -0.107181        -2.9166
  54   0.0000      -0.064686        -1.7602
  55   0.0000      -0.006234        -0.1696
  56   0.0000       0.016978         0.4620
  57   0.0000       0.028165         0.7664

MULLIKEN ATOMIC CHARGES
-----------------------
   0 C :   -0.205100
   1 C :   -0.218805
   2 C :   -0.217075
   3 C :   -0.214495
   4 C :   -0.286257
   5 C :   -0.204807
   6 H :    0.224140
   7 H :    0.223169
   8 H :    0.225479
   9 H :    0.243885
  10 H :    0.224159
  11 Pd:    0.429213
  12 O :   -0.450053
  13 O :   -0.490632
  14 O :   -0.369895
  15 C :    0.397710
  16 O :   -0.477920
  17 H :    0.380238
  18 C :    0.377993
  19 H :    0.184550
  20 H :    0.224502
Sum of atomic charges:    0.0000000

LOEWDIN ATOMIC CHARGES
----------------------
   0 C :   -0.109893
   1 C :   -0.138456
   2 C :   -0.118922
   3 C :   -0.133241
   4 C :   -0.109648
   5 C :   -0.091667
   6 H :    0.141086
   7 H :    0.138072
   8 H :    0.137805
   9 H :    0.151369
  10 H :    0.139582
  11 Pd:   -0.273640
  12 O :   -0.200882
  13 O :   -0.173496
  14 O :   -0.026499
  15 C :    0.179486
  16 O :   -0.261031
  17 H :    0.379193
  18 C :    0.134814
  19 H :    0.109338
  20 H :    0.126630

  Mayer bond orders larger than 0.100000
B(  0-C ,  1-C ) :   1.4382 B(  0-C ,  4-C ) :   1.3273 B(  0-C ,  6-H ) :   0.9091
B(  1-C ,  2-C ) :   1.4168 B(  1-C ,  7-H ) :   0.9159 B(  2-C ,  3-C ) :   1.4132
B(  2-C ,  8-H ) :   0.9166 B(  3-C ,  5-C ) :   1.4365 B(  3-C , 10-H ) :   0.9158
B(  4-C ,  5-C ) :   1.3695 B(  4-C , 11-Pd) :   0.7619 B(  4-C , 17-H ) :   0.1288
B(  5-C ,  9-H ) :   0.9044 B( 11-Pd, 12-O ) :   0.3573 B( 11-Pd, 13-O ) :   0.5684
B( 11-Pd, 14-O ) :   0.4328 B( 12-O , 13-O ) :   0.1134 B( 12-O , 18-C ) :   1.6286
B( 13-O , 18-C ) :   1.4037 B( 14-O , 15-C ) :   1.6966 B( 15-C , 16-O ) :   1.2786
B( 15-C , 20-H ) :   0.8742 B( 16-O , 17-H ) :   0.5755 B( 18-C , 19-H ) :   0.8812

Dispersion correction           -0.013748031
FINAL SINGLE POINT ENERGY      -736.977946135076
Dispersion correction            ... done

DIPOLE MOMENT
-------------
                                X             Y             Z
Electronic contribution:     46.32769      38.31459       0.40310
Nuclear contribution   :    -47.83349     -38.00620       0.43860
                        -----------------------------------------
Total Dipole Moment    :     -1.50580       0.30839       0.84170
                        -----------------------------------------
Magnitude (a.u.)       :      1.75243
Magnitude (Debye)      :      4.45431

Rotational constants in cm-1:     0.028357     0.018353     0.013479
Rotational constants in MHz :   850.115004   550.194316   404.087346

                             ****ORCA TERMINATED NORMALLY****
TOTAL RUN TIME: 0 days 0 hours 4 minutes 10 seconds 358 msec
