                         Program Version 5.0.3 -  RELEASE  -
|  1> ! EnGrad PBEh-3c
|  2> %output
|  3> xyzfile=True
|  4> end
|  5> %scf
|  6> maxiter 250
|  7> end
|  8> %output
|  9> Print[P_Hirshfeld] = 1
| 10> end
| 11> % maxcore
| 12> 4000
| 13> *xyz 0 1
| 14> C   -1.55665790   0.18699517  -0.45427577
| 15> C   -2.03730203  -0.85847648  -1.24605818
| 16> C   -1.62319338  -2.16897591  -1.00859681
| 17> C   -0.76490451  -2.40729095   0.06668346
| 18> C   -0.60717900  -0.03526265   0.53723279
| 19> C   -0.29947714  -1.34878553   0.84132974
| 20> H   -1.89431943   1.18091540  -0.71431495
| 21> H   -2.69468558  -0.66712583  -2.10587247
| 22> H   -1.99993532  -2.99677685  -1.62147618
| 23> H    0.37785618  -1.58809835   1.64123979
| 24> H   -0.41174903  -3.43192340   0.23079952
| 25> Pd   1.25722473   0.99971656   0.02183289
| 26> O    3.16492324   1.26542495  -1.30750346
| 27> O    2.56452929  -0.52949480  -0.20937563
| 28> O    0.37693257   2.78173173   0.17123638
| 29> C   -0.04919424   2.91518075   1.32222797
| 30> O    0.12922882   2.03493538   2.29258787
| 31> H   -0.85998899   1.27501494   2.40163285
| 32> C    3.36176039   0.08185032  -0.99306305
| 33> H    4.21960599  -0.48158925  -1.41520826
| 34> H   -0.65334122   3.78003330   1.53597748
| 35> *
| 36>
| 37>                          ****END OF INPUT****

CARTESIAN COORDINATES (ANGSTROEM)
---------------------------------
  C     -1.556658    0.186995   -0.454276
  C     -2.037302   -0.858476   -1.246058
  C     -1.623193   -2.168976   -1.008597
  C     -0.764905   -2.407291    0.066683
  C     -0.607179   -0.035263    0.537233
  C     -0.299477   -1.348786    0.841330
  H     -1.894319    1.180915   -0.714315
  H     -2.694686   -0.667126   -2.105872
  H     -1.999935   -2.996777   -1.621476
  H      0.377856   -1.588098    1.641240
  H     -0.411749   -3.431923    0.230800
  Pd     1.257225    0.999717    0.021833
  O      3.164923    1.265425   -1.307503
  O      2.564529   -0.529495   -0.209376
  O      0.376933    2.781732    0.171236
  C     -0.049194    2.915181    1.322228
  O      0.129229    2.034935    2.292588
  H     -0.859989    1.275015    2.401633
  C      3.361760    0.081850   -0.993063
  H      4.219606   -0.481589   -1.415208
  H     -0.653341    3.780033    1.535977

 Total Charge           Charge          ....    0
 Multiplicity           Mult            ....    1
 Number of Electrons    NEL             ....  106
 Basis Dimension        Dim             ....  227

ORBITAL ENERGIES
----------------

  NO   OCC          E(Eh)            E(eV)
   0   2.0000     -19.586889      -532.9864
   1   2.0000     -19.575263      -532.6700
   2   2.0000     -19.493898      -530.4559
   3   2.0000     -19.482704      -530.1513
   4   2.0000     -10.638991      -289.5017
   5   2.0000     -10.556241      -287.2499
   6   2.0000     -10.452972      -284.4398
   7   2.0000     -10.452542      -284.4281
   8   2.0000     -10.452066      -284.4152
   9   2.0000     -10.450345      -284.3683
  10   2.0000     -10.447293      -284.2853
  11   2.0000     -10.445775      -284.2440
  12   2.0000      -3.655728       -99.4774
  13   2.0000      -2.306914       -62.7743
  14   2.0000      -2.296726       -62.4971
  15   2.0000      -2.267576       -61.7039
  16   2.0000      -1.261075       -34.3156
  17   2.0000      -1.186984       -32.2995
  18   2.0000      -1.165038       -31.7023
  19   2.0000      -1.078133       -29.3375
  20   2.0000      -0.951811       -25.9001
  21   2.0000      -0.833327       -22.6760
  22   2.0000      -0.829785       -22.5796
  23   2.0000      -0.747928       -20.3522
  24   2.0000      -0.676871       -18.4186
  25   2.0000      -0.666161       -18.1272
  26   2.0000      -0.659663       -17.9503
  27   2.0000      -0.649603       -17.6766
  28   2.0000      -0.616278       -16.7698
  29   2.0000      -0.583101       -15.8670
  30   2.0000      -0.568007       -15.4563
  31   2.0000      -0.549960       -14.9652
  32   2.0000      -0.519755       -14.1433
  33   2.0000      -0.509212       -13.8564
  34   2.0000      -0.508358       -13.8331
  35   2.0000      -0.491666       -13.3789
  36   2.0000      -0.476921       -12.9777
  37   2.0000      -0.472879       -12.8677
  38   2.0000      -0.450107       -12.2480
  39   2.0000      -0.447556       -12.1786
  40   2.0000      -0.431075       -11.7301
  41   2.0000      -0.422170       -11.4878
  42   2.0000      -0.394837       -10.7441
  43   2.0000      -0.385814       -10.4985
  44   2.0000      -0.366943        -9.9850
  45   2.0000      -0.360574        -9.8117
  46   2.0000      -0.346266        -9.4224
  47   2.0000      -0.343950        -9.3593
  48   2.0000      -0.317599        -8.6423
  49   2.0000      -0.312679        -8.5084
  50   2.0000      -0.290587        -7.9073
  51   2.0000      -0.287507        -7.8235
  52   2.0000      -0.259159        -7.0521
  53   0.0000      -0.086699        -2.3592
  54   0.0000      -0.049299        -1.3415
  55   0.0000       0.003252         0.0885
  56   0.0000       0.018926         0.5150
  57   0.0000       0.039972         1.0877

MULLIKEN ATOMIC CHARGES
-----------------------
   0 C :   -0.187444
   1 C :   -0.227111
   2 C :   -0.216900
   3 C :   -0.221943
   4 C :   -0.338046
   5 C :   -0.189944
   6 H :    0.221149
   7 H :    0.219709
   8 H :    0.224597
   9 H :    0.242429
  10 H :    0.221582
  11 Pd:    0.436566
  12 O :   -0.449714
  13 O :   -0.496680
  14 O :   -0.377265
  15 C :    0.410476
  16 O :   -0.519033
  17 H :    0.447611
  18 C :    0.380406
  19 H :    0.184103
  20 H :    0.235452
Sum of atomic charges:   -0.0000000

LOEWDIN ATOMIC CHARGES
----------------------
   0 C :   -0.112759
   1 C :   -0.136042
   2 C :   -0.121539
   3 C :   -0.130175
   4 C :   -0.136155
   5 C :   -0.095542
   6 H :    0.140239
   7 H :    0.136750
   8 H :    0.138289
   9 H :    0.150544
  10 H :    0.138272
  11 Pd:   -0.273545
  12 O :   -0.201224
  13 O :   -0.178219
  14 O :   -0.031023
  15 C :    0.198903
  16 O :   -0.271777
  17 H :    0.406009
  18 C :    0.137660
  19 H :    0.108731
  20 H :    0.132606

  Mayer bond orders larger than 0.100000
B(  0-C ,  1-C ) :   1.4391 B(  0-C ,  4-C ) :   1.3402 B(  0-C ,  6-H ) :   0.9095
B(  1-C ,  2-C ) :   1.4196 B(  1-C ,  7-H ) :   0.9165 B(  2-C ,  3-C ) :   1.4123
B(  2-C ,  8-H ) :   0.9170 B(  3-C ,  5-C ) :   1.4418 B(  3-C , 10-H ) :   0.9160
B(  4-C ,  5-C ) :   1.3842 B(  4-C , 11-Pd) :   0.7637 B(  4-C , 17-H ) :   0.1027
B(  5-C ,  9-H ) :   0.9046 B( 11-Pd, 12-O ) :   0.3523 B( 11-Pd, 13-O ) :   0.5680
B( 11-Pd, 14-O ) :   0.4351 B( 12-O , 13-O ) :   0.1143 B( 12-O , 18-C ) :   1.6329
B( 13-O , 18-C ) :   1.3988 B( 14-O , 15-C ) :   1.7042 B( 15-C , 16-O ) :   1.2463
B( 15-C , 20-H ) :   0.8736 B( 16-O , 17-H ) :   0.5963 B( 18-C , 19-H ) :   0.8822

Dispersion correction           -0.013562598
FINAL SINGLE POINT ENERGY      -737.021924869082
Dispersion correction            ... done

DIPOLE MOMENT
-------------
                                X             Y             Z
Electronic contribution:     45.68141      37.67640       0.99560
Nuclear contribution   :    -47.08216     -37.21560      -0.15110
                        -----------------------------------------
Total Dipole Moment    :     -1.40075       0.46080       0.84450
                        -----------------------------------------
Magnitude (a.u.)       :      1.69930
Magnitude (Debye)      :      4.31928

Rotational constants in cm-1:     0.028343     0.018792     0.013702
Rotational constants in MHz :   849.704262   563.384180   410.774977

                             ****ORCA TERMINATED NORMALLY****
TOTAL RUN TIME: 0 days 0 hours 4 minutes 19 seconds 831 msec
