                         Program Version 5.0.3 -  RELEASE  -
|  1> ! EnGrad PBEh-3c
|  2> %output
|  3> xyzfile=True
|  4> end
|  5> %scf
|  6> maxiter 250
|  7> end
|  8> %output
|  9> Print[P_Hirshfeld] = 1
| 10> end
| 11> % maxcore
| 12> 4000
| 13> *xyz 0 1
| 14> C   -1.56700024   0.18825115  -0.44703765
| 15> C   -2.03181475  -0.85469982  -1.24351578
| 16> C   -1.61007156  -2.16228646  -1.01092778
| 17> C   -0.75866735  -2.40428617   0.06658813
| 18> C   -0.62221570  -0.02877473   0.56427287
| 19> C   -0.30667159  -1.35484246   0.85270302
| 20> H   -1.90243987   1.18500684  -0.69060191
| 21> H   -2.67477105  -0.66158616  -2.10529103
| 22> H   -1.96959971  -2.99131078  -1.63850066
| 23> H    0.36704505  -1.57994294   1.65843108
| 24> H   -0.39881774  -3.41884944   0.22836446
| 25> Pd   1.25405210   0.99208791   0.02420131
| 26> O    3.14478475   1.26112070  -1.31140260
| 27> O    2.55577153  -0.53279120  -0.20070516
| 28> O    0.37220250   2.77138693   0.18428165
| 29> C   -0.04748051   2.89974592   1.33414995
| 30> O    0.08985414   2.03072331   2.28616218
| 31> H   -0.79115553   1.26399075   2.31237722
| 32> C    3.34127482   0.07693285  -0.99703416
| 33> H    4.19784511  -0.48634805  -1.41254824
| 34> H   -0.64267464   3.79322792   1.53139285
| 35> *
| 36>
| 37>                          ****END OF INPUT****

CARTESIAN COORDINATES (ANGSTROEM)
---------------------------------
  C     -1.567000    0.188251   -0.447038
  C     -2.031815   -0.854700   -1.243516
  C     -1.610072   -2.162286   -1.010928
  C     -0.758667   -2.404286    0.066588
  C     -0.622216   -0.028775    0.564273
  C     -0.306672   -1.354842    0.852703
  H     -1.902440    1.185007   -0.690602
  H     -2.674771   -0.661586   -2.105291
  H     -1.969600   -2.991311   -1.638501
  H      0.367045   -1.579943    1.658431
  H     -0.398818   -3.418849    0.228364
  Pd     1.254052    0.992088    0.024201
  O      3.144785    1.261121   -1.311403
  O      2.555772   -0.532791   -0.200705
  O      0.372202    2.771387    0.184282
  C     -0.047481    2.899746    1.334150
  O      0.089854    2.030723    2.286162
  H     -0.791156    1.263991    2.312377
  C      3.341275    0.076933   -0.997034
  H      4.197845   -0.486348   -1.412548
  H     -0.642675    3.793228    1.531393

 Total Charge           Charge          ....    0
 Multiplicity           Mult            ....    1
 Number of Electrons    NEL             ....  106
 Basis Dimension        Dim             ....  227

ORBITAL ENERGIES
----------------

  NO   OCC          E(Eh)            E(eV)
   0   2.0000     -19.585163      -532.9394
   1   2.0000     -19.572927      -532.6064
   2   2.0000     -19.497280      -530.5480
   3   2.0000     -19.486390      -530.2516
   4   2.0000     -10.638790      -289.4962
   5   2.0000     -10.558931      -287.3231
   6   2.0000     -10.453775      -284.4617
   7   2.0000     -10.453414      -284.4518
   8   2.0000     -10.451000      -284.3862
   9   2.0000     -10.449449      -284.3440
  10   2.0000     -10.446621      -284.2670
  11   2.0000     -10.445929      -284.2482
  12   2.0000      -3.658407       -99.5503
  13   2.0000      -2.309949       -62.8569
  14   2.0000      -2.299075       -62.5610
  15   2.0000      -2.270184       -61.7748
  16   2.0000      -1.269082       -34.5335
  17   2.0000      -1.190525       -32.3958
  18   2.0000      -1.177966       -32.0541
  19   2.0000      -1.081922       -29.4406
  20   2.0000      -0.951422       -25.8895
  21   2.0000      -0.834583       -22.7102
  22   2.0000      -0.828619       -22.5479
  23   2.0000      -0.750237       -20.4150
  24   2.0000      -0.677006       -18.4223
  25   2.0000      -0.669531       -18.2189
  26   2.0000      -0.664910       -18.0931
  27   2.0000      -0.658985       -17.9319
  28   2.0000      -0.620398       -16.8819
  29   2.0000      -0.585616       -15.9354
  30   2.0000      -0.572298       -15.5730
  31   2.0000      -0.553631       -15.0651
  32   2.0000      -0.523275       -14.2391
  33   2.0000      -0.510037       -13.8788
  34   2.0000      -0.508411       -13.8346
  35   2.0000      -0.495098       -13.4723
  36   2.0000      -0.478793       -13.0286
  37   2.0000      -0.475124       -12.9288
  38   2.0000      -0.451076       -12.2744
  39   2.0000      -0.448283       -12.1984
  40   2.0000      -0.431308       -11.7365
  41   2.0000      -0.424620       -11.5545
  42   2.0000      -0.394283       -10.7290
  43   2.0000      -0.387265       -10.5380
  44   2.0000      -0.369607       -10.0575
  45   2.0000      -0.363819        -9.9000
  46   2.0000      -0.349165        -9.5013
  47   2.0000      -0.345802        -9.4098
  48   2.0000      -0.320083        -8.7099
  49   2.0000      -0.315068        -8.5734
  50   2.0000      -0.291620        -7.9354
  51   2.0000      -0.288635        -7.8541
  52   2.0000      -0.260897        -7.0994
  53   0.0000      -0.085511        -2.3269
  54   0.0000      -0.042919        -1.1679
  55   0.0000       0.011597         0.3156
  56   0.0000       0.019559         0.5322
  57   0.0000       0.048007         1.3063

MULLIKEN ATOMIC CHARGES
-----------------------
   0 C :   -0.182788
   1 C :   -0.224814
   2 C :   -0.217388
   3 C :   -0.218749
   4 C :   -0.373064
   5 C :   -0.187127
   6 H :    0.221266
   7 H :    0.219966
   8 H :    0.224557
   9 H :    0.241911
  10 H :    0.221787
  11 Pd:    0.442864
  12 O :   -0.448769
  13 O :   -0.496191
  14 O :   -0.376851
  15 C :    0.408947
  16 O :   -0.526511
  17 H :    0.470656
  18 C :    0.383514
  19 H :    0.185598
  20 H :    0.231186
Sum of atomic charges:   -0.0000000

LOEWDIN ATOMIC CHARGES
----------------------
   0 C :   -0.109229
   1 C :   -0.137666
   2 C :   -0.117572
   3 C :   -0.132040
   4 C :   -0.155467
   5 C :   -0.092992
   6 H :    0.139759
   7 H :    0.136966
   8 H :    0.138530
   9 H :    0.149655
  10 H :    0.138339
  11 Pd:   -0.267333
  12 O :   -0.198055
  13 O :   -0.175247
  14 O :   -0.031312
  15 C :    0.189540
  16 O :   -0.263270
  17 H :    0.406318
  18 C :    0.140081
  19 H :    0.109497
  20 H :    0.131498

  Mayer bond orders larger than 0.100000
B(  0-C ,  1-C ) :   1.4432 B(  0-C ,  4-C ) :   1.3367 B(  0-C ,  6-H ) :   0.9101
B(  1-C ,  2-C ) :   1.4171 B(  1-C ,  7-H ) :   0.9166 B(  2-C ,  3-C ) :   1.4114
B(  2-C ,  8-H ) :   0.9172 B(  3-C ,  5-C ) :   1.4453 B(  3-C , 10-H ) :   0.9159
B(  4-C ,  5-C ) :   1.3826 B(  4-C , 11-Pd) :   0.7459 B(  4-C , 17-H ) :   0.1117
B(  5-C ,  9-H ) :   0.9054 B( 11-Pd, 12-O ) :   0.3587 B( 11-Pd, 13-O ) :   0.5711
B( 11-Pd, 14-O ) :   0.4416 B( 12-O , 13-O ) :   0.1145 B( 12-O , 18-C ) :   1.6290
B( 13-O , 18-C ) :   1.3973 B( 14-O , 15-C ) :   1.7007 B( 15-C , 16-O ) :   1.2594
B( 15-C , 20-H ) :   0.8749 B( 16-O , 17-H ) :   0.5805 B( 18-C , 19-H ) :   0.8830

Dispersion correction           -0.013469554
FINAL SINGLE POINT ENERGY      -737.039265417526
Dispersion correction            ... done

DIPOLE MOMENT
-------------
                                X             Y             Z
Electronic contribution:     45.89204      37.34943       0.89856
Nuclear contribution   :    -47.14578     -36.93364      -0.15665
                        -----------------------------------------
Total Dipole Moment    :     -1.25373       0.41579       0.74191
                        -----------------------------------------
Magnitude (a.u.)       :      1.51498
Magnitude (Debye)      :      3.85077

Rotational constants in cm-1:     0.028353     0.018942     0.013773
Rotational constants in MHz :   850.013179   567.868954   412.892285

                             ****ORCA TERMINATED NORMALLY****
TOTAL RUN TIME: 0 days 0 hours 4 minutes 36 seconds 657 msec
