                         Program Version 5.0.3 -  RELEASE  -
|  1> ! EnGrad PBEh-3c
|  2> %output
|  3> xyzfile=True
|  4> end
|  5> %scf
|  6> maxiter 250
|  7> end
|  8> %output
|  9> Print[P_Hirshfeld] = 1
| 10> end
| 11> % maxcore
| 12> 4000
| 13> *xyz 0 1
| 14> C   -1.57614000   0.18947019  -0.44300983
| 15> C   -2.02874562  -0.85332722  -1.24298799
| 16> C   -1.60213480  -2.15554640  -1.00899849
| 17> C   -0.75459637  -2.40434518   0.06299380
| 18> C   -0.64424511  -0.02375390   0.59791844
| 19> C   -0.31394717  -1.36314858   0.86385796
| 20> H   -1.90892231   1.19204337  -0.67189216
| 21> H   -2.65754257  -0.65517541  -2.09891591
| 22> H   -1.94410626  -2.98041403  -1.64614803
| 23> H    0.36191006  -1.57438175   1.67620044
| 24> H   -0.38987330  -3.40428093   0.22899890
| 25> Pd   1.26071134   0.98706658   0.01614106
| 26> O    3.12440562   1.25943006  -1.30592906
| 27> O    2.54867632  -0.53844837  -0.19680539
| 28> O    0.36574454   2.75621087   0.19635588
| 29> C   -0.04977212   2.89523238   1.34356453
| 30> O    0.05406932   2.02558941   2.28359856
| 31> H   -0.71690230   1.24222005   2.20802522
| 32> C    3.32125138   0.07255195  -1.00072487
| 33> H    4.17917302  -0.48662987  -1.40601509
| 34> H   -0.63061879   3.80499879   1.52740599
| 35> *
| 36>
| 37>                          ****END OF INPUT****

CARTESIAN COORDINATES (ANGSTROEM)
---------------------------------
  C     -1.576140    0.189470   -0.443010
  C     -2.028746   -0.853327   -1.242988
  C     -1.602135   -2.155546   -1.008998
  C     -0.754596   -2.404345    0.062994
  C     -0.644245   -0.023754    0.597918
  C     -0.313947   -1.363149    0.863858
  H     -1.908922    1.192043   -0.671892
  H     -2.657543   -0.655175   -2.098916
  H     -1.944106   -2.980414   -1.646148
  H      0.361910   -1.574382    1.676200
  H     -0.389873   -3.404281    0.228999
  Pd     1.260711    0.987067    0.016141
  O      3.124406    1.259430   -1.305929
  O      2.548676   -0.538448   -0.196805
  O      0.365745    2.756211    0.196356
  C     -0.049772    2.895232    1.343565
  O      0.054069    2.025589    2.283599
  H     -0.716902    1.242220    2.208025
  C      3.321251    0.072552   -1.000725
  H      4.179173   -0.486630   -1.406015
  H     -0.630619    3.804999    1.527406

 Total Charge           Charge          ....    0
 Multiplicity           Mult            ....    1
 Number of Electrons    NEL             ....  106
 Basis Dimension        Dim             ....  227

ORBITAL ENERGIES
----------------

  NO   OCC          E(Eh)            E(eV)
   0   2.0000     -19.582807      -532.8753
   1   2.0000     -19.566320      -532.4266
   2   2.0000     -19.503182      -530.7086
   3   2.0000     -19.492836      -530.4270
   4   2.0000     -10.636751      -289.4407
   5   2.0000     -10.563499      -287.4474
   6   2.0000     -10.454394      -284.4785
   7   2.0000     -10.454209      -284.4735
   8   2.0000     -10.449323      -284.3405
   9   2.0000     -10.447958      -284.3034
  10   2.0000     -10.447862      -284.3008
  11   2.0000     -10.444566      -284.2111
  12   2.0000      -3.662233       -99.6544
  13   2.0000      -2.314397       -62.9779
  14   2.0000      -2.302251       -62.6474
  15   2.0000      -2.273898       -61.8759
  16   2.0000      -1.273343       -34.6494
  17   2.0000      -1.197819       -32.5943
  18   2.0000      -1.182676       -32.1822
  19   2.0000      -1.088777       -29.6271
  20   2.0000      -0.950743       -25.8710
  21   2.0000      -0.835300       -22.7297
  22   2.0000      -0.827492       -22.5172
  23   2.0000      -0.754912       -20.5422
  24   2.0000      -0.677231       -18.4284
  25   2.0000      -0.674978       -18.3671
  26   2.0000      -0.667816       -18.1722
  27   2.0000      -0.662543       -18.0287
  28   2.0000      -0.622766       -16.9463
  29   2.0000      -0.586707       -15.9651
  30   2.0000      -0.573777       -15.6133
  31   2.0000      -0.560012       -15.2387
  32   2.0000      -0.529512       -14.4088
  33   2.0000      -0.511404       -13.9160
  34   2.0000      -0.508050       -13.8247
  35   2.0000      -0.501418       -13.6443
  36   2.0000      -0.479784       -13.0556
  37   2.0000      -0.476470       -12.9654
  38   2.0000      -0.451656       -12.2902
  39   2.0000      -0.447777       -12.1846
  40   2.0000      -0.430119       -11.7041
  41   2.0000      -0.424914       -11.5625
  42   2.0000      -0.394011       -10.7216
  43   2.0000      -0.389255       -10.5922
  44   2.0000      -0.374258       -10.1841
  45   2.0000      -0.368983       -10.0405
  46   2.0000      -0.354054        -9.6343
  47   2.0000      -0.347415        -9.4536
  48   2.0000      -0.323317        -8.7979
  49   2.0000      -0.318644        -8.6708
  50   2.0000      -0.292815        -7.9679
  51   2.0000      -0.289571        -7.8796
  52   2.0000      -0.263316        -7.1652
  53   0.0000      -0.086743        -2.3604
  54   0.0000      -0.037270        -1.0142
  55   0.0000       0.015174         0.4129
  56   0.0000       0.019736         0.5370
  57   0.0000       0.046712         1.2711

MULLIKEN ATOMIC CHARGES
-----------------------
   0 C :   -0.179909
   1 C :   -0.221564
   2 C :   -0.217150
   3 C :   -0.214808
   4 C :   -0.407730
   5 C :   -0.186198
   6 H :    0.220914
   7 H :    0.220578
   8 H :    0.224489
   9 H :    0.241076
  10 H :    0.222182
  11 Pd:    0.453527
  12 O :   -0.447600
  13 O :   -0.492500
  14 O :   -0.379046
  15 C :    0.405658
  16 O :   -0.533612
  17 H :    0.483282
  18 C :    0.388953
  19 H :    0.188151
  20 H :    0.231306
Sum of atomic charges:    0.0000000

LOEWDIN ATOMIC CHARGES
----------------------
   0 C :   -0.104337
   1 C :   -0.140084
   2 C :   -0.112781
   3 C :   -0.134778
   4 C :   -0.179047
   5 C :   -0.089203
   6 H :    0.139231
   7 H :    0.137137
   8 H :    0.138513
   9 H :    0.148797
  10 H :    0.138377
  11 Pd:   -0.256203
  12 O :   -0.190673
  13 O :   -0.167915
  14 O :   -0.033193
  15 C :    0.185994
  16 O :   -0.262048
  17 H :    0.395434
  18 C :    0.143456
  19 H :    0.110973
  20 H :    0.132348

  Mayer bond orders larger than 0.100000
B(  0-C ,  1-C ) :   1.4475 B(  0-C ,  4-C ) :   1.3295 B(  0-C ,  6-H ) :   0.9110
B(  1-C ,  2-C ) :   1.4136 B(  1-C ,  7-H ) :   0.9165 B(  2-C ,  3-C ) :   1.4129
B(  2-C ,  8-H ) :   0.9176 B(  3-C ,  5-C ) :   1.4454 B(  3-C , 10-H ) :   0.9159
B(  4-C ,  5-C ) :   1.3806 B(  4-C , 11-Pd) :   0.7087 B(  4-C , 17-H ) :   0.1323
B(  5-C ,  9-H ) :   0.9063 B( 11-Pd, 12-O ) :   0.3746 B( 11-Pd, 13-O ) :   0.5757
B( 11-Pd, 14-O ) :   0.4478 B( 12-O , 13-O ) :   0.1146 B( 12-O , 18-C ) :   1.6174
B( 13-O , 18-C ) :   1.3989 B( 14-O , 15-C ) :   1.6949 B( 15-C , 16-O ) :   1.2723
B( 15-C , 20-H ) :   0.8760 B( 16-O , 17-H ) :   0.5623 B( 18-C , 19-H ) :   0.8843

Dispersion correction           -0.013477571
FINAL SINGLE POINT ENERGY      -737.052070953575
Dispersion correction            ... done

DIPOLE MOMENT
-------------
                                X             Y             Z
Electronic contribution:     46.62462      37.14131       0.23348
Nuclear contribution   :    -47.66972     -36.77794       0.32136
                        -----------------------------------------
Total Dipole Moment    :     -1.04511       0.36338       0.55484
                        -----------------------------------------
Magnitude (a.u.)       :      1.23779
Magnitude (Debye)      :      3.14622

Rotational constants in cm-1:     0.028344     0.019037     0.013811
Rotational constants in MHz :   849.744064   570.724810   414.047754

                             ****ORCA TERMINATED NORMALLY****
TOTAL RUN TIME: 0 days 0 hours 4 minutes 5 seconds 669 msec
