                         Program Version 5.0.3 -  RELEASE  -
|  1> ! EnGrad PBEh-3c
|  2> %output
|  3> xyzfile=True
|  4> end
|  5> %scf
|  6> maxiter 250
|  7> end
|  8> %output
|  9> Print[P_Hirshfeld] = 1
| 10> end
| 11> % maxcore
| 12> 4000
| 13> *xyz 0 1
| 14> Pd   0.42755163   0.10385759  -0.25397166
| 15> O    1.98156088   1.37230284   0.62337319
| 16> C    1.78794750   2.56149090   0.36358146
| 17> O    0.66789936   2.91971442  -0.17441138
| 18> C    2.78649042   3.64026422   0.63825172
| 19> H    2.35158943   4.54368311   1.06541821
| 20> H    3.25728782   3.94313721  -0.29989841
| 21> H    3.56717587   3.27536796   1.29978332
| 22> N   -1.35021603  -0.77308765  -0.95211075
| 23> C   -1.20742829  -1.98860632  -1.77699149
| 24> H   -0.61619977  -1.84043383  -2.67781991
| 25> H   -2.14664987  -2.38010484  -2.20960977
| 26> H   -0.72235226  -2.75633580  -1.19444025
| 27> C   -1.98904958   0.18024021  -1.87198627
| 28> H   -2.09416671   1.14240034  -1.38637893
| 29> H   -2.98558683  -0.14377468  -2.20008844
| 30> H   -1.40436154   0.34014402  -2.77155211
| 31> C   -1.58816375  -1.12866104   1.44574467
| 32> C   -1.58475382  -2.21084496   2.34309596
| 33> C   -1.34522464  -2.04052951   3.70072849
| 34> C   -0.97347645  -0.78909602   4.18008354
| 35> C   -1.16644411   0.31611091   3.35558114
| 36> C   -1.43279047   0.14958898   2.00226742
| 37> H   -0.77817394  -0.65859220   5.23585931
| 38> H   -1.09976777   1.28135394   3.84582666
| 39> H   -2.13339554  -3.10964755   2.10293996
| 40> H   -1.52074442  -2.84853282   4.39583019
| 41> H   -1.69250282   3.61597274   1.19546235
| 42> C   -2.31896958  -1.13412219   0.11896082
| 43> H   -3.17555405  -0.44756120   0.18185289
| 44> H   -2.82270512  -2.10552815   0.03441178
| 45> O    1.65197617   0.27121542  -1.83406293
| 46> C    2.32645443  -0.61490208  -2.45730098
| 47> O    1.86015702  -1.71972213  -2.64796904
| 48> C    3.60305990  -0.30852013  -3.21667740
| 49> H    4.10892528  -1.15883373  -3.67639470
| 50> H    4.33455199   0.08832380  -2.50987083
| 51> H    3.43604398   0.41226822  -4.01750354
| 52> *
| 53>
| 54>                          ****END OF INPUT****

CARTESIAN COORDINATES (ANGSTROEM)
---------------------------------
  Pd     0.427552    0.103858   -0.253972
  O      1.981561    1.372303    0.623373
  C      1.787947    2.561491    0.363581
  O      0.667899    2.919714   -0.174411
  C      2.786490    3.640264    0.638252
  H      2.351589    4.543683    1.065418
  H      3.257288    3.943137   -0.299898
  H      3.567176    3.275368    1.299783
  N     -1.350216   -0.773088   -0.952111
  C     -1.207428   -1.988606   -1.776991
  H     -0.616200   -1.840434   -2.677820
  H     -2.146650   -2.380105   -2.209610
  H     -0.722352   -2.756336   -1.194440
  C     -1.989050    0.180240   -1.871986
  H     -2.094167    1.142400   -1.386379
  H     -2.985587   -0.143775   -2.200088
  H     -1.404362    0.340144   -2.771552
  C     -1.588164   -1.128661    1.445745
  C     -1.584754   -2.210845    2.343096
  C     -1.345225   -2.040530    3.700728
  C     -0.973476   -0.789096    4.180084
  C     -1.166444    0.316111    3.355581
  C     -1.432790    0.149589    2.002267
  H     -0.778174   -0.658592    5.235859
  H     -1.099768    1.281354    3.845827
  H     -2.133396   -3.109648    2.102940
  H     -1.520744   -2.848533    4.395830
  H     -1.692503    3.615973    1.195462
  C     -2.318970   -1.134122    0.118961
  H     -3.175554   -0.447561    0.181853
  H     -2.822705   -2.105528    0.034412
  O      1.651976    0.271215   -1.834063
  C      2.326454   -0.614902   -2.457301
  O      1.860157   -1.719722   -2.647969
  C      3.603060   -0.308520   -3.216677
  H      4.108925   -1.158834   -3.676395
  H      4.334552    0.088324   -2.509871
  H      3.436044    0.412268   -4.017504

 Total Charge           Charge          ....    0
 Multiplicity           Mult            ....    1
 Number of Electrons    NEL             ....  154
 Basis Dimension        Dim             ....  339

ORBITAL ENERGIES
----------------

  NO   OCC          E(Eh)            E(eV)
   0   2.0000     -19.479875      -530.0744
   1   2.0000     -19.473101      -529.8900
   2   2.0000     -19.422203      -528.5050
   3   2.0000     -19.413253      -528.2615
   4   2.0000     -14.739611      -401.0852
   5   2.0000     -10.529316      -286.5173
   6   2.0000     -10.523830      -286.3680
   7   2.0000     -10.517477      -286.1951
   8   2.0000     -10.511014      -286.0192
   9   2.0000     -10.502493      -285.7874
  10   2.0000     -10.485672      -285.3296
  11   2.0000     -10.484466      -285.2968
  12   2.0000     -10.481627      -285.2196
  13   2.0000     -10.480982      -285.2020
  14   2.0000     -10.478003      -285.1210
  15   2.0000     -10.476659      -285.0844
  16   2.0000     -10.417144      -283.4649
  17   2.0000     -10.413714      -283.3716
  18   2.0000      -3.676412      -100.0403
  19   2.0000      -2.325634       -63.2837
  20   2.0000      -2.318237       -63.0824
  21   2.0000      -2.285679       -62.1965
  22   2.0000      -1.156851       -31.4795
  23   2.0000      -1.150513       -31.3070
  24   2.0000      -1.092876       -29.7387
  25   2.0000      -1.042384       -28.3647
  26   2.0000      -1.022196       -27.8154
  27   2.0000      -0.990357       -26.9490
  28   2.0000      -0.900237       -24.4967
  29   2.0000      -0.860414       -23.4130
  30   2.0000      -0.820890       -22.3375
  31   2.0000      -0.811399       -22.0793
  32   2.0000      -0.801621       -21.8132
  33   2.0000      -0.791722       -21.5439
  34   2.0000      -0.732132       -19.9223
  35   2.0000      -0.706800       -19.2330
  36   2.0000      -0.683735       -18.6054
  37   2.0000      -0.610147       -16.6029
  38   2.0000      -0.593867       -16.1599
  39   2.0000      -0.585699       -15.9377
  40   2.0000      -0.583419       -15.8756
  41   2.0000      -0.579451       -15.7677
  42   2.0000      -0.566069       -15.4035
  43   2.0000      -0.543618       -14.7926
  44   2.0000      -0.529247       -14.4015
  45   2.0000      -0.515606       -14.0304
  46   2.0000      -0.505775       -13.7628
  47   2.0000      -0.504975       -13.7411
  48   2.0000      -0.492055       -13.3895
  49   2.0000      -0.490170       -13.3382
  50   2.0000      -0.487225       -13.2581
  51   2.0000      -0.485941       -13.2231
  52   2.0000      -0.481516       -13.1027
  53   2.0000      -0.477570       -12.9953
  54   2.0000      -0.458455       -12.4752
  55   2.0000      -0.448365       -12.2006
  56   2.0000      -0.438233       -11.9249
  57   2.0000      -0.435494       -11.8504
  58   2.0000      -0.429872       -11.6974
  59   2.0000      -0.427892       -11.6435
  60   2.0000      -0.420906       -11.4534
  61   2.0000      -0.416976       -11.3465
  62   2.0000      -0.412371       -11.2212
  63   2.0000      -0.407151       -11.0792
  64   2.0000      -0.378459       -10.2984
  65   2.0000      -0.366707        -9.9786
  66   2.0000      -0.361510        -9.8372
  67   2.0000      -0.346993        -9.4422
  68   2.0000      -0.325695        -8.8626
  69   2.0000      -0.322122        -8.7654
  70   2.0000      -0.319338        -8.6896
  71   2.0000      -0.308260        -8.3882
  72   2.0000      -0.292433        -7.9575
  73   2.0000      -0.291360        -7.9283
  74   2.0000      -0.265679        -7.2295
  75   2.0000      -0.264274        -7.1913
  76   2.0000      -0.256874        -6.9899
  77   0.0000      -0.174343        -4.7441
  78   0.0000      -0.102582        -2.7914
  79   0.0000      -0.030083        -0.8186
  80   0.0000      -0.007420        -0.2019
  81   0.0000       0.046500         1.2653

MULLIKEN ATOMIC CHARGES
-----------------------
   0 Pd:    0.497201
   1 O :   -0.452894
   2 C :    0.590302
   3 O :   -0.514142
   4 C :   -0.744665
   5 H :    0.244834
   6 H :    0.251314
   7 H :    0.228726
   8 N :   -0.489256
   9 C :   -0.547087
  10 H :    0.311882
  11 H :    0.219032
  12 H :    0.271368
  13 C :   -0.555365
  14 H :    0.297540
  15 H :    0.235823
  16 H :    0.292076
  17 C :   -0.065349
  18 C :   -0.226681
  19 C :   -0.238345
  20 C :   -0.185234
  21 C :   -0.293124
  22 C :    0.048096
  23 H :    0.240240
  24 H :    0.257840
  25 H :    0.221667
  26 H :    0.245176
  27 H :    0.098848
  28 C :   -0.314864
  29 H :    0.280534
  30 H :    0.256753
  31 O :   -0.507086
  32 C :    0.536174
  33 O :   -0.466217
  34 C :   -0.741398
  35 H :    0.249237
  36 H :    0.229869
  37 H :    0.237177
Sum of atomic charges:   -0.0000000

LOEWDIN ATOMIC CHARGES
----------------------
   0 Pd:   -0.220241
   1 O :   -0.135544
   2 C :    0.135887
   3 O :   -0.311355
   4 C :   -0.379389
   5 H :    0.148999
   6 H :    0.157502
   7 H :    0.136690
   8 N :   -0.038211
   9 C :   -0.242552
  10 H :    0.166795
  11 H :    0.119375
  12 H :    0.150768
  13 C :   -0.236452
  14 H :    0.160766
  15 H :    0.127010
  16 H :    0.161465
  17 C :   -0.063688
  18 C :   -0.117824
  19 C :   -0.122818
  20 C :   -0.110595
  21 C :   -0.122524
  22 C :    0.007841
  23 H :    0.146217
  24 H :    0.155525
  25 H :    0.145252
  26 H :    0.146444
  27 H :    0.103999
  28 C :   -0.100880
  29 H :    0.158953
  30 H :    0.144933
  31 O :   -0.149372
  32 C :    0.108421
  33 O :   -0.282563
  34 C :   -0.381591
  35 H :    0.144887
  36 H :    0.141230
  37 H :    0.146638

  Mayer bond orders larger than 0.100000
B(  0-Pd,  1-O ) :   0.5547 B(  0-Pd,  3-O ) :   0.1691 B(  0-Pd,  8-N ) :   0.4446
B(  0-Pd, 22-C ) :   0.2259 B(  0-Pd, 27-H ) :   0.1115 B(  0-Pd, 31-O ) :   0.6702
B(  1-O ,  2-C ) :   1.4463 B(  2-C ,  3-O ) :   1.6328 B(  2-C ,  4-C ) :   0.9399
B(  3-O , 27-H ) :   0.1024 B(  4-C ,  5-H ) :   0.9163 B(  4-C ,  6-H ) :   0.9097
B(  4-C ,  7-H ) :   0.9146 B(  8-N ,  9-C ) :   0.9086 B(  8-N , 13-C ) :   0.9085
B(  8-N , 28-C ) :   0.8802 B(  9-C , 10-H ) :   0.8753 B(  9-C , 11-H ) :   0.9003
B(  9-C , 12-H ) :   0.9063 B( 13-C , 14-H ) :   0.8877 B( 13-C , 15-H ) :   0.9001
B( 13-C , 16-H ) :   0.8910 B( 17-C , 18-C ) :   1.3743 B( 17-C , 22-C ) :   1.3716
B( 17-C , 28-C ) :   0.9387 B( 18-C , 19-C ) :   1.4592 B( 18-C , 25-H ) :   0.9115
B( 19-C , 20-C ) :   1.4079 B( 19-C , 26-H ) :   0.9070 B( 20-C , 21-C ) :   1.4098
B( 20-C , 23-H ) :   0.9065 B( 21-C , 22-C ) :   1.4280 B( 21-C , 24-H ) :   0.9027
B( 22-C , 27-H ) :   0.5878 B( 28-C , 29-H ) :   0.8969 B( 28-C , 30-H ) :   0.9065
B( 31-O , 32-C ) :   1.2801 B( 32-C , 33-O ) :   1.8842 B( 32-C , 34-C ) :   0.9342
B( 34-C , 35-H ) :   0.9173 B( 34-C , 36-H ) :   0.9138 B( 34-C , 37-H ) :   0.9143

Dispersion correction           -0.025535191
FINAL SINGLE POINT ENERGY      -988.172308347393
Dispersion correction            ... done

DIPOLE MOMENT
-------------
                                X             Y             Z
Electronic contribution:     16.26029       4.03477     -11.70825
Nuclear contribution   :    -18.75173      -4.86852      13.10403
                        -----------------------------------------
Total Dipole Moment    :     -2.49144      -0.83376       1.39577
                        -----------------------------------------
Magnitude (a.u.)       :      2.97500
Magnitude (Debye)      :      7.56184

Rotational constants in cm-1:     0.013336     0.008357     0.006354
Rotational constants in MHz :   399.805088   250.533727   190.490144

                             ****ORCA TERMINATED NORMALLY****
TOTAL RUN TIME: 0 days 0 hours 21 minutes 42 seconds 452 msec
