                         Program Version 5.0.3 -  RELEASE  -
|  1> ! EnGrad PBEh-3c
|  2> %output
|  3> xyzfile=True
|  4> end
|  5> %scf
|  6> maxiter 250
|  7> end
|  8> %output
|  9> Print[P_Hirshfeld] = 1
| 10> end
| 11> % maxcore
| 12> 4000
| 13> *xyz 0 1
| 14> Pd   0.48461489   0.32877386  -0.14482434
| 15> O    1.90827216   1.26455917   0.61947773
| 16> C    1.69899306   2.56005083   0.35280612
| 17> O    0.53894269   2.95307501  -0.22074022
| 18> C    2.76382489   3.59664230   0.63345137
| 19> H    2.29986852   4.49696130   1.05081301
| 20> H    3.22753095   3.92378198  -0.30622643
| 21> H    3.57103174   3.28086818   1.30784632
| 22> N   -1.42822706  -0.81365680  -1.05894510
| 23> C   -1.19145399  -2.00329930  -1.90567058
| 24> H   -0.56163231  -1.70314648  -2.73448908
| 25> H   -2.20656377  -2.32358734  -2.18152266
| 26> H   -0.69284240  -2.77737805  -1.30921197
| 27> C   -2.05296636   0.27533321  -1.84640907
| 28> H   -2.15118946   1.20392611  -1.27498311
| 29> H   -3.03650332  -0.09483222  -2.15932841
| 30> H   -1.41493234   0.43684493  -2.72164775
| 31> C   -1.73188442  -1.02219116   1.51062344
| 32> C   -1.61733105  -2.16799937   2.34546489
| 33> C   -1.21532109  -2.01954455   3.65411056
| 34> C   -1.10008537  -0.75903343   4.19576043
| 35> C   -1.15233255   0.39220335   3.39248347
| 36> C   -1.33208104   0.16251037   2.06577077
| 37> H   -0.81722205  -0.61809328   5.22440135
| 38> H   -1.20309253   1.37000180   3.81913032
| 39> H   -1.82434280  -3.16934139   1.94466777
| 40> H   -1.26817010  -2.87706940   4.32403364
| 41> H   -1.74423513   3.37472905   1.25861187
| 42> C   -2.26685874  -1.17304733   0.12753257
| 43> H   -3.11442049  -0.49696263   0.13939397
| 44> H   -2.64894035  -2.18493689  -0.05564932
| 45> O    1.83171094   0.27371185  -1.71954386
| 46> C    2.20761995  -0.67628624  -2.54205981
| 47> O    1.67721787  -1.72362348  -2.83653903
| 48> C    3.64063380  -0.35512694  -3.09691346
| 49> H    3.96344896  -1.32121235  -3.50185426
| 50> H    4.38446666   0.04396412  -2.40852811
| 51> H    3.57281463   0.33525550  -3.94557631
| 52> *
| 53>
| 54>                          ****END OF INPUT****

CARTESIAN COORDINATES (ANGSTROEM)
---------------------------------
  Pd     0.484615    0.328774   -0.144824
  O      1.908272    1.264559    0.619478
  C      1.698993    2.560051    0.352806
  O      0.538943    2.953075   -0.220740
  C      2.763825    3.596642    0.633451
  H      2.299869    4.496961    1.050813
  H      3.227531    3.923782   -0.306226
  H      3.571032    3.280868    1.307846
  N     -1.428227   -0.813657   -1.058945
  C     -1.191454   -2.003299   -1.905671
  H     -0.561632   -1.703146   -2.734489
  H     -2.206564   -2.323587   -2.181523
  H     -0.692842   -2.777378   -1.309212
  C     -2.052966    0.275333   -1.846409
  H     -2.151189    1.203926   -1.274983
  H     -3.036503   -0.094832   -2.159328
  H     -1.414932    0.436845   -2.721648
  C     -1.731884   -1.022191    1.510623
  C     -1.617331   -2.167999    2.345465
  C     -1.215321   -2.019545    3.654111
  C     -1.100085   -0.759033    4.195760
  C     -1.152333    0.392203    3.392483
  C     -1.332081    0.162510    2.065771
  H     -0.817222   -0.618093    5.224401
  H     -1.203093    1.370002    3.819130
  H     -1.824343   -3.169341    1.944668
  H     -1.268170   -2.877069    4.324034
  H     -1.744235    3.374729    1.258612
  C     -2.266859   -1.173047    0.127533
  H     -3.114420   -0.496963    0.139394
  H     -2.648940   -2.184937   -0.055649
  O      1.831711    0.273712   -1.719544
  C      2.207620   -0.676286   -2.542060
  O      1.677218   -1.723623   -2.836539
  C      3.640634   -0.355127   -3.096913
  H      3.963449   -1.321212   -3.501854
  H      4.384467    0.043964   -2.408528
  H      3.572815    0.335255   -3.945576

 Total Charge           Charge          ....    0
 Multiplicity           Mult            ....    1
 Number of Electrons    NEL             ....  154
 Basis Dimension        Dim             ....  339

ORBITAL ENERGIES
----------------

  NO   OCC          E(Eh)            E(eV)
   0   2.0000     -19.521024      -531.1941
   1   2.0000     -19.464897      -529.6668
   2   2.0000     -19.459750      -529.5267
   3   2.0000     -19.433207      -528.8045
   4   2.0000     -14.703245      -400.0956
   5   2.0000     -10.574791      -287.7547
   6   2.0000     -10.531151      -286.5672
   7   2.0000     -10.522021      -286.3187
   8   2.0000     -10.505837      -285.8784
   9   2.0000     -10.505376      -285.8658
  10   2.0000     -10.490924      -285.4726
  11   2.0000     -10.487758      -285.3864
  12   2.0000     -10.483812      -285.2790
  13   2.0000     -10.480221      -285.1813
  14   2.0000     -10.478419      -285.1323
  15   2.0000     -10.468146      -284.8527
  16   2.0000     -10.442870      -284.1649
  17   2.0000     -10.406411      -283.1728
  18   2.0000      -3.665389       -99.7403
  19   2.0000      -2.320898       -63.1548
  20   2.0000      -2.301346       -62.6228
  21   2.0000      -2.277258       -61.9673
  22   2.0000      -1.149084       -31.2682
  23   2.0000      -1.134511       -30.8716
  24   2.0000      -1.059695       -28.8358
  25   2.0000      -1.047712       -28.5097
  26   2.0000      -1.033163       -28.1138
  27   2.0000      -1.001745       -27.2589
  28   2.0000      -0.901342       -24.5268
  29   2.0000      -0.873116       -23.7587
  30   2.0000      -0.820477       -22.3263
  31   2.0000      -0.811656       -22.0863
  32   2.0000      -0.808079       -21.9889
  33   2.0000      -0.773654       -21.0522
  34   2.0000      -0.719146       -19.5690
  35   2.0000      -0.711669       -19.3655
  36   2.0000      -0.676170       -18.3995
  37   2.0000      -0.624472       -16.9928
  38   2.0000      -0.610150       -16.6030
  39   2.0000      -0.581299       -15.8180
  40   2.0000      -0.572374       -15.5751
  41   2.0000      -0.564650       -15.3649
  42   2.0000      -0.559617       -15.2279
  43   2.0000      -0.540152       -14.6983
  44   2.0000      -0.528786       -14.3890
  45   2.0000      -0.527534       -14.3549
  46   2.0000      -0.512910       -13.9570
  47   2.0000      -0.509555       -13.8657
  48   2.0000      -0.497271       -13.5314
  49   2.0000      -0.492468       -13.4007
  50   2.0000      -0.482089       -13.1183
  51   2.0000      -0.478879       -13.0310
  52   2.0000      -0.477626       -12.9969
  53   2.0000      -0.473913       -12.8958
  54   2.0000      -0.466012       -12.6808
  55   2.0000      -0.447796       -12.1852
  56   2.0000      -0.446363       -12.1462
  57   2.0000      -0.443577       -12.0703
  58   2.0000      -0.442409       -12.0386
  59   2.0000      -0.438399       -11.9294
  60   2.0000      -0.430973       -11.7274
  61   2.0000      -0.417730       -11.3670
  62   2.0000      -0.403334       -10.9753
  63   2.0000      -0.399760       -10.8780
  64   2.0000      -0.367823       -10.0090
  65   2.0000      -0.355368        -9.6701
  66   2.0000      -0.350691        -9.5428
  67   2.0000      -0.344145        -9.3647
  68   2.0000      -0.335633        -9.1331
  69   2.0000      -0.328191        -8.9305
  70   2.0000      -0.321547        -8.7497
  71   2.0000      -0.310712        -8.4549
  72   2.0000      -0.308231        -8.3874
  73   2.0000      -0.296368        -8.0646
  74   2.0000      -0.284664        -7.7461
  75   2.0000      -0.270644        -7.3646
  76   2.0000      -0.256719        -6.9857
  77   0.0000      -0.162951        -4.4341
  78   0.0000      -0.080333        -2.1860
  79   0.0000      -0.024175        -0.6578
  80   0.0000      -0.012364        -0.3364
  81   0.0000       0.036579         0.9954

MULLIKEN ATOMIC CHARGES
-----------------------
   0 Pd:    0.479491
   1 O :   -0.509462
   2 C :    0.636786
   3 O :   -0.503971
   4 C :   -0.748498
   5 H :    0.256022
   6 H :    0.267795
   7 H :    0.244198
   8 N :   -0.456273
   9 C :   -0.509156
  10 H :    0.301233
  11 H :    0.194552
  12 H :    0.251476
  13 C :   -0.536190
  14 H :    0.285341
  15 H :    0.218098
  16 H :    0.273026
  17 C :    0.053043
  18 C :   -0.250543
  19 C :   -0.191543
  20 C :   -0.233879
  21 C :   -0.271095
  22 C :   -0.003490
  23 H :    0.243987
  24 H :    0.271529
  25 H :    0.240188
  26 H :    0.234623
  27 H :    0.055855
  28 C :   -0.316530
  29 H :    0.260925
  30 H :    0.242475
  31 O :   -0.524982
  32 C :    0.546448
  33 O :   -0.454430
  34 C :   -0.741619
  35 H :    0.227954
  36 H :    0.238947
  37 H :    0.227668
Sum of atomic charges:    0.0000000

LOEWDIN ATOMIC CHARGES
----------------------
   0 Pd:   -0.264549
   1 O :   -0.126352
   2 C :    0.257368
   3 O :   -0.307414
   4 C :   -0.375855
   5 H :    0.157159
   6 H :    0.166499
   7 H :    0.145446
   8 N :   -0.109550
   9 C :   -0.237270
  10 H :    0.167409
  11 H :    0.108335
  12 H :    0.144890
  13 C :   -0.236861
  14 H :    0.159901
  15 H :    0.116572
  16 H :    0.156099
  17 C :   -0.053059
  18 C :   -0.107502
  19 C :   -0.122632
  20 C :   -0.115539
  21 C :   -0.118312
  22 C :    0.042783
  23 H :    0.147847
  24 H :    0.164844
  25 H :    0.148822
  26 H :    0.149115
  27 H :    0.063273
  28 C :   -0.109502
  29 H :    0.155179
  30 H :    0.140683
  31 O :   -0.195034
  32 C :    0.133922
  33 O :   -0.271090
  34 C :   -0.395086
  35 H :    0.138011
  36 H :    0.140495
  37 H :    0.140960

  Mayer bond orders larger than 0.100000
B(  0-Pd,  1-O ) :   0.7110 B(  0-Pd,  3-O ) :   0.1784 B(  0-Pd,  8-N ) :   0.3563
B(  0-Pd, 22-C ) :   0.2272 B(  0-Pd, 27-H ) :   0.1602 B(  0-Pd, 31-O ) :   0.6359
B(  1-O ,  2-C ) :   1.2315 B(  2-C ,  3-O ) :   1.6780 B(  2-C ,  4-C ) :   0.9528
B(  4-C ,  5-H ) :   0.9074 B(  4-C ,  6-H ) :   0.8994 B(  4-C ,  7-H ) :   0.9067
B(  8-N ,  9-C ) :   0.9184 B(  8-N , 13-C ) :   0.9233 B(  8-N , 28-C ) :   0.8999
B(  9-C , 10-H ) :   0.8724 B(  9-C , 11-H ) :   0.9049 B(  9-C , 12-H ) :   0.9142
B( 13-C , 14-H ) :   0.8902 B( 13-C , 15-H ) :   0.9058 B( 13-C , 16-H ) :   0.9002
B( 17-C , 18-C ) :   1.3732 B( 17-C , 22-C ) :   1.3859 B( 17-C , 28-C ) :   0.9461
B( 18-C , 19-C ) :   1.4348 B( 18-C , 21-C ) :   0.1009 B( 18-C , 25-H ) :   0.9041
B( 19-C , 20-C ) :   1.4134 B( 19-C , 26-H ) :   0.9136 B( 20-C , 21-C ) :   1.3925
B( 20-C , 23-H ) :   0.9052 B( 21-C , 22-C ) :   1.4417 B( 21-C , 24-H ) :   0.8984
B( 22-C , 27-H ) :   0.5988 B( 28-C , 29-H ) :   0.8979 B( 28-C , 30-H ) :   0.9114
B( 31-O , 32-C ) :   1.2894 B( 31-O , 33-O ) :   0.1069 B( 32-C , 33-O ) :   1.9157
B( 32-C , 34-C ) :   0.9004 B( 34-C , 35-H ) :   0.9202 B( 34-C , 36-H ) :   0.9153
B( 34-C , 37-H ) :   0.9193

Dispersion correction           -0.025473545
FINAL SINGLE POINT ENERGY      -988.195404101369
Dispersion correction            ... done

DIPOLE MOMENT
-------------
                                X             Y             Z
Electronic contribution:     20.34515      16.32003      -5.14492
Nuclear contribution   :    -22.21090     -16.84849       7.10825
                        -----------------------------------------
Total Dipole Moment    :     -1.86575      -0.52846       1.96334
                        -----------------------------------------
Magnitude (a.u.)       :      2.75952
Magnitude (Debye)      :      7.01415

Rotational constants in cm-1:     0.013111     0.008393     0.006366
Rotational constants in MHz :   393.044800   251.610993   190.834673

                             ****ORCA TERMINATED NORMALLY****
TOTAL RUN TIME: 0 days 0 hours 18 minutes 25 seconds 933 msec
