                         Program Version 5.0.3 -  RELEASE  -
|  1> ! EnGrad PBEh-3c
|  2> %output
|  3> xyzfile=True
|  4> end
|  5> %scf
|  6> maxiter 250
|  7> end
|  8> %output
|  9> Print[P_Hirshfeld] = 1
| 10> end
| 11> % maxcore
| 12> 4000
| 13> *xyz 0 1
| 14> Pd   0.45380889   0.42503836  -0.12338996
| 15> O    1.84640942   1.35831833   0.62697395
| 16> C    1.66969876   2.49585280   0.35781565
| 17> O    0.46746518   2.95764910  -0.23182364
| 18> C    2.72853080   3.54801545   0.63111500
| 19> H    2.26087414   4.44517877   1.03887922
| 20> H    3.19716476   3.89177331  -0.30385637
| 21> H    3.55627402   3.27298911   1.30452487
| 22> N   -1.41159359  -0.78265133  -1.04778723
| 23> C   -1.19764399  -1.97425100  -1.96095344
| 24> H   -0.51898917  -1.62110794  -2.77747893
| 25> H   -2.24631531  -2.31105524  -2.18286925
| 26> H   -0.67366806  -2.79297857  -1.41059107
| 27> C   -2.08691269   0.30728095  -1.81898033
| 28> H   -2.19157033   1.23246572  -1.19851572
| 29> H   -3.09053370  -0.03595336  -2.14727999
| 30> H   -1.43178756   0.51977788  -2.67986933
| 31> C   -1.80677309  -0.98587272   1.54134303
| 32> C   -1.65046051  -2.13869831   2.32847460
| 33> C   -1.17798458  -2.00688326   3.64190025
| 34> C   -1.15312968  -0.71591241   4.21554015
| 35> C   -1.14426200   0.43379714   3.43398144
| 36> C   -1.25654853   0.20724450   2.07175710
| 37> H   -0.86184276  -0.58902914   5.23338665
| 38> H   -1.24518843   1.46958306   3.80608916
| 39> H   -1.58529214  -3.18990497   1.81743030
| 40> H   -1.05015817  -2.89944686   4.25841277
| 41> H   -1.76522761   3.12150724   1.30955669
| 42> C   -2.23938117  -1.18282983   0.07763564
| 43> H   -3.08922284  -0.52472215   0.08805219
| 44> H   -2.51724122  -2.24321275  -0.11103891
| 45> O    1.95009213   0.25455647  -1.68109159
| 46> C    2.15634108  -0.74012959  -2.54742681
| 47> O    1.54796700  -1.69277740  -2.94922860
| 48> C    3.62707656  -0.41778245  -3.03241285
| 49> H    3.86438302  -1.42551775  -3.36655264
| 50> H    4.39336264   0.01778824  -2.32962980
| 51> H    3.67448952   0.29182212  -3.88617177
| 52> *
| 53>
| 54>                          ****END OF INPUT****

CARTESIAN COORDINATES (ANGSTROEM)
---------------------------------
  Pd     0.453809    0.425038   -0.123390
  O      1.846409    1.358318    0.626974
  C      1.669699    2.495853    0.357816
  O      0.467465    2.957649   -0.231824
  C      2.728531    3.548015    0.631115
  H      2.260874    4.445179    1.038879
  H      3.197165    3.891773   -0.303856
  H      3.556274    3.272989    1.304525
  N     -1.411594   -0.782651   -1.047787
  C     -1.197644   -1.974251   -1.960953
  H     -0.518989   -1.621108   -2.777479
  H     -2.246315   -2.311055   -2.182869
  H     -0.673668   -2.792979   -1.410591
  C     -2.086913    0.307281   -1.818980
  H     -2.191570    1.232466   -1.198516
  H     -3.090534   -0.035953   -2.147280
  H     -1.431788    0.519778   -2.679869
  C     -1.806773   -0.985873    1.541343
  C     -1.650461   -2.138698    2.328475
  C     -1.177985   -2.006883    3.641900
  C     -1.153130   -0.715912    4.215540
  C     -1.144262    0.433797    3.433981
  C     -1.256549    0.207244    2.071757
  H     -0.861843   -0.589029    5.233387
  H     -1.245188    1.469583    3.806089
  H     -1.585292   -3.189905    1.817430
  H     -1.050158   -2.899447    4.258413
  H     -1.765228    3.121507    1.309557
  C     -2.239381   -1.182830    0.077636
  H     -3.089223   -0.524722    0.088052
  H     -2.517241   -2.243213   -0.111039
  O      1.950092    0.254556   -1.681092
  C      2.156341   -0.740130   -2.547427
  O      1.547967   -1.692777   -2.949229
  C      3.627077   -0.417782   -3.032413
  H      3.864383   -1.425518   -3.366553
  H      4.393363    0.017788   -2.329630
  H      3.674490    0.291822   -3.886172

 Total Charge           Charge          ....    0
 Multiplicity           Mult            ....    1
 Number of Electrons    NEL             ....  154
 Basis Dimension        Dim             ....  339

ORBITAL ENERGIES
----------------

  NO   OCC          E(Eh)            E(eV)
   0   2.0000     -19.544909      -531.8440
   1   2.0000     -19.472327      -529.8689
   2   2.0000     -19.454869      -529.3939
   3   2.0000     -19.445272      -529.1327
   4   2.0000     -14.705880      -400.1673
   5   2.0000     -10.569236      -287.6035
   6   2.0000     -10.543332      -286.8987
   7   2.0000     -10.528105      -286.4843
   8   2.0000     -10.509258      -285.9714
   9   2.0000     -10.503886      -285.8253
  10   2.0000     -10.496297      -285.6188
  11   2.0000     -10.492362      -285.5117
  12   2.0000     -10.487816      -285.3880
  13   2.0000     -10.483489      -285.2702
  14   2.0000     -10.482811      -285.2518
  15   2.0000     -10.479020      -285.1486
  16   2.0000     -10.437732      -284.0251
  17   2.0000     -10.411337      -283.3069
  18   2.0000      -3.668726       -99.8311
  19   2.0000      -2.327511       -63.3348
  20   2.0000      -2.301482       -62.6265
  21   2.0000      -2.281249       -62.0759
  22   2.0000      -1.240352       -33.7517
  23   2.0000      -1.146463       -31.1969
  24   2.0000      -1.061166       -28.8758
  25   2.0000      -1.056279       -28.7428
  26   2.0000      -1.008260       -27.4361
  27   2.0000      -0.991764       -26.9873
  28   2.0000      -0.891786       -24.2667
  29   2.0000      -0.862135       -23.4599
  30   2.0000      -0.817313       -22.2402
  31   2.0000      -0.806650       -21.9501
  32   2.0000      -0.801067       -21.7981
  33   2.0000      -0.770029       -20.9536
  34   2.0000      -0.713858       -19.4251
  35   2.0000      -0.700018       -19.0485
  36   2.0000      -0.675337       -18.3768
  37   2.0000      -0.653612       -17.7857
  38   2.0000      -0.602362       -16.3911
  39   2.0000      -0.583861       -15.8877
  40   2.0000      -0.567615       -15.4456
  41   2.0000      -0.562228       -15.2990
  42   2.0000      -0.557724       -15.1764
  43   2.0000      -0.550415       -14.9775
  44   2.0000      -0.539143       -14.6708
  45   2.0000      -0.529080       -14.3970
  46   2.0000      -0.527689       -14.3591
  47   2.0000      -0.526021       -14.3138
  48   2.0000      -0.504202       -13.7200
  49   2.0000      -0.490689       -13.3523
  50   2.0000      -0.488860       -13.3026
  51   2.0000      -0.482586       -13.1318
  52   2.0000      -0.475656       -12.9433
  53   2.0000      -0.471266       -12.8238
  54   2.0000      -0.456904       -12.4330
  55   2.0000      -0.448687       -12.2094
  56   2.0000      -0.444970       -12.1083
  57   2.0000      -0.442567       -12.0429
  58   2.0000      -0.436348       -11.8736
  59   2.0000      -0.434198       -11.8151
  60   2.0000      -0.421869       -11.4796
  61   2.0000      -0.420520       -11.4429
  62   2.0000      -0.395581       -10.7643
  63   2.0000      -0.385439       -10.4883
  64   2.0000      -0.368442       -10.0258
  65   2.0000      -0.358349        -9.7512
  66   2.0000      -0.355711        -9.6794
  67   2.0000      -0.352668        -9.5966
  68   2.0000      -0.334676        -9.1070
  69   2.0000      -0.329244        -8.9592
  70   2.0000      -0.319962        -8.7066
  71   2.0000      -0.310273        -8.4430
  72   2.0000      -0.307855        -8.3772
  73   2.0000      -0.300152        -8.1676
  74   2.0000      -0.295200        -8.0328
  75   2.0000      -0.264837        -7.2066
  76   2.0000      -0.255924        -6.9640
  77   0.0000      -0.155159        -4.2221
  78   0.0000      -0.084763        -2.3065
  79   0.0000      -0.025638        -0.6977
  80   0.0000      -0.019877        -0.5409
  81   0.0000       0.047090         1.2814

MULLIKEN ATOMIC CHARGES
-----------------------
   0 Pd:    0.466247
   1 O :   -0.398881
   2 C :    0.601751
   3 O :   -0.555518
   4 C :   -0.761016
   5 H :    0.258135
   6 H :    0.265215
   7 H :    0.235529
   8 N :   -0.450656
   9 C :   -0.516580
  10 H :    0.302992
  11 H :    0.198563
  12 H :    0.246593
  13 C :   -0.541478
  14 H :    0.282806
  15 H :    0.221127
  16 H :    0.272221
  17 C :    0.042895
  18 C :   -0.242981
  19 C :   -0.204883
  20 C :   -0.223922
  21 C :   -0.276579
  22 C :   -0.024091
  23 H :    0.239831
  24 H :    0.270938
  25 H :    0.230710
  26 H :    0.241292
  27 H :    0.071477
  28 C :   -0.294379
  29 H :    0.259476
  30 H :    0.235802
  31 O :   -0.520205
  32 C :    0.558320
  33 O :   -0.435308
  34 C :   -0.736834
  35 H :    0.219528
  36 H :    0.232958
  37 H :    0.228904
Sum of atomic charges:    0.0000000

LOEWDIN ATOMIC CHARGES
----------------------
   0 Pd:   -0.282246
   1 O :    0.003066
   2 C :    0.205012
   3 O :   -0.364086
   4 C :   -0.377507
   5 H :    0.156799
   6 H :    0.164544
   7 H :    0.140185
   8 N :   -0.109603
   9 C :   -0.241301
  10 H :    0.174404
  11 H :    0.112647
  12 H :    0.141477
  13 C :   -0.237843
  14 H :    0.161266
  15 H :    0.118844
  16 H :    0.155884
  17 C :   -0.043789
  18 C :   -0.119395
  19 C :   -0.114177
  20 C :   -0.127050
  21 C :   -0.119554
  22 C :    0.030754
  23 H :    0.146379
  24 H :    0.169091
  25 H :    0.151003
  26 H :    0.148598
  27 H :    0.083451
  28 C :   -0.119543
  29 H :    0.154631
  30 H :    0.140843
  31 O :   -0.217769
  32 C :    0.145722
  33 O :   -0.247740
  34 C :   -0.400477
  35 H :    0.136742
  36 H :    0.139882
  37 H :    0.140853

  Mayer bond orders larger than 0.100000
B(  0-Pd,  1-O ) :   0.6251 B(  0-Pd,  3-O ) :   0.2440 B(  0-Pd,  8-N ) :   0.3623
B(  0-Pd, 22-C ) :   0.2612 B(  0-Pd, 27-H ) :   0.1661 B(  0-Pd, 31-O ) :   0.6313
B(  1-O ,  2-C ) :   1.4632 B(  2-C ,  3-O ) :   1.5169 B(  2-C ,  4-C ) :   0.9433
B(  4-C ,  5-H ) :   0.9080 B(  4-C ,  6-H ) :   0.9022 B(  4-C ,  7-H ) :   0.9078
B(  8-N ,  9-C ) :   0.9056 B(  8-N , 13-C ) :   0.9221 B(  8-N , 28-C ) :   0.9035
B(  9-C , 10-H ) :   0.8634 B(  9-C , 11-H ) :   0.9024 B(  9-C , 12-H ) :   0.9132
B( 13-C , 14-H ) :   0.8883 B( 13-C , 15-H ) :   0.9024 B( 13-C , 16-H ) :   0.9010
B( 17-C , 18-C ) :   1.3732 B( 17-C , 22-C ) :   1.3531 B( 17-C , 28-C ) :   0.9502
B( 18-C , 19-C ) :   1.4085 B( 18-C , 25-H ) :   0.9101 B( 19-C , 20-C ) :   1.4011
B( 19-C , 26-H ) :   0.9118 B( 20-C , 21-C ) :   1.4033 B( 20-C , 23-H ) :   0.9091
B( 21-C , 22-C ) :   1.4021 B( 21-C , 24-H ) :   0.9002 B( 22-C , 27-H ) :   0.5674
B( 28-C , 29-H ) :   0.8951 B( 28-C , 30-H ) :   0.9117 B( 31-O , 32-C ) :   1.2830
B( 31-O , 33-O ) :   0.1129 B( 32-C , 33-O ) :   1.9324 B( 32-C , 34-C ) :   0.8840
B( 34-C , 35-H ) :   0.9162 B( 34-C , 36-H ) :   0.9188 B( 34-C , 37-H ) :   0.9187

Dispersion correction           -0.025546061
FINAL SINGLE POINT ENERGY      -988.134314363143
Dispersion correction            ... done

DIPOLE MOMENT
-------------
                                X             Y             Z
Electronic contribution:     19.25334      21.05346      -4.00821
Nuclear contribution   :    -20.81410     -21.82101       5.92186
                        -----------------------------------------
Total Dipole Moment    :     -1.56076      -0.76755       1.91364
                        -----------------------------------------
Magnitude (a.u.)       :      2.58595
Magnitude (Debye)      :      6.57297

Rotational constants in cm-1:     0.013032     0.008459     0.006394
Rotational constants in MHz :   390.679594   253.580628   191.673451

                             ****ORCA TERMINATED NORMALLY****
TOTAL RUN TIME: 0 days 0 hours 14 minutes 0 seconds 393 msec
