                         Program Version 5.0.3 -  RELEASE  -
|  1> ! EnGrad PBEh-3c
|  2> %output
|  3> xyzfile=True
|  4> end
|  5> %scf
|  6> maxiter 250
|  7> end
|  8> %output
|  9> Print[P_Hirshfeld] = 1
| 10> end
| 11> % maxcore
| 12> 4000
| 13> *xyz 0 1
| 14> Pd   0.47152376   0.36968185  -0.13571571
| 15> O    1.88198334   1.30440250   0.62266328
| 16> C    1.68654433   2.53276962   0.35493494
| 17> O    0.50856803   2.95501879  -0.22545016
| 18> C    2.74882652   3.57597812   0.63245852
| 19> H    2.28329770   4.47495610   1.04574170
| 20> H    3.21462671   3.91017976  -0.30521926
| 21> H    3.56476039   3.27751994   1.30643486
| 22> N   -1.42115860  -0.80048090  -1.05420352
| 23> C   -1.19408446  -1.99095511  -1.92916325
| 24> H   -0.54351094  -1.66828387  -2.75275779
| 25> H   -2.22345635  -2.31826177  -2.18209490
| 26> H   -0.68469419  -2.78400755  -1.35229343
| 27> C   -2.06739199   0.28890953  -1.83475311
| 28> H   -2.16834947   1.21605413  -1.24248798
| 29> H   -3.05946375  -0.06981141  -2.15420839
| 30> H   -1.42209503   0.47208762  -2.70389385
| 31> C   -1.76370866  -1.00675750   1.52367786
| 32> C   -1.63140955  -2.15554777   2.33824480
| 33> C   -1.19945479  -2.01416408   3.64892174
| 34> C   -1.12262676  -0.74070898   4.20416590
| 35> C   -1.14890294   0.40987880   3.41011820
| 36> C   -1.29998319   0.18152032   2.06831468
| 37> H   -0.83618380  -0.60574236   5.22821969
| 38> H   -1.22098135   1.41231926   3.81358843
| 39> H   -1.72275725  -3.17807996   1.89059769
| 40> H   -1.17552505  -2.88657879   4.29614778
| 41> H   -1.75315597   3.26712141   1.28026108
| 42> C   -2.25518204  -1.17720444   0.10632867
| 43> H   -3.10371264  -0.50875915   0.11757607
| 44> H   -2.59297427  -2.20970145  -0.07918735
| 45> O    1.88201751   0.26557169  -1.70320341
| 46> C    2.18582878  -0.70341673  -2.54434054
| 47> O    1.62229219  -1.71051531  -2.88442692
| 48> C    3.63487260  -0.38175266  -3.06950367
| 49> H    3.92135049  -1.36553735  -3.44435729
| 50> H    4.38824704   0.03284057  -2.37499995
| 51> H    3.61602179   0.31679831  -3.92033211
| 52> *
| 53>
| 54>                          ****END OF INPUT****

CARTESIAN COORDINATES (ANGSTROEM)
---------------------------------
  Pd     0.471524    0.369682   -0.135716
  O      1.881983    1.304402    0.622663
  C      1.686544    2.532770    0.354935
  O      0.508568    2.955019   -0.225450
  C      2.748827    3.575978    0.632459
  H      2.283298    4.474956    1.045742
  H      3.214627    3.910180   -0.305219
  H      3.564760    3.277520    1.306435
  N     -1.421159   -0.800481   -1.054204
  C     -1.194084   -1.990955   -1.929163
  H     -0.543511   -1.668284   -2.752758
  H     -2.223456   -2.318262   -2.182095
  H     -0.684694   -2.784008   -1.352293
  C     -2.067392    0.288910   -1.834753
  H     -2.168349    1.216054   -1.242488
  H     -3.059464   -0.069811   -2.154208
  H     -1.422095    0.472088   -2.703894
  C     -1.763709   -1.006757    1.523678
  C     -1.631410   -2.155548    2.338245
  C     -1.199455   -2.014164    3.648922
  C     -1.122627   -0.740709    4.204166
  C     -1.148903    0.409879    3.410118
  C     -1.299983    0.181520    2.068315
  H     -0.836184   -0.605742    5.228220
  H     -1.220981    1.412319    3.813588
  H     -1.722757   -3.178080    1.890598
  H     -1.175525   -2.886579    4.296148
  H     -1.753156    3.267121    1.280261
  C     -2.255182   -1.177204    0.106329
  H     -3.103713   -0.508759    0.117576
  H     -2.592974   -2.209701   -0.079187
  O      1.882018    0.265572   -1.703203
  C      2.185829   -0.703417   -2.544341
  O      1.622292   -1.710515   -2.884427
  C      3.634873   -0.381753   -3.069504
  H      3.921350   -1.365537   -3.444357
  H      4.388247    0.032841   -2.375000
  H      3.616022    0.316798   -3.920332

 Total Charge           Charge          ....    0
 Multiplicity           Mult            ....    1
 Number of Electrons    NEL             ....  154
 Basis Dimension        Dim             ....  339

ORBITAL ENERGIES
----------------

  NO   OCC          E(Eh)            E(eV)
   0   2.0000     -19.530867      -531.4619
   1   2.0000     -19.467629      -529.7411
   2   2.0000     -19.453489      -529.3563
   3   2.0000     -19.441761      -529.0372
   4   2.0000     -14.704652      -400.1339
   5   2.0000     -10.572602      -287.6951
   6   2.0000     -10.535240      -286.6785
   7   2.0000     -10.524489      -286.3859
   8   2.0000     -10.506727      -285.9026
   9   2.0000     -10.505020      -285.8561
  10   2.0000     -10.492283      -285.5095
  11   2.0000     -10.489452      -285.4325
  12   2.0000     -10.483223      -285.2630
  13   2.0000     -10.482521      -285.2439
  14   2.0000     -10.480690      -285.1941
  15   2.0000     -10.472846      -284.9806
  16   2.0000     -10.440595      -284.1030
  17   2.0000     -10.407518      -283.2030
  18   2.0000      -3.667175       -99.7889
  19   2.0000      -2.324038       -63.2403
  20   2.0000      -2.301744       -62.6336
  21   2.0000      -2.279272       -62.0222
  22   2.0000      -1.183108       -32.1940
  23   2.0000      -1.140099       -31.0237
  24   2.0000      -1.060386       -28.8546
  25   2.0000      -1.052732       -28.6463
  26   2.0000      -1.023711       -27.8566
  27   2.0000      -0.997563       -27.1451
  28   2.0000      -0.897177       -24.4134
  29   2.0000      -0.868943       -23.6452
  30   2.0000      -0.818661       -22.2769
  31   2.0000      -0.809778       -22.0352
  32   2.0000      -0.805353       -21.9148
  33   2.0000      -0.771863       -21.0034
  34   2.0000      -0.715325       -19.4650
  35   2.0000      -0.709404       -19.3039
  36   2.0000      -0.675978       -18.3943
  37   2.0000      -0.635534       -17.2938
  38   2.0000      -0.607241       -16.5239
  39   2.0000      -0.581356       -15.8195
  40   2.0000      -0.569981       -15.5100
  41   2.0000      -0.564405       -15.3582
  42   2.0000      -0.556420       -15.1410
  43   2.0000      -0.536154       -14.5895
  44   2.0000      -0.534561       -14.5461
  45   2.0000      -0.528377       -14.3779
  46   2.0000      -0.522943       -14.2300
  47   2.0000      -0.517356       -14.0780
  48   2.0000      -0.497286       -13.5318
  49   2.0000      -0.493331       -13.4242
  50   2.0000      -0.483357       -13.1528
  51   2.0000      -0.482520       -13.1300
  52   2.0000      -0.476045       -12.9538
  53   2.0000      -0.473357       -12.8807
  54   2.0000      -0.463445       -12.6110
  55   2.0000      -0.447761       -12.1842
  56   2.0000      -0.445468       -12.1218
  57   2.0000      -0.444769       -12.1028
  58   2.0000      -0.440186       -11.9781
  59   2.0000      -0.437821       -11.9137
  60   2.0000      -0.428028       -11.6472
  61   2.0000      -0.418932       -11.3997
  62   2.0000      -0.400071       -10.8865
  63   2.0000      -0.394850       -10.7444
  64   2.0000      -0.367595       -10.0028
  65   2.0000      -0.356585        -9.7032
  66   2.0000      -0.352818        -9.6007
  67   2.0000      -0.348113        -9.4726
  68   2.0000      -0.334360        -9.0984
  69   2.0000      -0.330394        -8.9905
  70   2.0000      -0.320814        -8.7298
  71   2.0000      -0.308839        -8.4039
  72   2.0000      -0.307469        -8.3667
  73   2.0000      -0.300609        -8.1800
  74   2.0000      -0.291226        -7.9247
  75   2.0000      -0.267603        -7.2819
  76   2.0000      -0.258238        -7.0270
  77   0.0000      -0.160088        -4.3562
  78   0.0000      -0.082392        -2.2420
  79   0.0000      -0.023016        -0.6263
  80   0.0000      -0.015723        -0.4278
  81   0.0000       0.042092         1.1454

MULLIKEN ATOMIC CHARGES
-----------------------
   0 Pd:    0.475165
   1 O :   -0.471215
   2 C :    0.629115
   3 O :   -0.527752
   4 C :   -0.752954
   5 H :    0.256762
   6 H :    0.266693
   7 H :    0.240606
   8 N :   -0.454306
   9 C :   -0.512171
  10 H :    0.301796
  11 H :    0.196209
  12 H :    0.249697
  13 C :   -0.538396
  14 H :    0.284375
  15 H :    0.219439
  16 H :    0.272738
  17 C :    0.051524
  18 C :   -0.249077
  19 C :   -0.196910
  20 C :   -0.229427
  21 C :   -0.275881
  22 C :   -0.012755
  23 H :    0.242030
  24 H :    0.271409
  25 H :    0.238189
  26 H :    0.237023
  27 H :    0.063932
  28 C :   -0.306798
  29 H :    0.260287
  30 H :    0.239748
  31 O :   -0.522081
  32 C :    0.550870
  33 O :   -0.445232
  34 C :   -0.741535
  35 H :    0.224589
  36 H :    0.236037
  37 H :    0.228255
Sum of atomic charges:    0.0000000

LOEWDIN ATOMIC CHARGES
----------------------
   0 Pd:   -0.270334
   1 O :   -0.075801
   2 C :    0.238790
   3 O :   -0.333092
   4 C :   -0.376394
   5 H :    0.156918
   6 H :    0.165665
   7 H :    0.143191
   8 N :   -0.109526
   9 C :   -0.238472
  10 H :    0.170177
  11 H :    0.110085
  12 H :    0.143501
  13 C :   -0.237198
  14 H :    0.160503
  15 H :    0.117473
  16 H :    0.156028
  17 C :   -0.049266
  18 C :   -0.112540
  19 C :   -0.119163
  20 C :   -0.120428
  21 C :   -0.118762
  22 C :    0.038035
  23 H :    0.147223
  24 H :    0.166475
  25 H :    0.149615
  26 H :    0.148511
  27 H :    0.073199
  28 C :   -0.113353
  29 H :    0.154990
  30 H :    0.140738
  31 O :   -0.202900
  32 C :    0.135386
  33 O :   -0.259551
  34 C :   -0.397719
  35 H :    0.137189
  36 H :    0.140053
  37 H :    0.140753

  Mayer bond orders larger than 0.100000
B(  0-Pd,  1-O ) :   0.6745 B(  0-Pd,  3-O ) :   0.2038 B(  0-Pd,  8-N ) :   0.3595
B(  0-Pd, 22-C ) :   0.2435 B(  0-Pd, 27-H ) :   0.1638 B(  0-Pd, 31-O ) :   0.6347
B(  1-O ,  2-C ) :   1.3220 B(  2-C ,  3-O ) :   1.6109 B(  2-C ,  4-C ) :   0.9503
B(  4-C ,  5-H ) :   0.9078 B(  4-C ,  6-H ) :   0.9005 B(  4-C ,  7-H ) :   0.9072
B(  8-N ,  9-C ) :   0.9132 B(  8-N , 13-C ) :   0.9226 B(  8-N , 28-C ) :   0.9016
B(  9-C , 10-H ) :   0.8691 B(  9-C , 11-H ) :   0.9038 B(  9-C , 12-H ) :   0.9138
B( 13-C , 14-H ) :   0.8894 B( 13-C , 15-H ) :   0.9044 B( 13-C , 16-H ) :   0.9006
B( 17-C , 18-C ) :   1.3748 B( 17-C , 22-C ) :   1.3718 B( 17-C , 28-C ) :   0.9479
B( 18-C , 19-C ) :   1.4237 B( 18-C , 25-H ) :   0.9067 B( 19-C , 20-C ) :   1.4103
B( 19-C , 26-H ) :   0.9132 B( 20-C , 21-C ) :   1.3957 B( 20-C , 23-H ) :   0.9070
B( 21-C , 22-C ) :   1.4273 B( 21-C , 24-H ) :   0.8993 B( 22-C , 27-H ) :   0.5858
B( 28-C , 29-H ) :   0.8966 B( 28-C , 30-H ) :   0.9117 B( 31-O , 32-C ) :   1.2894
B( 31-O , 33-O ) :   0.1097 B( 32-C , 33-O ) :   1.9260 B( 32-C , 34-C ) :   0.8926
B( 34-C , 35-H ) :   0.9186 B( 34-C , 36-H ) :   0.9171 B( 34-C , 37-H ) :   0.9192

Dispersion correction           -0.025515315
FINAL SINGLE POINT ENERGY      -988.185106200857
Dispersion correction            ... done

DIPOLE MOMENT
-------------
                                X             Y             Z
Electronic contribution:     19.86551      18.32822      -4.66170
Nuclear contribution   :    -21.61732     -18.96158       6.60409
                        -----------------------------------------
Total Dipole Moment    :     -1.75181      -0.63337       1.94239
                        -----------------------------------------
Magnitude (a.u.)       :      2.69126
Magnitude (Debye)      :      6.84065

Rotational constants in cm-1:     0.013081     0.008423     0.006378
Rotational constants in MHz :   392.162658   252.512895   191.216187

                             ****ORCA TERMINATED NORMALLY****
TOTAL RUN TIME: 0 days 0 hours 13 minutes 40 seconds 178 msec
