                         Program Version 5.0.3 -  RELEASE  -
|  1> ! EnGrad PBEh-3c
|  2> %output
|  3> xyzfile=True
|  4> end
|  5> %scf
|  6> maxiter 250
|  7> end
|  8> %output
|  9> Print[P_Hirshfeld] = 1
| 10> end
| 11> % maxcore
| 12> 4000
| 13> *xyz 0 1
| 14> Pd   0.42055889   0.37066284  -0.16102597
| 15> O    1.86484055   1.35994950   0.64037787
| 16> C    1.67348804   2.55361225   0.35134987
| 17> O    0.50236695   2.93560858  -0.21370790
| 18> C    2.72541736   3.55669471   0.62835897
| 19> H    2.26531735   4.44695686   1.04050491
| 20> H    3.19687272   3.88842776  -0.30246217
| 21> H    3.55068827   3.26548743   1.30226106
| 22> N   -1.38099390  -0.76279566  -1.02909844
| 23> C   -1.20147279  -1.95968927  -1.93357068
| 24> H   -0.53787748  -1.64498287  -2.76764638
| 25> H   -2.22413397  -2.31626182  -2.19453796
| 26> H   -0.68037630  -2.78058457  -1.40487864
| 27> C   -2.07521859   0.29009071  -1.82051958
| 28> H   -2.18523703   1.21738906  -1.21469827
| 29> H   -3.07918436  -0.03668571  -2.15176879
| 30> H   -1.43866690   0.51278140  -2.68107065
| 31> C   -1.75947594  -1.00448994   1.52148863
| 32> C   -1.62906523  -2.15504986   2.32072443
| 33> C   -1.21196151  -2.00187704   3.64885653
| 34> C   -1.12209621  -0.72153206   4.21098933
| 35> C   -1.15716414   0.42858644   3.42000779
| 36> C   -1.28687399   0.20830753   2.05322374
| 37> H   -0.86265643  -0.59495373   5.24337712
| 38> H   -1.22325907   1.44903451   3.80857240
| 39> H   -1.62154396  -3.15686246   1.84445149
| 40> H   -1.07099466  -2.89264316   4.26373762
| 41> H   -1.75369490   3.12391357   1.30431495
| 42> C   -2.25239510  -1.17721795   0.08308781
| 43> H   -3.10897529  -0.52387417   0.08459352
| 44> H   -2.53685465  -2.22623779  -0.09321032
| 45> O    1.90517349   0.22021432  -1.69202401
| 46> C    2.21316215  -0.65421866  -2.50918526
| 47> O    1.54810717  -1.70738807  -2.93176002
| 48> C    3.61737241  -0.42657923  -3.05587550
| 49> H    3.89234352  -1.40696365  -3.38756811
| 50> H    4.37347479   0.01062867  -2.33882360
| 51> H    3.65498947   0.29069107  -3.89001273
| 52> *
| 53>
| 54>                          ****END OF INPUT****

CARTESIAN COORDINATES (ANGSTROEM)
---------------------------------
  Pd     0.420559    0.370663   -0.161026
  O      1.864841    1.359949    0.640378
  C      1.673488    2.553612    0.351350
  O      0.502367    2.935609   -0.213708
  C      2.725417    3.556695    0.628359
  H      2.265317    4.446957    1.040505
  H      3.196873    3.888428   -0.302462
  H      3.550688    3.265487    1.302261
  N     -1.380994   -0.762796   -1.029098
  C     -1.201473   -1.959689   -1.933571
  H     -0.537877   -1.644983   -2.767646
  H     -2.224134   -2.316262   -2.194538
  H     -0.680376   -2.780585   -1.404879
  C     -2.075219    0.290091   -1.820520
  H     -2.185237    1.217389   -1.214698
  H     -3.079184   -0.036686   -2.151769
  H     -1.438667    0.512781   -2.681071
  C     -1.759476   -1.004490    1.521489
  C     -1.629065   -2.155050    2.320724
  C     -1.211962   -2.001877    3.648857
  C     -1.122096   -0.721532    4.210989
  C     -1.157164    0.428586    3.420008
  C     -1.286874    0.208308    2.053224
  H     -0.862656   -0.594954    5.243377
  H     -1.223259    1.449035    3.808572
  H     -1.621544   -3.156862    1.844451
  H     -1.070995   -2.892643    4.263738
  H     -1.753695    3.123914    1.304315
  C     -2.252395   -1.177218    0.083088
  H     -3.108975   -0.523874    0.084594
  H     -2.536855   -2.226238   -0.093210
  O      1.905173    0.220214   -1.692024
  C      2.213162   -0.654219   -2.509185
  O      1.548107   -1.707388   -2.931760
  C      3.617372   -0.426579   -3.055875
  H      3.892344   -1.406964   -3.387568
  H      4.373475    0.010629   -2.338824
  H      3.654989    0.290691   -3.890013

 Total Charge           Charge          ....    0
 Multiplicity           Mult            ....    1
 Number of Electrons    NEL             ....  154
 Basis Dimension        Dim             ....  339

ORBITAL ENERGIES
----------------

  NO   OCC          E(Eh)            E(eV)
   0   2.0000     -19.525345      -531.3116
   1   2.0000     -19.475083      -529.9440
   2   2.0000     -19.451027      -529.2893
   3   2.0000     -19.411236      -528.2066
   4   2.0000     -14.716830      -400.4653
   5   2.0000     -10.564807      -287.4830
   6   2.0000     -10.532119      -286.5935
   7   2.0000     -10.527101      -286.4570
   8   2.0000     -10.511109      -286.0218
   9   2.0000     -10.508326      -285.9461
  10   2.0000     -10.495402      -285.5944
  11   2.0000     -10.493411      -285.5402
  12   2.0000     -10.488993      -285.4200
  13   2.0000     -10.485983      -285.3381
  14   2.0000     -10.484558      -285.2993
  15   2.0000     -10.471319      -284.9391
  16   2.0000     -10.436414      -283.9893
  17   2.0000     -10.404908      -283.1320
  18   2.0000      -3.674381       -99.9850
  19   2.0000      -2.329906       -63.4000
  20   2.0000      -2.308267       -62.8111
  21   2.0000      -2.286796       -62.2269
  22   2.0000      -1.193442       -32.4752
  23   2.0000      -1.140456       -31.0334
  24   2.0000      -1.067676       -29.0529
  25   2.0000      -1.031071       -28.0569
  26   2.0000      -1.013167       -27.5697
  27   2.0000      -0.994584       -27.0640
  28   2.0000      -0.896444       -24.3935
  29   2.0000      -0.866508       -23.5789
  30   2.0000      -0.826216       -22.4825
  31   2.0000      -0.811554       -22.0835
  32   2.0000      -0.801997       -21.8235
  33   2.0000      -0.778250       -21.1773
  34   2.0000      -0.717026       -19.5113
  35   2.0000      -0.710698       -19.3391
  36   2.0000      -0.680483       -18.5169
  37   2.0000      -0.630651       -17.1609
  38   2.0000      -0.606691       -16.5089
  39   2.0000      -0.587347       -15.9825
  40   2.0000      -0.572260       -15.5720
  41   2.0000      -0.566194       -15.4069
  42   2.0000      -0.557275       -15.1642
  43   2.0000      -0.538684       -14.6583
  44   2.0000      -0.537402       -14.6234
  45   2.0000      -0.531945       -14.4749
  46   2.0000      -0.523859       -14.2549
  47   2.0000      -0.518596       -14.1117
  48   2.0000      -0.496839       -13.5197
  49   2.0000      -0.495430       -13.4813
  50   2.0000      -0.487725       -13.2717
  51   2.0000      -0.476549       -12.9676
  52   2.0000      -0.475309       -12.9338
  53   2.0000      -0.470906       -12.8140
  54   2.0000      -0.460133       -12.5209
  55   2.0000      -0.448275       -12.1982
  56   2.0000      -0.443773       -12.0757
  57   2.0000      -0.442414       -12.0387
  58   2.0000      -0.434413       -11.8210
  59   2.0000      -0.433268       -11.7898
  60   2.0000      -0.427596       -11.6355
  61   2.0000      -0.414917       -11.2905
  62   2.0000      -0.398716       -10.8496
  63   2.0000      -0.395674       -10.7668
  64   2.0000      -0.370799       -10.0900
  65   2.0000      -0.360396        -9.8069
  66   2.0000      -0.355315        -9.6686
  67   2.0000      -0.351292        -9.5591
  68   2.0000      -0.345946        -9.4137
  69   2.0000      -0.333510        -9.0753
  70   2.0000      -0.322533        -8.7766
  71   2.0000      -0.311792        -8.4843
  72   2.0000      -0.307283        -8.3616
  73   2.0000      -0.285115        -7.7584
  74   2.0000      -0.278350        -7.5743
  75   2.0000      -0.266803        -7.2601
  76   2.0000      -0.264276        -7.1913
  77   0.0000      -0.160930        -4.3791
  78   0.0000      -0.093609        -2.5472
  79   0.0000      -0.024914        -0.6779
  80   0.0000      -0.021380        -0.5818
  81   0.0000       0.048428         1.3178

MULLIKEN ATOMIC CHARGES
-----------------------
   0 Pd:    0.488187
   1 O :   -0.448801
   2 C :    0.631836
   3 O :   -0.535351
   4 C :   -0.764382
   5 H :    0.256886
   6 H :    0.266499
   7 H :    0.243149
   8 N :   -0.458851
   9 C :   -0.531053
  10 H :    0.316479
  11 H :    0.199394
  12 H :    0.252830
  13 C :   -0.548627
  14 H :    0.281017
  15 H :    0.229051
  16 H :    0.282142
  17 C :    0.035347
  18 C :   -0.240616
  19 C :   -0.208413
  20 C :   -0.220298
  21 C :   -0.278786
  22 C :   -0.021273
  23 H :    0.243648
  24 H :    0.269821
  25 H :    0.242138
  26 H :    0.242059
  27 H :    0.079350
  28 C :   -0.300259
  29 H :    0.264396
  30 H :    0.246379
  31 O :   -0.461411
  32 C :    0.552227
  33 O :   -0.561225
  34 C :   -0.739231
  35 H :    0.242141
  36 H :    0.221886
  37 H :    0.231715
Sum of atomic charges:    0.0000000

LOEWDIN ATOMIC CHARGES
----------------------
   0 Pd:   -0.257655
   1 O :   -0.069330
   2 C :    0.202688
   3 O :   -0.327319
   4 C :   -0.376878
   5 H :    0.157125
   6 H :    0.166210
   7 H :    0.145568
   8 N :   -0.084697
   9 C :   -0.245885
  10 H :    0.179342
  11 H :    0.111293
  12 H :    0.143930
  13 C :   -0.238461
  14 H :    0.158893
  15 H :    0.123002
  16 H :    0.158801
  17 C :   -0.043322
  18 C :   -0.120438
  19 C :   -0.110633
  20 C :   -0.125282
  21 C :   -0.114526
  22 C :    0.032160
  23 H :    0.148107
  24 H :    0.166380
  25 H :    0.152399
  26 H :    0.148602
  27 H :    0.091216
  28 C :   -0.111493
  29 H :    0.155764
  30 H :    0.144681
  31 O :   -0.136065
  32 C :    0.138519
  33 O :   -0.399060
  34 C :   -0.388985
  35 H :    0.146009
  36 H :    0.135878
  37 H :    0.143464

  Mayer bond orders larger than 0.100000
B(  0-Pd,  1-O ) :   0.6603 B(  0-Pd,  3-O ) :   0.2220 B(  0-Pd,  8-N ) :   0.3978
B(  0-Pd, 22-C ) :   0.2532 B(  0-Pd, 27-H ) :   0.1574 B(  0-Pd, 31-O ) :   0.5611
B(  1-O ,  2-C ) :   1.3619 B(  2-C ,  3-O ) :   1.6077 B(  2-C ,  4-C ) :   0.9531
B(  4-C ,  5-H ) :   0.9067 B(  4-C ,  6-H ) :   0.9003 B(  4-C ,  7-H ) :   0.9083
B(  8-N ,  9-C ) :   0.8991 B(  8-N , 13-C ) :   0.9182 B(  8-N , 28-C ) :   0.8917
B(  9-C , 10-H ) :   0.8483 B(  9-C , 11-H ) :   0.8995 B(  9-C , 12-H ) :   0.9116
B( 13-C , 14-H ) :   0.8888 B( 13-C , 15-H ) :   0.9009 B( 13-C , 16-H ) :   0.8963
B( 17-C , 18-C ) :   1.3824 B( 17-C , 22-C ) :   1.3559 B( 17-C , 28-C ) :   0.9475
B( 18-C , 19-C ) :   1.4176 B( 18-C , 25-H ) :   0.9066 B( 19-C , 20-C ) :   1.4097
B( 19-C , 26-H ) :   0.9117 B( 20-C , 21-C ) :   1.4034 B( 20-C , 23-H ) :   0.9074
B( 21-C , 22-C ) :   1.4117 B( 21-C , 24-H ) :   0.9011 B( 22-C , 27-H ) :   0.5960
B( 28-C , 29-H ) :   0.8952 B( 28-C , 30-H ) :   0.9107 B( 31-O , 32-C ) :   1.4431
B( 31-O , 33-O ) :   0.1120 B( 32-C , 33-O ) :   1.7569 B( 32-C , 34-C ) :   0.9061
B( 34-C , 35-H ) :   0.9145 B( 34-C , 36-H ) :   0.9192 B( 34-C , 37-H ) :   0.9164

Dispersion correction           -0.025707781
FINAL SINGLE POINT ENERGY      -988.197278615828
Dispersion correction            ... done

DIPOLE MOMENT
-------------
                                X             Y             Z
Electronic contribution:     17.10958      18.58259      -5.76556
Nuclear contribution   :    -18.97501     -18.93480       7.96873
                        -----------------------------------------
Total Dipole Moment    :     -1.86543      -0.35220       2.20318
                        -----------------------------------------
Magnitude (a.u.)       :      2.90824
Magnitude (Debye)      :      7.39216

Rotational constants in cm-1:     0.013118     0.008482     0.006413
Rotational constants in MHz :   393.271471   254.295284   192.253180

                             ****ORCA TERMINATED NORMALLY****
TOTAL RUN TIME: 0 days 0 hours 13 minutes 33 seconds 69 msec
