                         Program Version 5.0.3 -  RELEASE  -
|  1> ! EnGrad PBEh-3c
|  2> %output
|  3> xyzfile=True
|  4> end
|  5> %scf
|  6> maxiter 250
|  7> end
|  8> %output
|  9> Print[P_Hirshfeld] = 1
| 10> end
| 11> % maxcore
| 12> 4000
| 13> *xyz 0 1
| 14> Pd   0.38777525   0.32408680  -0.19648078
| 15> O    1.87501308   1.37606852   0.65073568
| 16> C    1.66740890   2.58484525   0.34323171
| 17> O    0.53980155   2.91499151  -0.19191073
| 18> C    2.72770114   3.56567403   0.62823087
| 19> H    2.26741778   4.44667805   1.04256272
| 20> H    3.19563232   3.88295749  -0.30122066
| 21> H    3.54189610   3.25739171   1.29845015
| 22> N   -1.35066032  -0.74171872  -1.00460068
| 23> C   -1.20450619  -1.94423654  -1.90772638
| 24> H   -0.55499153  -1.66946891  -2.75893871
| 25> H   -2.20643723  -2.32087856  -2.20623720
| 26> H   -0.68737080  -2.77061647  -1.40254104
| 27> C   -2.06342813   0.27529409  -1.81921683
| 28> H   -2.17951378   1.20262129  -1.23008351
| 29> H   -3.07062433  -0.03428777  -2.15732036
| 30> H   -1.44513995   0.50906011  -2.68170295
| 31> C   -1.71854554  -1.02551586   1.50118507
| 32> C   -1.61051271  -2.16118058   2.31485641
| 33> C   -1.24728917  -2.00202447   3.65737610
| 34> C   -1.09355870  -0.72055703   4.20679513
| 35> C   -1.16501870   0.41943634   3.40602224
| 36> C   -1.30987047   0.21421440   2.03388681
| 37> H   -0.86478727  -0.59990354   5.25341967
| 38> H   -1.19821224   1.43476606   3.81088439
| 39> H   -1.64935473  -3.12994319   1.86471002
| 40> H   -1.08453691  -2.88568742   4.26474985
| 41> H   -1.74033413   3.11456090   1.30108433
| 42> C   -2.26173112  -1.16922141   0.08447031
| 43> H   -3.12823013  -0.52248722   0.07963855
| 44> H   -2.55448663  -2.21172767  -0.07732919
| 45> O    1.84990094   0.23567259  -1.70477107
| 46> C    2.23925232  -0.65971454  -2.49948041
| 47> O    1.58839565  -1.70200313  -2.87965284
| 48> C    3.60922385  -0.42604888  -3.07622442
| 49> H    3.91472680  -1.39167433  -3.40421438
| 50> H    4.34921228   0.01007867  -2.35100680
| 51> H    3.64086188   0.29568249  -3.89502036
| 52> *
| 53>
| 54>                          ****END OF INPUT****

CARTESIAN COORDINATES (ANGSTROEM)
---------------------------------
  Pd     0.387775    0.324087   -0.196481
  O      1.875013    1.376069    0.650736
  C      1.667409    2.584845    0.343232
  O      0.539802    2.914992   -0.191911
  C      2.727701    3.565674    0.628231
  H      2.267418    4.446678    1.042563
  H      3.195632    3.882957   -0.301221
  H      3.541896    3.257392    1.298450
  N     -1.350660   -0.741719   -1.004601
  C     -1.204506   -1.944237   -1.907726
  H     -0.554992   -1.669469   -2.758939
  H     -2.206437   -2.320879   -2.206237
  H     -0.687371   -2.770616   -1.402541
  C     -2.063428    0.275294   -1.819217
  H     -2.179514    1.202621   -1.230084
  H     -3.070624   -0.034288   -2.157320
  H     -1.445140    0.509060   -2.681703
  C     -1.718546   -1.025516    1.501185
  C     -1.610513   -2.161181    2.314856
  C     -1.247289   -2.002024    3.657376
  C     -1.093559   -0.720557    4.206795
  C     -1.165019    0.419436    3.406022
  C     -1.309870    0.214214    2.033887
  H     -0.864787   -0.599904    5.253420
  H     -1.198212    1.434766    3.810884
  H     -1.649355   -3.129943    1.864710
  H     -1.084537   -2.885687    4.264750
  H     -1.740334    3.114561    1.301084
  C     -2.261731   -1.169221    0.084470
  H     -3.128230   -0.522487    0.079639
  H     -2.554487   -2.211728   -0.077329
  O      1.849901    0.235673   -1.704771
  C      2.239252   -0.659715   -2.499480
  O      1.588396   -1.702003   -2.879653
  C      3.609224   -0.426049   -3.076224
  H      3.914727   -1.391674   -3.404214
  H      4.349212    0.010079   -2.351007
  H      3.640862    0.295682   -3.895020

 Total Charge           Charge          ....    0
 Multiplicity           Mult            ....    1
 Number of Electrons    NEL             ....  154
 Basis Dimension        Dim             ....  339

ORBITAL ENERGIES
----------------

  NO   OCC          E(Eh)            E(eV)
   0   2.0000     -19.499484      -530.6079
   1   2.0000     -19.469236      -529.7848
   2   2.0000     -19.443568      -529.0864
   3   2.0000     -19.411376      -528.2104
   4   2.0000     -14.725765      -400.7084
   5   2.0000     -10.547814      -287.0206
   6   2.0000     -10.531444      -286.5752
   7   2.0000     -10.524028      -286.3734
   8   2.0000     -10.511374      -286.0290
   9   2.0000     -10.509569      -285.9799
  10   2.0000     -10.493762      -285.5498
  11   2.0000     -10.488343      -285.4023
  12   2.0000     -10.487405      -285.3768
  13   2.0000     -10.485889      -285.3356
  14   2.0000     -10.485460      -285.3239
  15   2.0000     -10.472880      -284.9816
  16   2.0000     -10.425834      -283.7014
  17   2.0000     -10.404677      -283.1257
  18   2.0000      -3.670240       -99.8723
  19   2.0000      -2.323348       -63.2215
  20   2.0000      -2.306109       -62.7524
  21   2.0000      -2.282058       -62.0980
  22   2.0000      -1.168467       -31.7956
  23   2.0000      -1.130856       -30.7721
  24   2.0000      -1.074530       -29.2394
  25   2.0000      -1.042136       -28.3580
  26   2.0000      -1.021057       -27.7844
  27   2.0000      -0.992876       -27.0175
  28   2.0000      -0.897636       -24.4259
  29   2.0000      -0.865881       -23.5618
  30   2.0000      -0.820357       -22.3231
  31   2.0000      -0.814251       -22.1569
  32   2.0000      -0.804291       -21.8859
  33   2.0000      -0.785445       -21.3730
  34   2.0000      -0.722421       -19.6581
  35   2.0000      -0.712959       -19.4006
  36   2.0000      -0.684078       -18.6147
  37   2.0000      -0.611700       -16.6452
  38   2.0000      -0.603927       -16.4337
  39   2.0000      -0.584239       -15.8979
  40   2.0000      -0.575497       -15.6601
  41   2.0000      -0.568679       -15.4745
  42   2.0000      -0.562122       -15.2961
  43   2.0000      -0.541037       -14.7224
  44   2.0000      -0.534372       -14.5410
  45   2.0000      -0.524837       -14.2815
  46   2.0000      -0.513105       -13.9623
  47   2.0000      -0.507892       -13.8204
  48   2.0000      -0.499191       -13.5837
  49   2.0000      -0.497623       -13.5410
  50   2.0000      -0.491997       -13.3879
  51   2.0000      -0.476380       -12.9630
  52   2.0000      -0.474536       -12.9128
  53   2.0000      -0.471140       -12.8204
  54   2.0000      -0.460066       -12.5190
  55   2.0000      -0.449171       -12.2226
  56   2.0000      -0.437795       -11.9130
  57   2.0000      -0.436742       -11.8844
  58   2.0000      -0.432726       -11.7751
  59   2.0000      -0.431462       -11.7407
  60   2.0000      -0.427638       -11.6366
  61   2.0000      -0.415875       -11.3165
  62   2.0000      -0.403012       -10.9665
  63   2.0000      -0.397093       -10.8055
  64   2.0000      -0.371848       -10.1185
  65   2.0000      -0.358318        -9.7503
  66   2.0000      -0.350723        -9.5436
  67   2.0000      -0.350231        -9.5303
  68   2.0000      -0.342221        -9.3123
  69   2.0000      -0.330393        -8.9905
  70   2.0000      -0.322899        -8.7865
  71   2.0000      -0.310350        -8.4451
  72   2.0000      -0.306466        -8.3394
  73   2.0000      -0.286046        -7.7837
  74   2.0000      -0.279080        -7.5941
  75   2.0000      -0.268630        -7.3098
  76   2.0000      -0.266259        -7.2453
  77   0.0000      -0.162032        -4.4091
  78   0.0000      -0.090727        -2.4688
  79   0.0000      -0.023896        -0.6502
  80   0.0000      -0.018047        -0.4911
  81   0.0000       0.052722         1.4346

MULLIKEN ATOMIC CHARGES
-----------------------
   0 Pd:    0.481557
   1 O :   -0.467836
   2 C :    0.625769
   3 O :   -0.510337
   4 C :   -0.762452
   5 H :    0.249204
   6 H :    0.260892
   7 H :    0.244503
   8 N :   -0.473474
   9 C :   -0.541055
  10 H :    0.317614
  11 H :    0.206599
  12 H :    0.259355
  13 C :   -0.555058
  14 H :    0.284236
  15 H :    0.233973
  16 H :    0.288301
  17 C :    0.022038
  18 C :   -0.235779
  19 C :   -0.214676
  20 C :   -0.215769
  21 C :   -0.280594
  22 C :   -0.017292
  23 H :    0.244686
  24 H :    0.266534
  25 H :    0.243466
  26 H :    0.242385
  27 H :    0.089286
  28 C :   -0.302605
  29 H :    0.268655
  30 H :    0.251193
  31 O :   -0.484408
  32 C :    0.556801
  33 O :   -0.540761
  34 C :   -0.742895
  35 H :    0.245162
  36 H :    0.225414
  37 H :    0.237366
Sum of atomic charges:   -0.0000000

LOEWDIN ATOMIC CHARGES
----------------------
   0 Pd:   -0.268911
   1 O :   -0.114478
   2 C :    0.171638
   3 O :   -0.289382
   4 C :   -0.377825
   5 H :    0.153034
   6 H :    0.162926
   7 H :    0.145800
   8 N :   -0.064673
   9 C :   -0.246025
  10 H :    0.176752
  11 H :    0.114237
  12 H :    0.145573
  13 C :   -0.238640
  14 H :    0.158540
  15 H :    0.125775
  16 H :    0.160092
  17 C :   -0.044596
  18 C :   -0.122090
  19 C :   -0.109571
  20 C :   -0.123424
  21 C :   -0.113503
  22 C :    0.029753
  23 H :    0.148614
  24 H :    0.163787
  25 H :    0.150015
  26 H :    0.147958
  27 H :    0.101464
  28 C :   -0.105115
  29 H :    0.156864
  30 H :    0.146140
  31 O :   -0.150565
  32 C :    0.134079
  33 O :   -0.370010
  34 C :   -0.386156
  35 H :    0.146950
  36 H :    0.138715
  37 H :    0.146257

  Mayer bond orders larger than 0.100000
B(  0-Pd,  1-O ) :   0.6640 B(  0-Pd,  3-O ) :   0.1954 B(  0-Pd,  8-N ) :   0.4130
B(  0-Pd, 22-C ) :   0.2424 B(  0-Pd, 27-H ) :   0.1472 B(  0-Pd, 31-O ) :   0.5951
B(  1-O ,  2-C ) :   1.3258 B(  2-C ,  3-O ) :   1.6846 B(  2-C ,  4-C ) :   0.9513
B(  4-C ,  5-H ) :   0.9099 B(  4-C ,  6-H ) :   0.9038 B(  4-C ,  7-H ) :   0.9109
B(  8-N ,  9-C ) :   0.8990 B(  8-N , 13-C ) :   0.9139 B(  8-N , 28-C ) :   0.8840
B(  9-C , 10-H ) :   0.8546 B(  9-C , 11-H ) :   0.8990 B(  9-C , 12-H ) :   0.9093
B( 13-C , 14-H ) :   0.8876 B( 13-C , 15-H ) :   0.8997 B( 13-C , 16-H ) :   0.8933
B( 17-C , 18-C ) :   1.3966 B( 17-C , 22-C ) :   1.3507 B( 17-C , 28-C ) :   0.9456
B( 18-C , 19-C ) :   1.4261 B( 18-C , 25-H ) :   0.9055 B( 19-C , 20-C ) :   1.4127
B( 19-C , 26-H ) :   0.9113 B( 20-C , 21-C ) :   1.4059 B( 20-C , 23-H ) :   0.9068
B( 21-C , 22-C ) :   1.4190 B( 21-C , 24-H ) :   0.9025 B( 22-C , 27-H ) :   0.6178
B( 28-C , 29-H ) :   0.8950 B( 28-C , 30-H ) :   0.9105 B( 31-O , 32-C ) :   1.3893
B( 31-O , 33-O ) :   0.1077 B( 32-C , 33-O ) :   1.7956 B( 32-C , 34-C ) :   0.9190
B( 34-C , 35-H ) :   0.9146 B( 34-C , 36-H ) :   0.9176 B( 34-C , 37-H ) :   0.9141

Dispersion correction           -0.025827911
FINAL SINGLE POINT ENERGY      -988.231266694913
Dispersion correction            ... done

DIPOLE MOMENT
-------------
                                X             Y             Z
Electronic contribution:     15.03458      15.90894      -7.98747
Nuclear contribution   :    -17.15149     -16.41967       9.92654
                        -----------------------------------------
Total Dipole Moment    :     -2.11691      -0.51073       1.93907
                        -----------------------------------------
Magnitude (a.u.)       :      2.91584
Magnitude (Debye)      :      7.41148

Rotational constants in cm-1:     0.013212     0.008509     0.006437
Rotational constants in MHz :   396.086362   255.081369   192.963123

                             ****ORCA TERMINATED NORMALLY****
TOTAL RUN TIME: 0 days 0 hours 19 minutes 0 seconds 217 msec
