                         Program Version 5.0.3 -  RELEASE  -
|  1> ! EnGrad PBEh-3c
|  2> %output
|  3> xyzfile=True
|  4> end
|  5> %scf
|  6> maxiter 250
|  7> end
|  8> %output
|  9> Print[P_Hirshfeld] = 1
| 10> end
| 11> % maxcore
| 12> 4000
| 13> *xyz 0 1
| 14> Pd   0.36851805   0.31606718  -0.21061965
| 15> O    1.86529499   1.38447013   0.65664405
| 16> C    1.64105126   2.59378705   0.33541190
| 17> O    0.55877077   2.90549232  -0.17763423
| 18> C    2.72840959   3.56924614   0.62809763
| 19> H    2.26066394   4.44149413   1.04329624
| 20> H    3.18955677   3.87403511  -0.30200291
| 21> H    3.53066249   3.24818782   1.29460359
| 22> N   -1.33720785  -0.73085372  -0.99917861
| 23> C   -1.19940121  -1.92893215  -1.90449773
| 24> H   -0.56308951  -1.67108261  -2.75739810
| 25> H   -2.19831643  -2.31574582  -2.21261607
| 26> H   -0.68860454  -2.76353547  -1.41828171
| 27> C   -2.06122842   0.28098770  -1.81090035
| 28> H   -2.18367396   1.19606790  -1.22768311
| 29> H   -3.07014183  -0.02493303  -2.15621438
| 30> H   -1.45260117   0.52201261  -2.67546779
| 31> C   -1.70241527  -1.02313231   1.48785041
| 32> C   -1.59644032  -2.14909133   2.31664498
| 33> C   -1.26033688  -1.99632678   3.65617454
| 34> C   -1.08695694  -0.71695605   4.20474353
| 35> C   -1.16995607   0.42521189   3.39500508
| 36> C   -1.31727993   0.22155638   2.02589474
| 37> H   -0.87488687  -0.59776132   5.26188630
| 38> H   -1.18656766   1.43726004   3.80869612
| 39> H   -1.62617182  -3.12191877   1.85318185
| 40> H   -1.05483244  -2.88397488   4.25413086
| 41> H   -1.73277596   3.05186141   1.30873702
| 42> C   -2.25672413  -1.16432710   0.08947771
| 43> H   -3.13909943  -0.52823824   0.06562701
| 44> H   -2.54255047  -2.21099354  -0.07755112
| 45> O    1.83028234   0.24501738  -1.69499757
| 46> C    2.22856617  -0.68953298  -2.50731649
| 47> O    1.60318659  -1.67567661  -2.85880900
| 48> C    3.61146620  -0.42859269  -3.06793671
| 49> H    3.91576622  -1.40697068  -3.39414436
| 50> H    4.32936539  -0.00171202  -2.34769191
| 51> H    3.64674852   0.28781062  -3.88902740
| 52> *
| 53>
| 54>                          ****END OF INPUT****

CARTESIAN COORDINATES (ANGSTROEM)
---------------------------------
  Pd     0.368518    0.316067   -0.210620
  O      1.865295    1.384470    0.656644
  C      1.641051    2.593787    0.335412
  O      0.558771    2.905492   -0.177634
  C      2.728410    3.569246    0.628098
  H      2.260664    4.441494    1.043296
  H      3.189557    3.874035   -0.302003
  H      3.530662    3.248188    1.294604
  N     -1.337208   -0.730854   -0.999179
  C     -1.199401   -1.928932   -1.904498
  H     -0.563090   -1.671083   -2.757398
  H     -2.198316   -2.315746   -2.212616
  H     -0.688605   -2.763535   -1.418282
  C     -2.061228    0.280988   -1.810900
  H     -2.183674    1.196068   -1.227683
  H     -3.070142   -0.024933   -2.156214
  H     -1.452601    0.522013   -2.675468
  C     -1.702415   -1.023132    1.487850
  C     -1.596440   -2.149091    2.316645
  C     -1.260337   -1.996327    3.656175
  C     -1.086957   -0.716956    4.204744
  C     -1.169956    0.425212    3.395005
  C     -1.317280    0.221556    2.025895
  H     -0.874887   -0.597761    5.261886
  H     -1.186568    1.437260    3.808696
  H     -1.626172   -3.121919    1.853182
  H     -1.054832   -2.883975    4.254131
  H     -1.732776    3.051861    1.308737
  C     -2.256724   -1.164327    0.089478
  H     -3.139099   -0.528238    0.065627
  H     -2.542550   -2.210994   -0.077551
  O      1.830282    0.245017   -1.694998
  C      2.228566   -0.689533   -2.507316
  O      1.603187   -1.675677   -2.858809
  C      3.611466   -0.428593   -3.067937
  H      3.915766   -1.406971   -3.394144
  H      4.329365   -0.001712   -2.347692
  H      3.646749    0.287811   -3.889027

 Total Charge           Charge          ....    0
 Multiplicity           Mult            ....    1
 Number of Electrons    NEL             ....  154
 Basis Dimension        Dim             ....  339

ORBITAL ENERGIES
----------------

  NO   OCC          E(Eh)            E(eV)
   0   2.0000     -19.482974      -530.1587
   1   2.0000     -19.462508      -529.6018
   2   2.0000     -19.438499      -528.9484
   3   2.0000     -19.424712      -528.5733
   4   2.0000     -14.727851      -400.7652
   5   2.0000     -10.535123      -286.6753
   6   2.0000     -10.532148      -286.5943
   7   2.0000     -10.524586      -286.3886
   8   2.0000     -10.513172      -286.0779
   9   2.0000     -10.509197      -285.9698
  10   2.0000     -10.493502      -285.5427
  11   2.0000     -10.488106      -285.3959
  12   2.0000     -10.487275      -285.3733
  13   2.0000     -10.486396      -285.3493
  14   2.0000     -10.485146      -285.3153
  15   2.0000     -10.474834      -285.0347
  16   2.0000     -10.416743      -283.4540
  17   2.0000     -10.404808      -283.1292
  18   2.0000      -3.664033       -99.7034
  19   2.0000      -2.316290       -63.0295
  20   2.0000      -2.300977       -62.6128
  21   2.0000      -2.275765       -61.9267
  22   2.0000      -1.164727       -31.6938
  23   2.0000      -1.133122       -30.8338
  24   2.0000      -1.076594       -29.2956
  25   2.0000      -1.051462       -28.6117
  26   2.0000      -1.040999       -28.3270
  27   2.0000      -0.993284       -27.0286
  28   2.0000      -0.898252       -24.4427
  29   2.0000      -0.866665       -23.5831
  30   2.0000      -0.815616       -22.1940
  31   2.0000      -0.810099       -22.0439
  32   2.0000      -0.806445       -21.9445
  33   2.0000      -0.786170       -21.3928
  34   2.0000      -0.725497       -19.7418
  35   2.0000      -0.712247       -19.3812
  36   2.0000      -0.684941       -18.6382
  37   2.0000      -0.609908       -16.5964
  38   2.0000      -0.592816       -16.1314
  39   2.0000      -0.580322       -15.7914
  40   2.0000      -0.575845       -15.6695
  41   2.0000      -0.570073       -15.5125
  42   2.0000      -0.563551       -15.3350
  43   2.0000      -0.541895       -14.7457
  44   2.0000      -0.532957       -14.5025
  45   2.0000      -0.518437       -14.1074
  46   2.0000      -0.513504       -13.9731
  47   2.0000      -0.502284       -13.6678
  48   2.0000      -0.500508       -13.6195
  49   2.0000      -0.496450       -13.5091
  50   2.0000      -0.492942       -13.4136
  51   2.0000      -0.478392       -13.0177
  52   2.0000      -0.476640       -12.9700
  53   2.0000      -0.473864       -12.8945
  54   2.0000      -0.460458       -12.5297
  55   2.0000      -0.449332       -12.2269
  56   2.0000      -0.439749       -11.9662
  57   2.0000      -0.434880       -11.8337
  58   2.0000      -0.432955       -11.7813
  59   2.0000      -0.431015       -11.7285
  60   2.0000      -0.428655       -11.6643
  61   2.0000      -0.415074       -11.2947
  62   2.0000      -0.405431       -11.0323
  63   2.0000      -0.398576       -10.8458
  64   2.0000      -0.370746       -10.0885
  65   2.0000      -0.354395        -9.6436
  66   2.0000      -0.351616        -9.5680
  67   2.0000      -0.346796        -9.4368
  68   2.0000      -0.336414        -9.1543
  69   2.0000      -0.329078        -8.9547
  70   2.0000      -0.321936        -8.7603
  71   2.0000      -0.308082        -8.3833
  72   2.0000      -0.305282        -8.3071
  73   2.0000      -0.293029        -7.9737
  74   2.0000      -0.280044        -7.6204
  75   2.0000      -0.277727        -7.5573
  76   2.0000      -0.267770        -7.2864
  77   0.0000      -0.158965        -4.3257
  78   0.0000      -0.083577        -2.2742
  79   0.0000      -0.025479        -0.6933
  80   0.0000      -0.015424        -0.4197
  81   0.0000       0.055862         1.5201

MULLIKEN ATOMIC CHARGES
-----------------------
   0 Pd:    0.464668
   1 O :   -0.478610
   2 C :    0.607954
   3 O :   -0.478224
   4 C :   -0.759332
   5 H :    0.240867
   6 H :    0.255017
   7 H :    0.243588
   8 N :   -0.482180
   9 C :   -0.543300
  10 H :    0.315881
  11 H :    0.208466
  12 H :    0.261646
  13 C :   -0.558035
  14 H :    0.288192
  15 H :    0.233699
  16 H :    0.289523
  17 C :    0.026654
  18 C :   -0.238873
  19 C :   -0.211340
  20 C :   -0.219527
  21 C :   -0.279403
  22 C :   -0.014593
  23 H :    0.244842
  24 H :    0.266493
  25 H :    0.241899
  26 H :    0.242239
  27 H :    0.090716
  28 C :   -0.304942
  29 H :    0.269213
  30 H :    0.251747
  31 O :   -0.515718
  32 C :    0.553677
  33 O :   -0.476756
  34 C :   -0.747151
  35 H :    0.235935
  36 H :    0.237099
  37 H :    0.237967
Sum of atomic charges:    0.0000000

LOEWDIN ATOMIC CHARGES
----------------------
   0 Pd:   -0.293093
   1 O :   -0.134902
   2 C :    0.142814
   3 O :   -0.248662
   4 C :   -0.380726
   5 H :    0.148334
   6 H :    0.158605
   7 H :    0.144089
   8 N :   -0.059310
   9 C :   -0.245200
  10 H :    0.172951
  11 H :    0.115135
  12 H :    0.145476
  13 C :   -0.238408
  14 H :    0.158507
  15 H :    0.125788
  16 H :    0.160186
  17 C :   -0.046081
  18 C :   -0.121013
  19 C :   -0.112384
  20 C :   -0.120701
  21 C :   -0.113383
  22 C :    0.031867
  23 H :    0.148862
  24 H :    0.163574
  25 H :    0.149827
  26 H :    0.148693
  27 H :    0.103820
  28 C :   -0.101591
  29 H :    0.157443
  30 H :    0.146652
  31 O :   -0.182061
  32 C :    0.122871
  33 O :   -0.291853
  34 C :   -0.389260
  35 H :    0.144505
  36 H :    0.142209
  37 H :    0.146418

  Mayer bond orders larger than 0.100000
B(  0-Pd,  1-O ) :   0.6717 B(  0-Pd,  3-O ) :   0.1778 B(  0-Pd,  8-N ) :   0.4102
B(  0-Pd, 22-C ) :   0.2283 B(  0-Pd, 27-H ) :   0.1430 B(  0-Pd, 31-O ) :   0.6427
B(  1-O ,  2-C ) :   1.2990 B(  2-C ,  3-O ) :   1.7543 B(  2-C ,  4-C ) :   0.9444
B(  4-C ,  5-H ) :   0.9138 B(  4-C ,  6-H ) :   0.9083 B(  4-C ,  7-H ) :   0.9133
B(  8-N ,  9-C ) :   0.9028 B(  8-N , 13-C ) :   0.9126 B(  8-N , 28-C ) :   0.8800
B(  9-C , 10-H ) :   0.8616 B(  9-C , 11-H ) :   0.9004 B(  9-C , 12-H ) :   0.9082
B( 13-C , 14-H ) :   0.8856 B( 13-C , 15-H ) :   0.8998 B( 13-C , 16-H ) :   0.8930
B( 17-C , 18-C ) :   1.3942 B( 17-C , 22-C ) :   1.3515 B( 17-C , 28-C ) :   0.9436
B( 18-C , 19-C ) :   1.4302 B( 18-C , 25-H ) :   0.9055 B( 19-C , 20-C ) :   1.4103
B( 19-C , 26-H ) :   0.9112 B( 20-C , 21-C ) :   1.4049 B( 20-C , 23-H ) :   0.9067
B( 21-C , 22-C ) :   1.4255 B( 21-C , 24-H ) :   0.9025 B( 22-C , 27-H ) :   0.6356
B( 28-C , 29-H ) :   0.8946 B( 28-C , 30-H ) :   0.9112 B( 31-O , 32-C ) :   1.3065
B( 31-O , 33-O ) :   0.1042 B( 32-C , 33-O ) :   1.8892 B( 32-C , 34-C ) :   0.9166
B( 34-C , 35-H ) :   0.9180 B( 34-C , 36-H ) :   0.9147 B( 34-C , 37-H ) :   0.9152

Dispersion correction           -0.025934856
FINAL SINGLE POINT ENERGY      -988.248418378247
Dispersion correction            ... done

DIPOLE MOMENT
-------------
                                X             Y             Z
Electronic contribution:     13.87284      15.15291      -9.03639
Nuclear contribution   :    -16.11574     -15.92835      10.72419
                        -----------------------------------------
Total Dipole Moment    :     -2.24289      -0.77544       1.68781
                        -----------------------------------------
Magnitude (a.u.)       :      2.91214
Magnitude (Debye)      :      7.40207

Rotational constants in cm-1:     0.013281     0.008543     0.006467
Rotational constants in MHz :   398.142639   256.108361   193.866681

                             ****ORCA TERMINATED NORMALLY****
TOTAL RUN TIME: 0 days 0 hours 12 minutes 43 seconds 620 msec
