                         Program Version 5.0.3 -  RELEASE  -
|  1> ! EnGrad PBEh-3c
|  2> %output
|  3> xyzfile=True
|  4> end
|  5> %scf
|  6> maxiter 250
|  7> end
|  8> %output
|  9> Print[P_Hirshfeld] = 1
| 10> end
| 11> % maxcore
| 12> 4000
| 13> *xyz 0 1
| 14> Pd   0.34296683   0.30679489  -0.23221095
| 15> O    1.83957586   1.37789512   0.66854601
| 16> C    1.58813700   2.60871828   0.32479707
| 17> O    0.58679983   2.89965485  -0.15495788
| 18> C    2.72509734   3.57462947   0.62680347
| 19> H    2.24488351   4.43899539   1.04809547
| 20> H    3.17883984   3.85719946  -0.30927360
| 21> H    3.50545350   3.22509419   1.28757065
| 22> N   -1.32618270  -0.71929652  -1.00379326
| 23> C   -1.18726089  -1.90007737  -1.90101201
| 24> H   -0.58275372  -1.67121356  -2.75547147
| 25> H   -2.17554256  -2.29538870  -2.22383516
| 26> H   -0.68931259  -2.74628401  -1.44810500
| 27> C   -2.05713170   0.29797096  -1.79606827
| 28> H   -2.19372265   1.18719354  -1.21860893
| 29> H   -3.06227189  -0.00798357  -2.14968101
| 30> H   -1.46759260   0.55198407  -2.66369726
| 31> C   -1.66667605  -1.00526192   1.46371611
| 32> C   -1.56227777  -2.12119324   2.31133373
| 33> C   -1.27370621  -1.98209684   3.65950369
| 34> C   -1.07971108  -0.70621340   4.19661582
| 35> C   -1.17756325   0.43519942   3.37174190
| 36> C   -1.34068810   0.23813676   2.00921881
| 37> H   -0.89770021  -0.59260933   5.27513751
| 38> H   -1.15803507   1.43740372   3.80140206
| 39> H   -1.57643694  -3.10393138   1.83067295
| 40> H   -0.99408486  -2.87570946   4.22918904
| 41> H   -1.71270013   2.89616754   1.32674162
| 42> C   -2.24218635  -1.15369194   0.10370836
| 43> H   -3.16078076  -0.54488111   0.03558634
| 44> H   -2.51610743  -2.20515018  -0.07750969
| 45> O    1.79034588   0.24950306  -1.68853644
| 46> C    2.21592056  -0.68676076  -2.49230214
| 47> O    1.61256851  -1.66778814  -2.82552323
| 48> C    3.61450568  -0.44099093  -3.04942455
| 49> H    3.92341822  -1.43749969  -3.37343416
| 50> H    4.28768570  -0.02822920  -2.33423708
| 51> H    3.65617272   0.26866343  -3.87837123
| 52> *
| 53>
| 54>                          ****END OF INPUT****

CARTESIAN COORDINATES (ANGSTROEM)
---------------------------------
  Pd     0.342967    0.306795   -0.232211
  O      1.839576    1.377895    0.668546
  C      1.588137    2.608718    0.324797
  O      0.586800    2.899655   -0.154958
  C      2.725097    3.574629    0.626803
  H      2.244884    4.438995    1.048095
  H      3.178840    3.857199   -0.309274
  H      3.505453    3.225094    1.287571
  N     -1.326183   -0.719297   -1.003793
  C     -1.187261   -1.900077   -1.901012
  H     -0.582754   -1.671214   -2.755471
  H     -2.175543   -2.295389   -2.223835
  H     -0.689313   -2.746284   -1.448105
  C     -2.057132    0.297971   -1.796068
  H     -2.193723    1.187194   -1.218609
  H     -3.062272   -0.007984   -2.149681
  H     -1.467593    0.551984   -2.663697
  C     -1.666676   -1.005262    1.463716
  C     -1.562278   -2.121193    2.311334
  C     -1.273706   -1.982097    3.659504
  C     -1.079711   -0.706213    4.196616
  C     -1.177563    0.435199    3.371742
  C     -1.340688    0.238137    2.009219
  H     -0.897700   -0.592609    5.275138
  H     -1.158035    1.437404    3.801402
  H     -1.576437   -3.103931    1.830673
  H     -0.994085   -2.875709    4.229189
  H     -1.712700    2.896168    1.326742
  C     -2.242186   -1.153692    0.103708
  H     -3.160781   -0.544881    0.035586
  H     -2.516107   -2.205150   -0.077510
  O      1.790346    0.249503   -1.688536
  C      2.215921   -0.686761   -2.492302
  O      1.612569   -1.667788   -2.825523
  C      3.614506   -0.440991   -3.049425
  H      3.923418   -1.437500   -3.373434
  H      4.287686   -0.028229   -2.334237
  H      3.656173    0.268663   -3.878371

 Total Charge           Charge          ....    0
 Multiplicity           Mult            ....    1
 Number of Electrons    NEL             ....  154
 Basis Dimension        Dim             ....  339

ORBITAL ENERGIES
----------------

  NO   OCC          E(Eh)            E(eV)
   0   2.0000     -19.464501      -529.6560
   1   2.0000     -19.459949      -529.5321
   2   2.0000     -19.442363      -529.0536
   3   2.0000     -19.424305      -528.5622
   4   2.0000     -14.729023      -400.7971
   5   2.0000     -10.535973      -286.6984
   6   2.0000     -10.524069      -286.3745
   7   2.0000     -10.522361      -286.3280
   8   2.0000     -10.516062      -286.1566
   9   2.0000     -10.509303      -285.9727
  10   2.0000     -10.494197      -285.5616
  11   2.0000     -10.490947      -285.4732
  12   2.0000     -10.490785      -285.4688
  13   2.0000     -10.486904      -285.3632
  14   2.0000     -10.483988      -285.2838
  15   2.0000     -10.470890      -284.9274
  16   2.0000     -10.408895      -283.2404
  17   2.0000     -10.402796      -283.0745
  18   2.0000      -3.660337       -99.6028
  19   2.0000      -2.311943       -62.9112
  20   2.0000      -2.298324       -62.5406
  21   2.0000      -2.272380       -61.8346
  22   2.0000      -1.185402       -32.2564
  23   2.0000      -1.139818       -31.0160
  24   2.0000      -1.080724       -29.4080
  25   2.0000      -1.057318       -28.7711
  26   2.0000      -1.042460       -28.3668
  27   2.0000      -0.997004       -27.1299
  28   2.0000      -0.902625       -24.5617
  29   2.0000      -0.868987       -23.6463
  30   2.0000      -0.820331       -22.3223
  31   2.0000      -0.810140       -22.0450
  32   2.0000      -0.798433       -21.7265
  33   2.0000      -0.785278       -21.3685
  34   2.0000      -0.729479       -19.8501
  35   2.0000      -0.714992       -19.4559
  36   2.0000      -0.686590       -18.6831
  37   2.0000      -0.612369       -16.6634
  38   2.0000      -0.584672       -15.9097
  39   2.0000      -0.579507       -15.7692
  40   2.0000      -0.574232       -15.6257
  41   2.0000      -0.573059       -15.5937
  42   2.0000      -0.565520       -15.3886
  43   2.0000      -0.546113       -14.8605
  44   2.0000      -0.530788       -14.4435
  45   2.0000      -0.519205       -14.1283
  46   2.0000      -0.515032       -14.0147
  47   2.0000      -0.504621       -13.7314
  48   2.0000      -0.501874       -13.6567
  49   2.0000      -0.498364       -13.5612
  50   2.0000      -0.494628       -13.4595
  51   2.0000      -0.479665       -13.0524
  52   2.0000      -0.478215       -13.0129
  53   2.0000      -0.476591       -12.9687
  54   2.0000      -0.463239       -12.6054
  55   2.0000      -0.451591       -12.2884
  56   2.0000      -0.443348       -12.0641
  57   2.0000      -0.436233       -11.8705
  58   2.0000      -0.434161       -11.8141
  59   2.0000      -0.431357       -11.7378
  60   2.0000      -0.429465       -11.6863
  61   2.0000      -0.417223       -11.3532
  62   2.0000      -0.409294       -11.1375
  63   2.0000      -0.402631       -10.9561
  64   2.0000      -0.373985       -10.1767
  65   2.0000      -0.354384        -9.6433
  66   2.0000      -0.347796        -9.4640
  67   2.0000      -0.342173        -9.3110
  68   2.0000      -0.332474        -9.0471
  69   2.0000      -0.328367        -8.9353
  70   2.0000      -0.322602        -8.7784
  71   2.0000      -0.305879        -8.3234
  72   2.0000      -0.305073        -8.3014
  73   2.0000      -0.294301        -8.0083
  74   2.0000      -0.286073        -7.7844
  75   2.0000      -0.277107        -7.5405
  76   2.0000      -0.271524        -7.3885
  77   0.0000      -0.153519        -4.1775
  78   0.0000      -0.077708        -2.1145
  79   0.0000      -0.029376        -0.7994
  80   0.0000      -0.014551        -0.3959
  81   0.0000       0.059372         1.6156

MULLIKEN ATOMIC CHARGES
-----------------------
   0 Pd:    0.458060
   1 O :   -0.508200
   2 C :    0.572985
   3 O :   -0.394933
   4 C :   -0.756638
   5 H :    0.228149
   6 H :    0.247499
   7 H :    0.244657
   8 N :   -0.492153
   9 C :   -0.549308
  10 H :    0.318571
  11 H :    0.207170
  12 H :    0.266834
  13 C :   -0.563282
  14 H :    0.291582
  15 H :    0.233959
  16 H :    0.292584
  17 C :    0.039917
  18 C :   -0.251324
  19 C :   -0.204121
  20 C :   -0.225890
  21 C :   -0.272237
  22 C :   -0.013111
  23 H :    0.244777
  24 H :    0.266102
  25 H :    0.242114
  26 H :    0.242145
  27 H :    0.094406
  28 C :   -0.312126
  29 H :    0.267768
  30 H :    0.254820
  31 O :   -0.523096
  32 C :    0.546041
  33 O :   -0.457681
  34 C :   -0.749048
  35 H :    0.231150
  36 H :    0.247400
  37 H :    0.234457
Sum of atomic charges:    0.0000000

LOEWDIN ATOMIC CHARGES
----------------------
   0 Pd:   -0.312523
   1 O :   -0.176896
   2 C :    0.101343
   3 O :   -0.157898
   4 C :   -0.387100
   5 H :    0.142135
   6 H :    0.153499
   7 H :    0.142699
   8 N :   -0.053118
   9 C :   -0.247695
  10 H :    0.169616
  11 H :    0.113622
  12 H :    0.146640
  13 C :   -0.237837
  14 H :    0.156981
  15 H :    0.125565
  16 H :    0.160730
  17 C :   -0.051700
  18 C :   -0.114693
  19 C :   -0.117640
  20 C :   -0.115152
  21 C :   -0.113616
  22 C :    0.034363
  23 H :    0.149549
  24 H :    0.162768
  25 H :    0.150279
  26 H :    0.150802
  27 H :    0.109518
  28 C :   -0.095335
  29 H :    0.157586
  30 H :    0.148038
  31 O :   -0.182816
  32 C :    0.115477
  33 O :   -0.269398
  34 C :   -0.390123
  35 H :    0.144297
  36 H :    0.142843
  37 H :    0.145187

  Mayer bond orders larger than 0.100000
B(  0-Pd,  1-O ) :   0.7069 B(  0-Pd,  3-O ) :   0.1508 B(  0-Pd,  8-N ) :   0.4080
B(  0-Pd, 22-C ) :   0.2013 B(  0-Pd, 27-H ) :   0.1318 B(  0-Pd, 31-O ) :   0.6555
B(  1-O ,  2-C ) :   1.2220 B(  2-C ,  3-O ) :   1.8929 B(  2-C ,  4-C ) :   0.9317
B(  4-C ,  5-H ) :   0.9190 B(  4-C ,  6-H ) :   0.9136 B(  4-C ,  7-H ) :   0.9155
B(  8-N ,  9-C ) :   0.9093 B(  8-N , 13-C ) :   0.9128 B(  8-N , 28-C ) :   0.8735
B(  9-C , 10-H ) :   0.8636 B(  9-C , 11-H ) :   0.9019 B(  9-C , 12-H ) :   0.9064
B( 13-C , 14-H ) :   0.8835 B( 13-C , 15-H ) :   0.9000 B( 13-C , 16-H ) :   0.8919
B( 17-C , 18-C ) :   1.3874 B( 17-C , 22-C ) :   1.3591 B( 17-C , 28-C ) :   0.9378
B( 18-C , 19-C ) :   1.4349 B( 18-C , 25-H ) :   0.9047 B( 19-C , 20-C ) :   1.4043
B( 19-C , 26-H ) :   0.9109 B( 20-C , 21-C ) :   1.4049 B( 20-C , 23-H ) :   0.9067
B( 21-C , 22-C ) :   1.4340 B( 21-C , 24-H ) :   0.9027 B( 22-C , 27-H ) :   0.6726
B( 28-C , 29-H ) :   0.8945 B( 28-C , 30-H ) :   0.9120 B( 31-O , 32-C ) :   1.2871
B( 31-O , 33-O ) :   0.1013 B( 32-C , 33-O ) :   1.9147 B( 32-C , 34-C ) :   0.9163
B( 34-C , 35-H ) :   0.9225 B( 34-C , 36-H ) :   0.9093 B( 34-C , 37-H ) :   0.9177

Dispersion correction           -0.026166213
FINAL SINGLE POINT ENERGY      -988.251037513154
Dispersion correction            ... done

DIPOLE MOMENT
-------------
                                X             Y             Z
Electronic contribution:     12.31303      14.52690     -10.36502
Nuclear contribution   :    -14.77585     -15.34842      11.93667
                        -----------------------------------------
Total Dipole Moment    :     -2.46282      -0.82152       1.57165
                        -----------------------------------------
Magnitude (a.u.)       :      3.03488
Magnitude (Debye)      :      7.71405

Rotational constants in cm-1:     0.013389     0.008619     0.006532
Rotational constants in MHz :   401.397014   258.386983   195.835932

                             ****ORCA TERMINATED NORMALLY****
TOTAL RUN TIME: 0 days 0 hours 13 minutes 16 seconds 542 msec
