                         Program Version 5.0.3 -  RELEASE  -
|  1> ! EnGrad PBEh-3c
|  2> %output
|  3> xyzfile=True
|  4> end
|  5> %scf
|  6> maxiter 250
|  7> end
|  8> %output
|  9> Print[P_Hirshfeld] = 1
| 10> end
| 11> % maxcore
| 12> 4000
| 13> *xyz 0 1
| 14> Pd   0.34601705   0.30508418  -0.23334993
| 15> O    1.81896962   1.35353467   0.67257058
| 16> C    1.60194385   2.59281437   0.34534883
| 17> O    0.55063499   2.92547806  -0.17060479
| 18> C    2.71817448   3.57686133   0.62614197
| 19> H    2.23648607   4.44856678   1.05411891
| 20> H    3.17470933   3.85052900  -0.31922054
| 21> H    3.48846089   3.20760846   1.28451344
| 22> N   -1.34024048  -0.72375292  -1.02349002
| 23> C   -1.18165670  -1.88948114  -1.90273974
| 24> H   -0.59439268  -1.66608979  -2.75945704
| 25> H   -2.15724769  -2.27256029  -2.22861675
| 26> H   -0.68556800  -2.73326216  -1.45693199
| 27> C   -2.05455343   0.31053246  -1.79267383
| 28> H   -2.20067683   1.19023019  -1.20682798
| 29> H   -3.04963340  -0.00362165  -2.14136594
| 30> H   -1.47407664   0.57211462  -2.66119750
| 31> C   -1.64552683  -0.98108387   1.45314661
| 32> C   -1.53120933  -2.10344854   2.30533944
| 33> C   -1.26196918  -1.97077144   3.65545753
| 34> C   -1.08271970  -0.69872227   4.19220145
| 35> C   -1.17995695   0.43996544   3.35838723
| 36> C   -1.36661754   0.25673067   2.00377273
| 37> H   -0.91191400  -0.58858972   5.27396175
| 38> H   -1.13722036   1.42933636   3.79492434
| 39> H   -1.55152750  -3.09015048   1.82310127
| 40> H   -0.96738793  -2.86455202   4.21517884
| 41> H   -1.69636088   2.77170481   1.33991320
| 42> C   -2.23288448  -1.14691173   0.10901863
| 43> H   -3.16979209  -0.56155775   0.02070068
| 44> H   -2.50118472  -2.19526154  -0.07367918
| 45> O    1.76265767   0.25304602  -1.68111546
| 46> C    2.20699307  -0.67213024  -2.48330193
| 47> O    1.61361946  -1.67289469  -2.80572359
| 48> C    3.61129361  -0.45312582  -3.04107996
| 49> H    3.93593039  -1.45159692  -3.36407079
| 50> H    4.26864187  -0.04554102  -2.31524613
| 51> H    3.65618401   0.25199074  -3.87459125
| 52> *
| 53>
| 54>                          ****END OF INPUT****

CARTESIAN COORDINATES (ANGSTROEM)
---------------------------------
  Pd     0.346017    0.305084   -0.233350
  O      1.818970    1.353535    0.672571
  C      1.601944    2.592814    0.345349
  O      0.550635    2.925478   -0.170605
  C      2.718174    3.576861    0.626142
  H      2.236486    4.448567    1.054119
  H      3.174709    3.850529   -0.319221
  H      3.488461    3.207608    1.284513
  N     -1.340240   -0.723753   -1.023490
  C     -1.181657   -1.889481   -1.902740
  H     -0.594393   -1.666090   -2.759457
  H     -2.157248   -2.272560   -2.228617
  H     -0.685568   -2.733262   -1.456932
  C     -2.054553    0.310532   -1.792674
  H     -2.200677    1.190230   -1.206828
  H     -3.049633   -0.003622   -2.141366
  H     -1.474077    0.572115   -2.661197
  C     -1.645527   -0.981084    1.453147
  C     -1.531209   -2.103449    2.305339
  C     -1.261969   -1.970771    3.655458
  C     -1.082720   -0.698722    4.192201
  C     -1.179957    0.439965    3.358387
  C     -1.366618    0.256731    2.003773
  H     -0.911914   -0.588590    5.273962
  H     -1.137220    1.429336    3.794924
  H     -1.551527   -3.090150    1.823101
  H     -0.967388   -2.864552    4.215179
  H     -1.696361    2.771705    1.339913
  C     -2.232884   -1.146912    0.109019
  H     -3.169792   -0.561558    0.020701
  H     -2.501185   -2.195262   -0.073679
  O      1.762658    0.253046   -1.681115
  C      2.206993   -0.672130   -2.483302
  O      1.613619   -1.672895   -2.805724
  C      3.611294   -0.453126   -3.041080
  H      3.935930   -1.451597   -3.364071
  H      4.268642   -0.045541   -2.315246
  H      3.656184    0.251991   -3.874591

 Total Charge           Charge          ....    0
 Multiplicity           Mult            ....    1
 Number of Electrons    NEL             ....  154
 Basis Dimension        Dim             ....  339

ORBITAL ENERGIES
----------------

  NO   OCC          E(Eh)            E(eV)
   0   2.0000     -19.476044      -529.9701
   1   2.0000     -19.462555      -529.6031
   2   2.0000     -19.438743      -528.9551
   3   2.0000     -19.422318      -528.5082
   4   2.0000     -14.726198      -400.7202
   5   2.0000     -10.533736      -286.6375
   6   2.0000     -10.533159      -286.6218
   7   2.0000     -10.523801      -286.3672
   8   2.0000     -10.514598      -286.1167
   9   2.0000     -10.507307      -285.9184
  10   2.0000     -10.490711      -285.4668
  11   2.0000     -10.490360      -285.4572
  12   2.0000     -10.489379      -285.4305
  13   2.0000     -10.484363      -285.2940
  14   2.0000     -10.481567      -285.2179
  15   2.0000     -10.465662      -284.7851
  16   2.0000     -10.416024      -283.4344
  17   2.0000     -10.404779      -283.1284
  18   2.0000      -3.662284       -99.6558
  19   2.0000      -2.314162       -62.9715
  20   2.0000      -2.300914       -62.6111
  21   2.0000      -2.273533       -61.8660
  22   2.0000      -1.157361       -31.4934
  23   2.0000      -1.137942       -30.9650
  24   2.0000      -1.082827       -29.4652
  25   2.0000      -1.050742       -28.5921
  26   2.0000      -1.042345       -28.3636
  27   2.0000      -0.997439       -27.1417
  28   2.0000      -0.903194       -24.5772
  29   2.0000      -0.868968       -23.6458
  30   2.0000      -0.822959       -22.3939
  31   2.0000      -0.811507       -22.0822
  32   2.0000      -0.803000       -21.8508
  33   2.0000      -0.786263       -21.3953
  34   2.0000      -0.728286       -19.8177
  35   2.0000      -0.715721       -19.4757
  36   2.0000      -0.685398       -18.6506
  37   2.0000      -0.613308       -16.6890
  38   2.0000      -0.588555       -16.0154
  39   2.0000      -0.582137       -15.8408
  40   2.0000      -0.578964       -15.7544
  41   2.0000      -0.573813       -15.6143
  42   2.0000      -0.566822       -15.4240
  43   2.0000      -0.546904       -14.8820
  44   2.0000      -0.529037       -14.3958
  45   2.0000      -0.515627       -14.0309
  46   2.0000      -0.512173       -13.9369
  47   2.0000      -0.504509       -13.7284
  48   2.0000      -0.498632       -13.5685
  49   2.0000      -0.494280       -13.4500
  50   2.0000      -0.492108       -13.3909
  51   2.0000      -0.479260       -13.0413
  52   2.0000      -0.477988       -13.0067
  53   2.0000      -0.477217       -12.9857
  54   2.0000      -0.464197       -12.6315
  55   2.0000      -0.451848       -12.2954
  56   2.0000      -0.444112       -12.0849
  57   2.0000      -0.437180       -11.8963
  58   2.0000      -0.435100       -11.8397
  59   2.0000      -0.431949       -11.7539
  60   2.0000      -0.429872       -11.6974
  61   2.0000      -0.417085       -11.3495
  62   2.0000      -0.405375       -11.0308
  63   2.0000      -0.403256       -10.9732
  64   2.0000      -0.373208       -10.1555
  65   2.0000      -0.355662        -9.6780
  66   2.0000      -0.349330        -9.5058
  67   2.0000      -0.343727        -9.3533
  68   2.0000      -0.334479        -9.1016
  69   2.0000      -0.329148        -8.9566
  70   2.0000      -0.321953        -8.7608
  71   2.0000      -0.307839        -8.3767
  72   2.0000      -0.305772        -8.3205
  73   2.0000      -0.295874        -8.0511
  74   2.0000      -0.288099        -7.8396
  75   2.0000      -0.275229        -7.4894
  76   2.0000      -0.269977        -7.3464
  77   0.0000      -0.143835        -3.9139
  78   0.0000      -0.077130        -2.0988
  79   0.0000      -0.029092        -0.7916
  80   0.0000      -0.012294        -0.3345
  81   0.0000       0.059153         1.6096

MULLIKEN ATOMIC CHARGES
-----------------------
   0 Pd:    0.484958
   1 O :   -0.504119
   2 C :    0.597260
   3 O :   -0.459621
   4 C :   -0.747478
   5 H :    0.234254
   6 H :    0.251803
   7 H :    0.242986
   8 N :   -0.484298
   9 C :   -0.550910
  10 H :    0.318125
  11 H :    0.206978
  12 H :    0.268526
  13 C :   -0.562928
  14 H :    0.292264
  15 H :    0.232708
  16 H :    0.292710
  17 C :    0.036188
  18 C :   -0.255970
  19 C :   -0.202309
  20 C :   -0.228863
  21 C :   -0.266757
  22 C :   -0.023372
  23 H :    0.243967
  24 H :    0.263130
  25 H :    0.241006
  26 H :    0.241148
  27 H :    0.110055
  28 C :   -0.316051
  29 H :    0.265954
  30 H :    0.256284
  31 O :   -0.526949
  32 C :    0.547681
  33 O :   -0.465274
  34 C :   -0.747092
  35 H :    0.233614
  36 H :    0.246567
  37 H :    0.233825
Sum of atomic charges:    0.0000000

LOEWDIN ATOMIC CHARGES
----------------------
   0 Pd:   -0.300408
   1 O :   -0.165472
   2 C :    0.147111
   3 O :   -0.234601
   4 C :   -0.381321
   5 H :    0.146799
   6 H :    0.157226
   7 H :    0.142398
   8 N :   -0.053607
   9 C :   -0.250207
  10 H :    0.168322
  11 H :    0.112004
  12 H :    0.147719
  13 C :   -0.237130
  14 H :    0.157875
  15 H :    0.123731
  16 H :    0.160761
  17 C :   -0.055219
  18 C :   -0.110905
  19 C :   -0.121332
  20 C :   -0.113458
  21 C :   -0.116275
  22 C :    0.021720
  23 H :    0.149038
  24 H :    0.160122
  25 H :    0.149629
  26 H :    0.150642
  27 H :    0.126383
  28 C :   -0.094077
  29 H :    0.156647
  30 H :    0.147827
  31 O :   -0.178055
  32 C :    0.120618
  33 O :   -0.278491
  34 C :   -0.388461
  35 H :    0.145281
  36 H :    0.142262
  37 H :    0.144904

  Mayer bond orders larger than 0.100000
B(  0-Pd,  1-O ) :   0.6846 B(  0-Pd,  3-O ) :   0.1616 B(  0-Pd,  8-N ) :   0.4147
B(  0-Pd, 22-C ) :   0.1828 B(  0-Pd, 27-H ) :   0.1169 B(  0-Pd, 31-O ) :   0.6535
B(  1-O ,  2-C ) :   1.2558 B(  2-C ,  3-O ) :   1.8013 B(  2-C ,  4-C ) :   0.9394
B(  4-C ,  5-H ) :   0.9178 B(  4-C ,  6-H ) :   0.9113 B(  4-C ,  7-H ) :   0.9129
B(  8-N ,  9-C ) :   0.9164 B(  8-N , 13-C ) :   0.9153 B(  8-N , 28-C ) :   0.8726
B(  9-C , 10-H ) :   0.8651 B(  9-C , 11-H ) :   0.9016 B(  9-C , 12-H ) :   0.9064
B( 13-C , 14-H ) :   0.8839 B( 13-C , 15-H ) :   0.9002 B( 13-C , 16-H ) :   0.8922
B( 17-C , 18-C ) :   1.3778 B( 17-C , 22-C ) :   1.3736 B( 17-C , 28-C ) :   0.9371
B( 18-C , 19-C ) :   1.4446 B( 18-C , 25-H ) :   0.9048 B( 19-C , 20-C ) :   1.4004
B( 19-C , 26-H ) :   0.9110 B( 20-C , 21-C ) :   1.4103 B( 20-C , 23-H ) :   0.9073
B( 21-C , 22-C ) :   1.4355 B( 21-C , 24-H ) :   0.9040 B( 22-C , 27-H ) :   0.6921
B( 28-C , 29-H ) :   0.8949 B( 28-C , 30-H ) :   0.9121 B( 31-O , 32-C ) :   1.2864
B( 31-O , 33-O ) :   0.1003 B( 32-C , 33-O ) :   1.9037 B( 32-C , 34-C ) :   0.9192
B( 34-C , 35-H ) :   0.9231 B( 34-C , 36-H ) :   0.9087 B( 34-C , 37-H ) :   0.9176

Dispersion correction           -0.026302758
FINAL SINGLE POINT ENERGY      -988.277847601935
Dispersion correction            ... done

DIPOLE MOMENT
-------------
                                X             Y             Z
Electronic contribution:     12.72153      14.41861     -10.39778
Nuclear contribution   :    -15.01190     -15.21358      11.99643
                        -----------------------------------------
Total Dipole Moment    :     -2.29038      -0.79497       1.59866
                        -----------------------------------------
Magnitude (a.u.)       :      2.90405
Magnitude (Debye)      :      7.38150

Rotational constants in cm-1:     0.013414     0.008661     0.006577
Rotational constants in MHz :   402.130653   259.657370   197.159854

                             ****ORCA TERMINATED NORMALLY****
TOTAL RUN TIME: 0 days 0 hours 12 minutes 3 seconds 725 msec
