                         Program Version 5.0.3 -  RELEASE  -
|  1> ! EnGrad PBEh-3c
|  2> %output
|  3> xyzfile=True
|  4> end
|  5> %scf
|  6> maxiter 250
|  7> end
|  8> %output
|  9> Print[P_Hirshfeld] = 1
| 10> end
| 11> % maxcore
| 12> 4000
| 13> *xyz 0 1
| 14> Pd   0.34265486   0.29926885  -0.23481093
| 15> O    1.77701712   1.32349186   0.67966323
| 16> C    1.58205678   2.57444690   0.36170476
| 17> O    0.52599886   2.95728084  -0.17474343
| 18> C    2.69805553   3.57748953   0.62432448
| 19> H    2.22208478   4.46129357   1.06304852
| 20> H    3.16397816   3.83587393  -0.33516127
| 21> H    3.45798053   3.17435318   1.28028720
| 22> N   -1.35710705  -0.72100184  -1.04764133
| 23> C   -1.17632538  -1.87002861  -1.90760390
| 24> H   -0.60978871  -1.65132064  -2.77367227
| 25> H   -2.12866195  -2.23210974  -2.23937934
| 26> H   -0.67534153  -2.71077332  -1.47306186
| 27> C   -2.05154654   0.32971258  -1.78874422
| 28> H   -2.21470234   1.20029006  -1.17928690
| 29> H   -3.03020262   0.00646210  -2.12732197
| 30> H   -1.48516847   0.61392880  -2.65638929
| 31> C   -1.60889028  -0.94495577   1.43742726
| 32> C   -1.47410692  -2.07204573   2.28661096
| 33> C   -1.23685664  -1.95134677   3.64398525
| 34> C   -1.08958075  -0.67756889   4.18503924
| 35> C   -1.18164377   0.44652535   3.34206248
| 36> C   -1.41038474   0.30742317   1.99225348
| 37> H   -0.94071049  -0.57838083   5.26865580
| 38> H   -1.09657007   1.42053918   3.78167984
| 39> H   -1.49799963  -3.05888570   1.80735797
| 40> H   -0.91225148  -2.84349435   4.18713770
| 41> H   -1.66050250   2.51497841   1.36562929
| 42> C   -2.22100047  -1.13412770   0.10336573
| 43> H   -3.18303307  -0.59436358  -0.00663792
| 44> H   -2.46878903  -2.17893429  -0.06553684
| 45> O    1.71862924   0.25892519  -1.66898612
| 46> C    2.18627001  -0.65866059  -2.46722225
| 47> O    1.61212462  -1.67545015  -2.77087033
| 48> C    3.59822409  -0.48106875  -3.02854153
| 49> H    3.95490150  -1.47576978  -3.34036550
| 50> H    4.23868920  -0.07562653  -2.27124080
| 51> H    3.65809274   0.21881988  -3.86390308
| 52> *
| 53>
| 54>                          ****END OF INPUT****

CARTESIAN COORDINATES (ANGSTROEM)
---------------------------------
  Pd     0.342655    0.299269   -0.234811
  O      1.777017    1.323492    0.679663
  C      1.582057    2.574447    0.361705
  O      0.525999    2.957281   -0.174743
  C      2.698056    3.577490    0.624324
  H      2.222085    4.461294    1.063049
  H      3.163978    3.835874   -0.335161
  H      3.457981    3.174353    1.280287
  N     -1.357107   -0.721002   -1.047641
  C     -1.176325   -1.870029   -1.907604
  H     -0.609789   -1.651321   -2.773672
  H     -2.128662   -2.232110   -2.239379
  H     -0.675342   -2.710773   -1.473062
  C     -2.051547    0.329713   -1.788744
  H     -2.214702    1.200290   -1.179287
  H     -3.030203    0.006462   -2.127322
  H     -1.485168    0.613929   -2.656389
  C     -1.608890   -0.944956    1.437427
  C     -1.474107   -2.072046    2.286611
  C     -1.236857   -1.951347    3.643985
  C     -1.089581   -0.677569    4.185039
  C     -1.181644    0.446525    3.342062
  C     -1.410385    0.307423    1.992253
  H     -0.940710   -0.578381    5.268656
  H     -1.096570    1.420539    3.781680
  H     -1.498000   -3.058886    1.807358
  H     -0.912251   -2.843494    4.187138
  H     -1.660502    2.514978    1.365629
  C     -2.221000   -1.134128    0.103366
  H     -3.183033   -0.594364   -0.006638
  H     -2.468789   -2.178934   -0.065537
  O      1.718629    0.258925   -1.668986
  C      2.186270   -0.658661   -2.467222
  O      1.612125   -1.675450   -2.770870
  C      3.598224   -0.481069   -3.028542
  H      3.954902   -1.475770   -3.340365
  H      4.238689   -0.075627   -2.271241
  H      3.658093    0.218820   -3.863903

 Total Charge           Charge          ....    0
 Multiplicity           Mult            ....    1
 Number of Electrons    NEL             ....  154
 Basis Dimension        Dim             ....  339

ORBITAL ENERGIES
----------------

  NO   OCC          E(Eh)            E(eV)
   0   2.0000     -19.482590      -530.1482
   1   2.0000     -19.464706      -529.6616
   2   2.0000     -19.438428      -528.9465
   3   2.0000     -19.421114      -528.4754
   4   2.0000     -14.722002      -400.6060
   5   2.0000     -10.539705      -286.7999
   6   2.0000     -10.532358      -286.6000
   7   2.0000     -10.525103      -286.4026
   8   2.0000     -10.511886      -286.0430
   9   2.0000     -10.506292      -285.8907
  10   2.0000     -10.489174      -285.4249
  11   2.0000     -10.486892      -285.3628
  12   2.0000     -10.484109      -285.2871
  13   2.0000     -10.482253      -285.2366
  14   2.0000     -10.480028      -285.1761
  15   2.0000     -10.459554      -284.6189
  16   2.0000     -10.421198      -283.5752
  17   2.0000     -10.407814      -283.2110
  18   2.0000      -3.663470       -99.6881
  19   2.0000      -2.315454       -63.0067
  20   2.0000      -2.303207       -62.6734
  21   2.0000      -2.274128       -61.8822
  22   2.0000      -1.149422       -31.2774
  23   2.0000      -1.139748       -31.0141
  24   2.0000      -1.087220       -29.5848
  25   2.0000      -1.048079       -28.5197
  26   2.0000      -1.043569       -28.3969
  27   2.0000      -0.996194       -27.1078
  28   2.0000      -0.902332       -24.5537
  29   2.0000      -0.868409       -23.6306
  30   2.0000      -0.827053       -22.5053
  31   2.0000      -0.812600       -22.1120
  32   2.0000      -0.800489       -21.7824
  33   2.0000      -0.785958       -21.3870
  34   2.0000      -0.727479       -19.7957
  35   2.0000      -0.714674       -19.4473
  36   2.0000      -0.685805       -18.6617
  37   2.0000      -0.614037       -16.7088
  38   2.0000      -0.592190       -16.1143
  39   2.0000      -0.585503       -15.9323
  40   2.0000      -0.581986       -15.8367
  41   2.0000      -0.575307       -15.6549
  42   2.0000      -0.567227       -15.4350
  43   2.0000      -0.547849       -14.9077
  44   2.0000      -0.528698       -14.3866
  45   2.0000      -0.515540       -14.0286
  46   2.0000      -0.510819       -13.9001
  47   2.0000      -0.504011       -13.7148
  48   2.0000      -0.498164       -13.5557
  49   2.0000      -0.493293       -13.4232
  50   2.0000      -0.490520       -13.3477
  51   2.0000      -0.480651       -13.0792
  52   2.0000      -0.479187       -13.0394
  53   2.0000      -0.477942       -13.0055
  54   2.0000      -0.464534       -12.6406
  55   2.0000      -0.451803       -12.2942
  56   2.0000      -0.444227       -12.0880
  57   2.0000      -0.439106       -11.9487
  58   2.0000      -0.435586       -11.8529
  59   2.0000      -0.432984       -11.7821
  60   2.0000      -0.426511       -11.6060
  61   2.0000      -0.419170       -11.4062
  62   2.0000      -0.408280       -11.1099
  63   2.0000      -0.398895       -10.8545
  64   2.0000      -0.374599       -10.1934
  65   2.0000      -0.358717        -9.7612
  66   2.0000      -0.349732        -9.5167
  67   2.0000      -0.343552        -9.3485
  68   2.0000      -0.334628        -9.1057
  69   2.0000      -0.329194        -8.9578
  70   2.0000      -0.326341        -8.8802
  71   2.0000      -0.316721        -8.6184
  72   2.0000      -0.304740        -8.2924
  73   2.0000      -0.301729        -8.2105
  74   2.0000      -0.289286        -7.8719
  75   2.0000      -0.273440        -7.4407
  76   2.0000      -0.270315        -7.3556
  77   0.0000      -0.121169        -3.2972
  78   0.0000      -0.073872        -2.0102
  79   0.0000      -0.028979        -0.7886
  80   0.0000      -0.009740        -0.2650
  81   0.0000       0.060048         1.6340

MULLIKEN ATOMIC CHARGES
-----------------------
   0 Pd:    0.519888
   1 O :   -0.511014
   2 C :    0.604282
   3 O :   -0.480216
   4 C :   -0.738932
   5 H :    0.235404
   6 H :    0.251627
   7 H :    0.238453
   8 N :   -0.476949
   9 C :   -0.554694
  10 H :    0.315480
  11 H :    0.209972
  12 H :    0.270861
  13 C :   -0.561746
  14 H :    0.287449
  15 H :    0.233049
  16 H :    0.293283
  17 C :    0.010796
  18 C :   -0.258869
  19 C :   -0.204784
  20 C :   -0.229412
  21 C :   -0.243993
  22 C :   -0.054648
  23 H :    0.243595
  24 H :    0.256762
  25 H :    0.239893
  26 H :    0.240055
  27 H :    0.142186
  28 C :   -0.316788
  29 H :    0.263834
  30 H :    0.258555
  31 O :   -0.535777
  32 C :    0.547811
  33 O :   -0.463327
  34 C :   -0.744398
  35 H :    0.237082
  36 H :    0.241763
  37 H :    0.233471
Sum of atomic charges:    0.0000000

LOEWDIN ATOMIC CHARGES
----------------------
   0 Pd:   -0.290017
   1 O :   -0.163785
   2 C :    0.168610
   3 O :   -0.265351
   4 C :   -0.378809
   5 H :    0.148181
   6 H :    0.158401
   7 H :    0.140514
   8 N :   -0.054384
   9 C :   -0.253839
  10 H :    0.166707
  11 H :    0.110950
  12 H :    0.149575
  13 C :   -0.235925
  14 H :    0.157956
  15 H :    0.121896
  16 H :    0.160692
  17 C :   -0.055850
  18 C :   -0.108892
  19 C :   -0.122687
  20 C :   -0.112540
  21 C :   -0.119395
  22 C :   -0.006022
  23 H :    0.148632
  24 H :    0.155186
  25 H :    0.148875
  26 H :    0.150231
  27 H :    0.157844
  28 C :   -0.094057
  29 H :    0.154608
  30 H :    0.147307
  31 O :   -0.175445
  32 C :    0.122283
  33 O :   -0.276331
  34 C :   -0.386577
  35 H :    0.145480
  36 H :    0.142016
  37 H :    0.143963

  Mayer bond orders larger than 0.100000
B(  0-Pd,  1-O ) :   0.6788 B(  0-Pd,  3-O ) :   0.1610 B(  0-Pd,  8-N ) :   0.4158
B(  0-Pd, 22-C ) :   0.1488 B(  0-Pd, 31-O ) :   0.6548 B(  1-O ,  2-C ) :   1.2568
B(  2-C ,  3-O ) :   1.7765 B(  2-C ,  4-C ) :   0.9385 B(  4-C ,  5-H ) :   0.9184
B(  4-C ,  6-H ) :   0.9116 B(  4-C ,  7-H ) :   0.9121 B(  8-N ,  9-C ) :   0.9245
B(  8-N , 13-C ) :   0.9193 B(  8-N , 28-C ) :   0.8738 B(  9-C , 10-H ) :   0.8690
B(  9-C , 11-H ) :   0.8998 B(  9-C , 12-H ) :   0.9066 B( 13-C , 14-H ) :   0.8873
B( 13-C , 15-H ) :   0.8993 B( 13-C , 16-H ) :   0.8924 B( 17-C , 18-C ) :   1.3762
B( 17-C , 22-C ) :   1.3864 B( 17-C , 28-C ) :   0.9384 B( 18-C , 19-C ) :   1.4551
B( 18-C , 25-H ) :   0.9056 B( 19-C , 20-C ) :   1.3934 B( 19-C , 26-H ) :   0.9111
B( 20-C , 21-C ) :   1.4243 B( 20-C , 23-H ) :   0.9084 B( 21-C , 22-C ) :   1.4272
B( 21-C , 24-H ) :   0.9064 B( 22-C , 27-H ) :   0.7442 B( 28-C , 29-H ) :   0.8954
B( 28-C , 30-H ) :   0.9119 B( 31-O , 32-C ) :   1.2763 B( 32-C , 33-O ) :   1.9030
B( 32-C , 34-C ) :   0.9217 B( 34-C , 35-H ) :   0.9228 B( 34-C , 36-H ) :   0.9102
B( 34-C , 37-H ) :   0.9172

Dispersion correction           -0.026586294
FINAL SINGLE POINT ENERGY      -988.307581393496
Dispersion correction            ... done

DIPOLE MOMENT
-------------
                                X             Y             Z
Electronic contribution:     12.75985      14.03381     -10.53446
Nuclear contribution   :    -14.95338     -14.81282      12.08125
                        -----------------------------------------
Total Dipole Moment    :     -2.19353      -0.77900       1.54679
                        -----------------------------------------
Magnitude (a.u.)       :      2.79481
Magnitude (Debye)      :      7.10384

Rotational constants in cm-1:     0.013472     0.008757     0.006662
Rotational constants in MHz :   403.878154   262.537118   199.736655

                             ****ORCA TERMINATED NORMALLY****
TOTAL RUN TIME: 0 days 0 hours 11 minutes 7 seconds 730 msec
