                         Program Version 5.0.3 -  RELEASE  -
|  1> ! EnGrad PBEh-3c
|  2> %output
|  3> xyzfile=True
|  4> end
|  5> %scf
|  6> maxiter 250
|  7> end
|  8> %output
|  9> Print[P_Hirshfeld] = 1
| 10> end
| 11> % maxcore
| 12> 4000
| 13> *xyz 0 1
| 14> Pd   0.36220016   0.29731979  -0.20954195
| 15> O    1.76302561   1.30628835   0.67143397
| 16> C    1.56517920   2.55625367   0.36181644
| 17> O    0.52480762   2.97479091  -0.17199334
| 18> C    2.68697131   3.57368486   0.62506231
| 19> H    2.22851185   4.47538650   1.06504174
| 20> H    3.16297058   3.84039371  -0.33773901
| 21> H    3.45536486   3.17016679   1.28323620
| 22> N   -1.37856874  -0.72743895  -1.05727937
| 23> C   -1.17499260  -1.88315837  -1.91902795
| 24> H   -0.60481538  -1.63989494  -2.78661532
| 25> H   -2.13655608  -2.22058542  -2.23958884
| 26> H   -0.66550756  -2.70795973  -1.44939567
| 27> C   -2.05169990   0.33861133  -1.79738242
| 28> H   -2.21395060   1.21419776  -1.16971749
| 29> H   -3.02327696  -0.00560199  -2.12496939
| 30> H   -1.47661654   0.61841059  -2.66713505
| 31> C   -1.61420739  -0.93237605   1.44208891
| 32> C   -1.45584210  -2.06310117   2.27616929
| 33> C   -1.19831188  -1.94992641   3.62972324
| 34> C   -1.10149223  -0.67344531   4.17948652
| 35> C   -1.17215907   0.44140647   3.35029149
| 36> C   -1.42526841   0.34227041   1.99581192
| 37> H   -0.94129296  -0.57227953   5.24893837
| 38> H   -1.08401460   1.41291112   3.77764626
| 39> H   -1.51267947  -3.05599391   1.81936774
| 40> H   -0.93661448  -2.83208613   4.19084791
| 41> H   -1.63854165   2.43407465   1.36708299
| 42> C   -2.22302835  -1.13062511   0.08857865
| 43> H   -3.17445622  -0.60286182   0.00491135
| 44> H   -2.47473903  -2.17238859  -0.05584748
| 45> O    1.72465918   0.26325726  -1.67629285
| 46> C    2.16619178  -0.66566262  -2.46600206
| 47> O    1.61069232  -1.68989090  -2.76619949
| 48> C    3.59407470  -0.47801661  -3.02451327
| 49> H    3.96900308  -1.46096479  -3.34721905
| 50> H    4.25006054  -0.07534031  -2.25507511
| 51> H    3.64384203   0.21328503  -3.86833537
| 52> *
| 53>
| 54>                          ****END OF INPUT****

CARTESIAN COORDINATES (ANGSTROEM)
---------------------------------
  Pd     0.362200    0.297320   -0.209542
  O      1.763026    1.306288    0.671434
  C      1.565179    2.556254    0.361816
  O      0.524808    2.974791   -0.171993
  C      2.686971    3.573685    0.625062
  H      2.228512    4.475386    1.065042
  H      3.162971    3.840394   -0.337739
  H      3.455365    3.170167    1.283236
  N     -1.378569   -0.727439   -1.057279
  C     -1.174993   -1.883158   -1.919028
  H     -0.604815   -1.639895   -2.786615
  H     -2.136556   -2.220585   -2.239589
  H     -0.665508   -2.707960   -1.449396
  C     -2.051700    0.338611   -1.797382
  H     -2.213951    1.214198   -1.169717
  H     -3.023277   -0.005602   -2.124969
  H     -1.476617    0.618411   -2.667135
  C     -1.614207   -0.932376    1.442089
  C     -1.455842   -2.063101    2.276169
  C     -1.198312   -1.949926    3.629723
  C     -1.101492   -0.673445    4.179487
  C     -1.172159    0.441406    3.350291
  C     -1.425268    0.342270    1.995812
  H     -0.941293   -0.572280    5.248938
  H     -1.084015    1.412911    3.777646
  H     -1.512679   -3.055994    1.819368
  H     -0.936614   -2.832086    4.190848
  H     -1.638542    2.434075    1.367083
  C     -2.223028   -1.130625    0.088579
  H     -3.174456   -0.602862    0.004911
  H     -2.474739   -2.172389   -0.055847
  O      1.724659    0.263257   -1.676293
  C      2.166192   -0.665663   -2.466002
  O      1.610692   -1.689891   -2.766199
  C      3.594075   -0.478017   -3.024513
  H      3.969003   -1.460965   -3.347219
  H      4.250061   -0.075340   -2.255075
  H      3.643842    0.213285   -3.868335

 Total Charge           Charge          ....    0
 Multiplicity           Mult            ....    1
 Number of Electrons    NEL             ....  154
 Basis Dimension        Dim             ....  339

ORBITAL ENERGIES
----------------

  NO   OCC          E(Eh)            E(eV)
   0   2.0000     -19.491060      -530.3787
   1   2.0000     -19.466585      -529.7127
   2   2.0000     -19.442785      -529.0651
   3   2.0000     -19.423170      -528.5313
   4   2.0000     -14.717201      -400.4754
   5   2.0000     -10.544746      -286.9371
   6   2.0000     -10.533381      -286.6279
   7   2.0000     -10.526056      -286.4286
   8   2.0000     -10.507872      -285.9337
   9   2.0000     -10.507543      -285.9248
  10   2.0000     -10.487471      -285.3786
  11   2.0000     -10.482783      -285.2510
  12   2.0000     -10.481443      -285.2146
  13   2.0000     -10.480842      -285.1982
  14   2.0000     -10.480645      -285.1929
  15   2.0000     -10.461167      -284.6628
  16   2.0000     -10.424647      -283.6691
  17   2.0000     -10.407677      -283.2073
  18   2.0000      -3.664797       -99.7242
  19   2.0000      -2.317552       -63.0638
  20   2.0000      -2.304003       -62.6951
  21   2.0000      -2.275717       -61.9254
  22   2.0000      -1.156696       -31.4753
  23   2.0000      -1.142192       -31.0806
  24   2.0000      -1.084731       -29.5170
  25   2.0000      -1.057413       -28.7737
  26   2.0000      -1.049164       -28.5492
  27   2.0000      -0.994197       -27.0535
  28   2.0000      -0.899802       -24.4849
  29   2.0000      -0.868514       -23.6335
  30   2.0000      -0.824932       -22.4475
  31   2.0000      -0.812465       -22.1083
  32   2.0000      -0.796557       -21.6754
  33   2.0000      -0.779874       -21.2215
  34   2.0000      -0.724427       -19.7127
  35   2.0000      -0.712275       -19.3820
  36   2.0000      -0.686362       -18.6769
  37   2.0000      -0.614507       -16.7216
  38   2.0000      -0.597275       -16.2527
  39   2.0000      -0.587591       -15.9892
  40   2.0000      -0.579904       -15.7800
  41   2.0000      -0.574228       -15.6255
  42   2.0000      -0.566379       -15.4120
  43   2.0000      -0.544151       -14.8071
  44   2.0000      -0.530105       -14.4249
  45   2.0000      -0.516826       -14.0635
  46   2.0000      -0.513055       -13.9609
  47   2.0000      -0.503700       -13.7064
  48   2.0000      -0.501679       -13.6514
  49   2.0000      -0.493167       -13.4198
  50   2.0000      -0.490073       -13.3356
  51   2.0000      -0.481502       -13.1023
  52   2.0000      -0.479944       -13.0600
  53   2.0000      -0.479167       -13.0388
  54   2.0000      -0.463912       -12.6237
  55   2.0000      -0.451406       -12.2834
  56   2.0000      -0.444696       -12.1008
  57   2.0000      -0.439990       -11.9727
  58   2.0000      -0.436566       -11.8796
  59   2.0000      -0.432474       -11.7682
  60   2.0000      -0.424668       -11.5558
  61   2.0000      -0.419532       -11.4160
  62   2.0000      -0.408506       -11.1160
  63   2.0000      -0.397411       -10.8141
  64   2.0000      -0.376461       -10.2440
  65   2.0000      -0.360441        -9.8081
  66   2.0000      -0.351091        -9.5537
  67   2.0000      -0.345502        -9.4016
  68   2.0000      -0.337545        -9.1851
  69   2.0000      -0.333039        -9.0624
  70   2.0000      -0.328935        -8.9508
  71   2.0000      -0.319549        -8.6954
  72   2.0000      -0.307513        -8.3679
  73   2.0000      -0.304398        -8.2831
  74   2.0000      -0.292493        -7.9591
  75   2.0000      -0.276552        -7.5254
  76   2.0000      -0.272160        -7.4059
  77   0.0000      -0.111527        -3.0348
  78   0.0000      -0.074232        -2.0199
  79   0.0000      -0.026848        -0.7306
  80   0.0000      -0.008327        -0.2266
  81   0.0000       0.058153         1.5824

MULLIKEN ATOMIC CHARGES
-----------------------
   0 Pd:    0.529069
   1 O :   -0.513656
   2 C :    0.606648
   3 O :   -0.474439
   4 C :   -0.738559
   5 H :    0.235038
   6 H :    0.250430
   7 H :    0.234498
   8 N :   -0.471186
   9 C :   -0.542372
  10 H :    0.309909
  11 H :    0.208103
  12 H :    0.267308
  13 C :   -0.552405
  14 H :    0.280526
  15 H :    0.230637
  16 H :    0.289402
  17 C :   -0.006877
  18 C :   -0.255686
  19 C :   -0.205887
  20 C :   -0.226662
  21 C :   -0.228486
  22 C :   -0.085864
  23 H :    0.242684
  24 H :    0.253530
  25 H :    0.237346
  26 H :    0.243421
  27 H :    0.159130
  28 C :   -0.311597
  29 H :    0.263229
  30 H :    0.256563
  31 O :   -0.529600
  32 C :    0.545199
  33 O :   -0.458969
  34 C :   -0.742725
  35 H :    0.234951
  36 H :    0.236274
  37 H :    0.231072
Sum of atomic charges:   -0.0000000

LOEWDIN ATOMIC CHARGES
----------------------
   0 Pd:   -0.279970
   1 O :   -0.150168
   2 C :    0.171434
   3 O :   -0.261567
   4 C :   -0.379181
   5 H :    0.147056
   6 H :    0.157676
   7 H :    0.138254
   8 N :   -0.065083
   9 C :   -0.247516
  10 H :    0.166113
  11 H :    0.110078
  12 H :    0.149762
  13 C :   -0.233590
  14 H :    0.157524
  15 H :    0.120541
  16 H :    0.159957
  17 C :   -0.049715
  18 C :   -0.112092
  19 C :   -0.117361
  20 C :   -0.115673
  21 C :   -0.119827
  22 C :   -0.023814
  23 H :    0.147745
  24 H :    0.153059
  25 H :    0.148517
  26 H :    0.148564
  27 H :    0.172342
  28 C :   -0.100776
  29 H :    0.152421
  30 H :    0.145588
  31 O :   -0.174017
  32 C :    0.119125
  33 O :   -0.271505
  34 C :   -0.388610
  35 H :    0.142071
  36 H :    0.140620
  37 H :    0.142016

  Mayer bond orders larger than 0.100000
B(  0-Pd,  1-O ) :   0.6884 B(  0-Pd,  3-O ) :   0.1571 B(  0-Pd,  8-N ) :   0.4047
B(  0-Pd, 22-C ) :   0.1405 B(  0-Pd, 31-O ) :   0.6495 B(  1-O ,  2-C ) :   1.2466
B(  2-C ,  3-O ) :   1.7859 B(  2-C ,  4-C ) :   0.9342 B(  4-C ,  5-H ) :   0.9189
B(  4-C ,  6-H ) :   0.9119 B(  4-C ,  7-H ) :   0.9124 B(  8-N ,  9-C ) :   0.9209
B(  8-N , 13-C ) :   0.9212 B(  8-N , 28-C ) :   0.8835 B(  9-C , 10-H ) :   0.8722
B(  9-C , 11-H ) :   0.9001 B(  9-C , 12-H ) :   0.9087 B( 13-C , 14-H ) :   0.8910
B( 13-C , 15-H ) :   0.9000 B( 13-C , 16-H ) :   0.8944 B( 17-C , 18-C ) :   1.3831
B( 17-C , 22-C ) :   1.3874 B( 17-C , 28-C ) :   0.9415 B( 18-C , 19-C ) :   1.4591
B( 18-C , 25-H ) :   0.9072 B( 19-C , 20-C ) :   1.3974 B( 19-C , 26-H ) :   0.9097
B( 20-C , 21-C ) :   1.4346 B( 20-C , 23-H ) :   0.9092 B( 21-C , 22-C ) :   1.4143
B( 21-C , 24-H ) :   0.9075 B( 22-C , 27-H ) :   0.7677 B( 28-C , 29-H ) :   0.8960
B( 28-C , 30-H ) :   0.9120 B( 31-O , 32-C ) :   1.2853 B( 32-C , 33-O ) :   1.9071
B( 32-C , 34-C ) :   0.9142 B( 34-C , 35-H ) :   0.9223 B( 34-C , 36-H ) :   0.9138
B( 34-C , 37-H ) :   0.9182

Dispersion correction           -0.026631424
FINAL SINGLE POINT ENERGY      -988.326387363707
Dispersion correction            ... done

DIPOLE MOMENT
-------------
                                X             Y             Z
Electronic contribution:     13.82970      13.97236      -9.10186
Nuclear contribution   :    -16.02808     -14.71108      10.69672
                        -----------------------------------------
Total Dipole Moment    :     -2.19838      -0.73872       1.59485
                        -----------------------------------------
Magnitude (a.u.)       :      2.81463
Magnitude (Debye)      :      7.15422

Rotational constants in cm-1:     0.013447     0.008783     0.006679
Rotational constants in MHz :   403.138080   263.293031   200.234691

                             ****ORCA TERMINATED NORMALLY****
TOTAL RUN TIME: 0 days 0 hours 11 minutes 19 seconds 118 msec
