                         Program Version 5.0.3 -  RELEASE  -
|  1> ! EnGrad PBEh-3c
|  2> %output
|  3> xyzfile=True
|  4> end
|  5> %scf
|  6> maxiter 250
|  7> end
|  8> %output
|  9> Print[P_Hirshfeld] = 1
| 10> end
| 11> % maxcore
| 12> 4000
| 13> *xyz 0 1
| 14> Pd   0.44370340   0.17396720  -0.21755890
| 15> O    1.99741632   1.26589571   0.63873752
| 16> C    1.62079327   2.65450469   0.29056802
| 17> O    0.73426981   2.89533136  -0.13923574
| 18> C    2.80841770   3.63305996   0.64407112
| 19> H    2.33469638   4.53644688   1.06229273
| 20> H    3.24949230   3.94155471  -0.30229811
| 21> H    3.56884631   3.28386561   1.30028196
| 22> N   -1.39302845  -0.80831282  -1.02824172
| 23> C   -1.19071367  -2.00397178  -1.82308201
| 24> H   -0.61142680  -1.80337715  -2.68264513
| 25> H   -2.15772237  -2.35312191  -2.19467011
| 26> H   -0.71705389  -2.75786482  -1.22061030
| 27> C   -2.00782699   0.22754504  -1.86341419
| 28> H   -2.10843973   1.15568430  -1.36212558
| 29> H   -2.98958827  -0.13881398  -2.18280662
| 30> H   -1.40560879   0.35998451  -2.75861536
| 31> C   -1.63170259  -1.07400011   1.46188599
| 32> C   -1.58740215  -2.20253294   2.35391992
| 33> C   -1.29663195  -2.02825040   3.67877567
| 34> C   -1.01801216  -0.79392868   4.17435336
| 35> C   -1.16378283   0.34487837   3.35138497
| 36> C   -1.41002562   0.13023758   2.02679994
| 37> H   -0.78227268  -0.64831167   5.23540316
| 38> H   -1.13420700   1.28697709   3.83594956
| 39> H   -2.06055995  -3.12801378   2.06882457
| 40> H   -1.46728372  -2.85734662   4.38361581
| 41> H   -1.70705308   3.57478565   1.20920572
| 42> C   -2.29917308  -1.15165485   0.16487342
| 43> H   -3.15778131  -0.46207318   0.17495279
| 44> H   -2.78147667  -2.12331218   0.00676479
| 45> O    1.68481575   0.28963592  -1.78148023
| 46> C    2.27736447  -0.67725165  -2.51658696
| 47> O    1.83419213  -1.69266923  -2.68665159
| 48> C    3.63711571  -0.29857970  -3.17284534
| 49> H    4.07333833  -1.20712580  -3.63681627
| 50> H    4.34437058   0.06976969  -2.49547125
| 51> H    3.46860661   0.38590177  -3.99896993
| 52> *
| 53>
| 54>                          ****END OF INPUT****

CARTESIAN COORDINATES (ANGSTROEM)
---------------------------------
  Pd     0.443703    0.173967   -0.217559
  O      1.997416    1.265896    0.638738
  C      1.620793    2.654505    0.290568
  O      0.734270    2.895331   -0.139236
  C      2.808418    3.633060    0.644071
  H      2.334696    4.536447    1.062293
  H      3.249492    3.941555   -0.302298
  H      3.568846    3.283866    1.300282
  N     -1.393028   -0.808313   -1.028242
  C     -1.190714   -2.003972   -1.823082
  H     -0.611427   -1.803377   -2.682645
  H     -2.157722   -2.353122   -2.194670
  H     -0.717054   -2.757865   -1.220610
  C     -2.007827    0.227545   -1.863414
  H     -2.108440    1.155684   -1.362126
  H     -2.989588   -0.138814   -2.182807
  H     -1.405609    0.359985   -2.758615
  C     -1.631703   -1.074000    1.461886
  C     -1.587402   -2.202533    2.353920
  C     -1.296632   -2.028250    3.678776
  C     -1.018012   -0.793929    4.174353
  C     -1.163783    0.344878    3.351385
  C     -1.410026    0.130238    2.026800
  H     -0.782273   -0.648312    5.235403
  H     -1.134207    1.286977    3.835950
  H     -2.060560   -3.128014    2.068825
  H     -1.467284   -2.857347    4.383616
  H     -1.707053    3.574786    1.209206
  C     -2.299173   -1.151655    0.164873
  H     -3.157781   -0.462073    0.174953
  H     -2.781477   -2.123312    0.006765
  O      1.684816    0.289636   -1.781480
  C      2.277364   -0.677252   -2.516587
  O      1.834192   -1.692669   -2.686652
  C      3.637116   -0.298580   -3.172845
  H      4.073338   -1.207126   -3.636816
  H      4.344371    0.069770   -2.495471
  H      3.468607    0.385902   -3.998970

 Total Charge           Charge          ....    0
 Multiplicity           Mult            ....    1
 Number of Electrons    NEL             ....  154
 Basis Dimension        Dim             ....  339

ORBITAL ENERGIES
----------------

  NO   OCC          E(Eh)            E(eV)
   0   2.0000     -19.476770      -529.9898
   1   2.0000     -19.449080      -529.2364
   2   2.0000     -19.444501      -529.1118
   3   2.0000     -19.433657      -528.8167
   4   2.0000     -14.713829      -400.3837
   5   2.0000     -10.529582      -286.5245
   6   2.0000     -10.523696      -286.3643
   7   2.0000     -10.520184      -286.2687
   8   2.0000     -10.514213      -286.1063
   9   2.0000     -10.508011      -285.9375
  10   2.0000     -10.493226      -285.5352
  11   2.0000     -10.490217      -285.4533
  12   2.0000     -10.489132      -285.4238
  13   2.0000     -10.481172      -285.2072
  14   2.0000     -10.477812      -285.1158
  15   2.0000     -10.466138      -284.7981
  16   2.0000     -10.414024      -283.3800
  17   2.0000     -10.404853      -283.1304
  18   2.0000      -3.647283       -99.2476
  19   2.0000      -2.294332       -62.4319
  20   2.0000      -2.289459       -62.2993
  21   2.0000      -2.260061       -61.4994
  22   2.0000      -1.273813       -34.6622
  23   2.0000      -1.178677       -32.0734
  24   2.0000      -1.071550       -29.1584
  25   2.0000      -1.032513       -28.0961
  26   2.0000      -1.007340       -27.4111
  27   2.0000      -0.992045       -26.9949
  28   2.0000      -0.912350       -24.8263
  29   2.0000      -0.875845       -23.8329
  30   2.0000      -0.820797       -22.3350
  31   2.0000      -0.814705       -22.1693
  32   2.0000      -0.788040       -21.4437
  33   2.0000      -0.782324       -21.2881
  34   2.0000      -0.727078       -19.7848
  35   2.0000      -0.719615       -19.5817
  36   2.0000      -0.681853       -18.5542
  37   2.0000      -0.616397       -16.7730
  38   2.0000      -0.580295       -15.7906
  39   2.0000      -0.577401       -15.7119
  40   2.0000      -0.573414       -15.6034
  41   2.0000      -0.570535       -15.5250
  42   2.0000      -0.565924       -15.3996
  43   2.0000      -0.547898       -14.9090
  44   2.0000      -0.543752       -14.7962
  45   2.0000      -0.534719       -14.5504
  46   2.0000      -0.532087       -14.4788
  47   2.0000      -0.512841       -13.9551
  48   2.0000      -0.509857       -13.8739
  49   2.0000      -0.507628       -13.8133
  50   2.0000      -0.491957       -13.3868
  51   2.0000      -0.489398       -13.3172
  52   2.0000      -0.485929       -13.2228
  53   2.0000      -0.482991       -13.1429
  54   2.0000      -0.467061       -12.7094
  55   2.0000      -0.451048       -12.2736
  56   2.0000      -0.449345       -12.2273
  57   2.0000      -0.441129       -12.0037
  58   2.0000      -0.440345       -11.9824
  59   2.0000      -0.435707       -11.8562
  60   2.0000      -0.426052       -11.5935
  61   2.0000      -0.422491       -11.4966
  62   2.0000      -0.415410       -11.3039
  63   2.0000      -0.388081       -10.5602
  64   2.0000      -0.376133       -10.2351
  65   2.0000      -0.357738        -9.7345
  66   2.0000      -0.343465        -9.3461
  67   2.0000      -0.336006        -9.1432
  68   2.0000      -0.328884        -8.9494
  69   2.0000      -0.321595        -8.7510
  70   2.0000      -0.312252        -8.4968
  71   2.0000      -0.295639        -8.0447
  72   2.0000      -0.284358        -7.7378
  73   2.0000      -0.283197        -7.7062
  74   2.0000      -0.274328        -7.4648
  75   2.0000      -0.270784        -7.3684
  76   2.0000      -0.257608        -7.0099
  77   0.0000      -0.173518        -4.7217
  78   0.0000      -0.071394        -1.9427
  79   0.0000      -0.034014        -0.9256
  80   0.0000      -0.008904        -0.2423
  81   0.0000       0.057515         1.5651

MULLIKEN ATOMIC CHARGES
-----------------------
   0 Pd:    0.372824
   1 O :   -0.565591
   2 C :    0.499348
   3 O :   -0.179977
   4 C :   -0.759380
   5 H :    0.213592
   6 H :    0.241023
   7 H :    0.256073
   8 N :   -0.473309
   9 C :   -0.520284
  10 H :    0.301718
  11 H :    0.200248
  12 H :    0.261422
  13 C :   -0.539994
  14 H :    0.289589
  15 H :    0.219050
  16 H :    0.280699
  17 C :   -0.006528
  18 C :   -0.229515
  19 C :   -0.209352
  20 C :   -0.212420
  21 C :   -0.267356
  22 C :    0.054314
  23 H :    0.249037
  24 H :    0.270549
  25 H :    0.233631
  26 H :    0.242477
  27 H :    0.029203
  28 C :   -0.333235
  29 H :    0.270043
  30 H :    0.252109
  31 O :   -0.561041
  32 C :    0.512396
  33 O :   -0.352275
  34 C :   -0.749076
  35 H :    0.223026
  36 H :    0.255729
  37 H :    0.231232
Sum of atomic charges:    0.0000000

LOEWDIN ATOMIC CHARGES
----------------------
   0 Pd:   -0.324411
   1 O :   -0.289071
   2 C :    0.090037
   3 O :    0.041639
   4 C :   -0.397425
   5 H :    0.134212
   6 H :    0.149265
   7 H :    0.144752
   8 N :   -0.078452
   9 C :   -0.238787
  10 H :    0.160346
  11 H :    0.108742
  12 H :    0.148304
  13 C :   -0.235466
  14 H :    0.156150
  15 H :    0.117202
  16 H :    0.158100
  17 C :   -0.057509
  18 C :   -0.102000
  19 C :   -0.124932
  20 C :   -0.104239
  21 C :   -0.111557
  22 C :    0.054493
  23 H :    0.150431
  24 H :    0.162665
  25 H :    0.149191
  26 H :    0.150659
  27 H :    0.032851
  28 C :   -0.097069
  29 H :    0.157203
  30 H :    0.142645
  31 O :   -0.216615
  32 C :    0.095387
  33 O :   -0.159691
  34 C :   -0.391716
  35 H :    0.135742
  36 H :    0.145402
  37 H :    0.143523

  Mayer bond orders larger than 0.100000
B(  0-Pd,  1-O ) :   0.8294 B(  0-Pd,  8-N ) :   0.3543 B(  0-Pd, 22-C ) :   0.1876
B(  0-Pd, 27-H ) :   0.1442 B(  0-Pd, 31-O ) :   0.7102 B(  1-O ,  2-C ) :   0.9913
B(  2-C ,  3-O ) :   2.1880 B(  2-C ,  4-C ) :   0.8999 B(  4-C ,  5-H ) :   0.9226
B(  4-C ,  6-H ) :   0.9158 B(  4-C ,  7-H ) :   0.9131 B(  8-N ,  9-C ) :   0.9300
B(  8-N , 13-C ) :   0.9237 B(  8-N , 28-C ) :   0.8831 B(  9-C , 10-H ) :   0.8816
B(  9-C , 11-H ) :   0.9061 B(  9-C , 12-H ) :   0.9112 B( 13-C , 14-H ) :   0.8906
B( 13-C , 15-H ) :   0.9060 B( 13-C , 16-H ) :   0.8957 B( 17-C , 18-C ) :   1.3456
B( 17-C , 22-C ) :   1.4215 B( 17-C , 28-C ) :   0.9418 B( 18-C , 19-C ) :   1.4672
B( 18-C , 21-C ) :   0.1059 B( 18-C , 25-H ) :   0.9052 B( 19-C , 20-C ) :   1.4113
B( 19-C , 26-H ) :   0.9075 B( 20-C , 21-C ) :   1.4028 B( 20-C , 23-H ) :   0.9017
B( 21-C , 22-C ) :   1.4400 B( 21-C , 24-H ) :   0.8977 B( 22-C , 27-H ) :   0.6362
B( 28-C , 29-H ) :   0.8989 B( 28-C , 30-H ) :   0.9097 B( 31-O , 32-C ) :   1.1749
B( 32-C , 33-O ) :   2.0424 B( 32-C , 34-C ) :   0.9132 B( 34-C , 35-H ) :   0.9257
B( 34-C , 36-H ) :   0.9086 B( 34-C , 37-H ) :   0.9193

Dispersion correction           -0.025506128
FINAL SINGLE POINT ENERGY      -988.083343648053
Dispersion correction            ... done

DIPOLE MOMENT
-------------
                                X             Y             Z
Electronic contribution:     16.86709       7.83722      -9.73202
Nuclear contribution   :    -19.63574      -8.64787      11.14580
                        -----------------------------------------
Total Dipole Moment    :     -2.76864      -0.81066       1.41378
                        -----------------------------------------
Magnitude (a.u.)       :      3.21268
Magnitude (Debye)      :      8.16599

Rotational constants in cm-1:     0.013304     0.008366     0.006358
Rotational constants in MHz :   398.853623   250.802817   190.599727

                             ****ORCA TERMINATED NORMALLY****
TOTAL RUN TIME: 0 days 0 hours 12 minutes 15 seconds 612 msec
