                         Program Version 5.0.3 -  RELEASE  -
|  1> ! EnGrad PBEh-3c
|  2> %output
|  3> xyzfile=True
|  4> end
|  5> %scf
|  6> maxiter 250
|  7> end
|  8> %output
|  9> Print[P_Hirshfeld] = 1
| 10> end
| 11> % maxcore
| 12> 4000
| 13> *xyz 0 1
| 14> Pd   0.35557495   0.28365893  -0.20546015
| 15> O    1.76019209   1.31974746   0.67074566
| 16> C    1.56673749   2.56159242   0.36178014
| 17> O    0.52304828   2.97241275  -0.16333186
| 18> C    2.67923592   3.56804238   0.62506048
| 19> H    2.23358279   4.47479677   1.06262053
| 20> H    3.15836392   3.84096175  -0.33224865
| 21> H    3.45439290   3.17270606   1.28387355
| 22> N   -1.36942718  -0.71937494  -1.04732433
| 23> C   -1.17605360  -1.88420830  -1.92137955
| 24> H   -0.60102171  -1.63552739  -2.79200142
| 25> H   -2.14890324  -2.22479204  -2.24296459
| 26> H   -0.66275810  -2.70771143  -1.44009775
| 27> C   -2.05164478   0.34037137  -1.79826734
| 28> H   -2.21182912   1.21709390  -1.16935678
| 29> H   -3.02744666  -0.00783339  -2.12898402
| 30> H   -1.47249397   0.61925921  -2.67005885
| 31> C   -1.61877638  -0.93159217   1.44045956
| 32> C   -1.45248656  -2.06600074   2.27011535
| 33> C   -1.19009319  -1.94704501   3.62286743
| 34> C   -1.09850232  -0.67670094   4.17529124
| 35> C   -1.16836461   0.44258478   3.35218506
| 36> C   -1.42275013   0.35635859   1.99146993
| 37> H   -0.94099301  -0.56709235   5.24254370
| 38> H   -1.07956921   1.41702580   3.77763980
| 39> H   -1.52205862  -3.05528615   1.82547215
| 40> H   -0.94763371  -2.83268646   4.19582446
| 41> H   -1.62249730   2.40498970   1.36377799
| 42> C   -2.22610031  -1.13058609   0.08170955
| 43> H   -3.17341902  -0.60060265   0.01369825
| 44> H   -2.48085854  -2.17486173  -0.05125736
| 45> O    1.73362461   0.25392626  -1.68216159
| 46> C    2.17292065  -0.66686154  -2.45998597
| 47> O    1.59867791  -1.70007053  -2.77507382
| 48> C    3.59178296  -0.47566805  -3.02024897
| 49> H    3.97411931  -1.44899913  -3.34939981
| 50> H    4.25537423  -0.07304687  -2.25248916
| 51> H    3.63800257   0.21463399  -3.86707601
| 52> *
| 53>
| 54>                          ****END OF INPUT****

CARTESIAN COORDINATES (ANGSTROEM)
---------------------------------
  Pd     0.355575    0.283659   -0.205460
  O      1.760192    1.319747    0.670746
  C      1.566737    2.561592    0.361780
  O      0.523048    2.972413   -0.163332
  C      2.679236    3.568042    0.625060
  H      2.233583    4.474797    1.062621
  H      3.158364    3.840962   -0.332249
  H      3.454393    3.172706    1.283874
  N     -1.369427   -0.719375   -1.047324
  C     -1.176054   -1.884208   -1.921380
  H     -0.601022   -1.635527   -2.792001
  H     -2.148903   -2.224792   -2.242965
  H     -0.662758   -2.707711   -1.440098
  C     -2.051645    0.340371   -1.798267
  H     -2.211829    1.217094   -1.169357
  H     -3.027447   -0.007833   -2.128984
  H     -1.472494    0.619259   -2.670059
  C     -1.618776   -0.931592    1.440460
  C     -1.452487   -2.066001    2.270115
  C     -1.190093   -1.947045    3.622867
  C     -1.098502   -0.676701    4.175291
  C     -1.168365    0.442585    3.352185
  C     -1.422750    0.356359    1.991470
  H     -0.940993   -0.567092    5.242544
  H     -1.079569    1.417026    3.777640
  H     -1.522059   -3.055286    1.825472
  H     -0.947634   -2.832686    4.195824
  H     -1.622497    2.404990    1.363778
  C     -2.226100   -1.130586    0.081710
  H     -3.173419   -0.600603    0.013698
  H     -2.480859   -2.174862   -0.051257
  O      1.733625    0.253926   -1.682162
  C      2.172921   -0.666862   -2.459986
  O      1.598678   -1.700071   -2.775074
  C      3.591783   -0.475668   -3.020249
  H      3.974119   -1.448999   -3.349400
  H      4.255374   -0.073047   -2.252489
  H      3.638003    0.214634   -3.867076

 Total Charge           Charge          ....    0
 Multiplicity           Mult            ....    1
 Number of Electrons    NEL             ....  154
 Basis Dimension        Dim             ....  339

ORBITAL ENERGIES
----------------

  NO   OCC          E(Eh)            E(eV)
   0   2.0000     -19.489041      -530.3238
   1   2.0000     -19.468012      -529.7515
   2   2.0000     -19.440608      -529.0058
   3   2.0000     -19.418787      -528.4121
   4   2.0000     -14.720658      -400.5695
   5   2.0000     -10.542063      -286.8641
   6   2.0000     -10.534560      -286.6600
   7   2.0000     -10.525308      -286.4082
   8   2.0000     -10.509423      -285.9760
   9   2.0000     -10.508068      -285.9391
  10   2.0000     -10.487182      -285.3707
  11   2.0000     -10.483968      -285.2833
  12   2.0000     -10.482105      -285.2326
  13   2.0000     -10.481298      -285.2106
  14   2.0000     -10.481083      -285.2048
  15   2.0000     -10.464467      -284.7526
  16   2.0000     -10.423225      -283.6304
  17   2.0000     -10.407110      -283.1919
  18   2.0000      -3.666687       -99.7756
  19   2.0000      -2.319476       -63.1161
  20   2.0000      -2.305344       -62.7316
  21   2.0000      -2.277778       -61.9815
  22   2.0000      -1.159046       -31.5392
  23   2.0000      -1.138117       -30.9697
  24   2.0000      -1.084792       -29.5187
  25   2.0000      -1.056980       -28.7619
  26   2.0000      -1.044894       -28.4330
  27   2.0000      -0.992765       -27.0145
  28   2.0000      -0.899176       -24.4678
  29   2.0000      -0.868096       -23.6221
  30   2.0000      -0.823170       -22.3996
  31   2.0000      -0.811484       -22.0816
  32   2.0000      -0.798810       -21.7367
  33   2.0000      -0.780411       -21.2361
  34   2.0000      -0.725039       -19.7293
  35   2.0000      -0.711746       -19.3676
  36   2.0000      -0.686435       -18.6789
  37   2.0000      -0.614056       -16.7093
  38   2.0000      -0.597048       -16.2465
  39   2.0000      -0.587573       -15.9887
  40   2.0000      -0.579565       -15.7708
  41   2.0000      -0.574538       -15.6340
  42   2.0000      -0.566519       -15.4158
  43   2.0000      -0.542858       -14.7719
  44   2.0000      -0.531158       -14.4535
  45   2.0000      -0.517521       -14.0824
  46   2.0000      -0.511917       -13.9300
  47   2.0000      -0.503542       -13.7021
  48   2.0000      -0.501489       -13.6462
  49   2.0000      -0.493411       -13.4264
  50   2.0000      -0.489616       -13.3231
  51   2.0000      -0.480708       -13.0807
  52   2.0000      -0.478724       -13.0267
  53   2.0000      -0.477807       -13.0018
  54   2.0000      -0.462628       -12.5888
  55   2.0000      -0.451459       -12.2848
  56   2.0000      -0.444017       -12.0823
  57   2.0000      -0.439596       -11.9620
  58   2.0000      -0.435499       -11.8505
  59   2.0000      -0.430482       -11.7140
  60   2.0000      -0.423878       -11.5343
  61   2.0000      -0.418578       -11.3901
  62   2.0000      -0.407845       -11.0980
  63   2.0000      -0.399372       -10.8675
  64   2.0000      -0.376344       -10.2408
  65   2.0000      -0.359746        -9.7892
  66   2.0000      -0.354278        -9.6404
  67   2.0000      -0.347273        -9.4498
  68   2.0000      -0.340059        -9.2535
  69   2.0000      -0.333184        -9.0664
  70   2.0000      -0.328604        -8.9418
  71   2.0000      -0.319354        -8.6901
  72   2.0000      -0.307404        -8.3649
  73   2.0000      -0.304910        -8.2970
  74   2.0000      -0.291774        -7.9396
  75   2.0000      -0.275990        -7.5101
  76   2.0000      -0.270927        -7.3723
  77   0.0000      -0.108252        -2.9457
  78   0.0000      -0.076785        -2.0894
  79   0.0000      -0.026960        -0.7336
  80   0.0000      -0.008808        -0.2397
  81   0.0000       0.057242         1.5576

MULLIKEN ATOMIC CHARGES
-----------------------
   0 Pd:    0.534980
   1 O :   -0.510540
   2 C :    0.606657
   3 O :   -0.477182
   4 C :   -0.743031
   5 H :    0.235813
   6 H :    0.250910
   7 H :    0.234612
   8 N :   -0.476692
   9 C :   -0.539120
  10 H :    0.311665
  11 H :    0.206994
  12 H :    0.266983
  13 C :   -0.549768
  14 H :    0.279740
  15 H :    0.231806
  16 H :    0.289775
  17 C :   -0.017455
  18 C :   -0.249726
  19 C :   -0.207859
  20 C :   -0.222149
  21 C :   -0.226925
  22 C :   -0.097199
  23 H :    0.242596
  24 H :    0.252713
  25 H :    0.237819
  26 H :    0.242784
  27 H :    0.168692
  28 C :   -0.309396
  29 H :    0.264509
  30 H :    0.257280
  31 O :   -0.516004
  32 C :    0.547871
  33 O :   -0.481692
  34 C :   -0.742426
  35 H :    0.237052
  36 H :    0.234517
  37 H :    0.231396
Sum of atomic charges:    0.0000000

LOEWDIN ATOMIC CHARGES
----------------------
   0 Pd:   -0.273478
   1 O :   -0.148295
   2 C :    0.161125
   3 O :   -0.263107
   4 C :   -0.378918
   5 H :    0.147070
   6 H :    0.157852
   7 H :    0.138598
   8 N :   -0.061370
   9 C :   -0.244406
  10 H :    0.167761
  11 H :    0.110474
  12 H :    0.150237
  13 C :   -0.232189
  14 H :    0.157286
  15 H :    0.122132
  16 H :    0.160546
  17 C :   -0.046794
  18 C :   -0.113989
  19 C :   -0.115474
  20 C :   -0.117439
  21 C :   -0.118440
  22 C :   -0.031641
  23 H :    0.147808
  24 H :    0.152500
  25 H :    0.148744
  26 H :    0.148208
  27 H :    0.181044
  28 C :   -0.102457
  29 H :    0.152602
  30 H :    0.145991
  31 O :   -0.164070
  32 C :    0.121673
  33 O :   -0.297177
  34 C :   -0.387607
  35 H :    0.142329
  36 H :    0.140239
  37 H :    0.142636

  Mayer bond orders larger than 0.100000
B(  0-Pd,  1-O ) :   0.6824 B(  0-Pd,  3-O ) :   0.1576 B(  0-Pd,  8-N ) :   0.4134
B(  0-Pd, 22-C ) :   0.1410 B(  0-Pd, 31-O ) :   0.6375 B(  1-O ,  2-C ) :   1.2584
B(  2-C ,  3-O ) :   1.7852 B(  2-C ,  4-C ) :   0.9356 B(  4-C ,  5-H ) :   0.9185
B(  4-C ,  6-H ) :   0.9114 B(  4-C ,  7-H ) :   0.9129 B(  8-N ,  9-C ) :   0.9133
B(  8-N , 13-C ) :   0.9180 B(  8-N , 28-C ) :   0.8838 B(  9-C , 10-H ) :   0.8693
B(  9-C , 11-H ) :   0.8999 B(  9-C , 12-H ) :   0.9083 B( 13-C , 14-H ) :   0.8909
B( 13-C , 15-H ) :   0.9000 B( 13-C , 16-H ) :   0.8940 B( 17-C , 18-C ) :   1.3889
B( 17-C , 22-C ) :   1.3796 B( 17-C , 28-C ) :   0.9413 B( 18-C , 19-C ) :   1.4546
B( 18-C , 25-H ) :   0.9073 B( 19-C , 20-C ) :   1.4018 B( 19-C , 26-H ) :   0.9099
B( 20-C , 21-C ) :   1.4322 B( 20-C , 23-H ) :   0.9092 B( 21-C , 22-C ) :   1.4128
B( 21-C , 24-H ) :   0.9078 B( 22-C , 27-H ) :   0.7740 B( 28-C , 29-H ) :   0.8958
B( 28-C , 30-H ) :   0.9117 B( 31-O , 32-C ) :   1.3122 B( 31-O , 33-O ) :   0.1014
B( 32-C , 33-O ) :   1.8773 B( 32-C , 34-C ) :   0.9158 B( 34-C , 35-H ) :   0.9211
B( 34-C , 36-H ) :   0.9142 B( 34-C , 37-H ) :   0.9178

Dispersion correction           -0.026662163
FINAL SINGLE POINT ENERGY      -988.335712006658
Dispersion correction            ... done

DIPOLE MOMENT
-------------
                                X             Y             Z
Electronic contribution:     13.42239      13.28259      -8.83746
Nuclear contribution   :    -15.67005     -13.97934      10.46935
                        -----------------------------------------
Total Dipole Moment    :     -2.24766      -0.69675       1.63190
                        -----------------------------------------
Magnitude (a.u.)       :      2.86366
Magnitude (Debye)      :      7.27884

Rotational constants in cm-1:     0.013439     0.008800     0.006686
Rotational constants in MHz :   402.889965   263.818909   200.438175

                             ****ORCA TERMINATED NORMALLY****
TOTAL RUN TIME: 0 days 0 hours 15 minutes 27 seconds 109 msec
