                         Program Version 5.0.3 -  RELEASE  -
|  1> ! EnGrad PBEh-3c
|  2> %output
|  3> xyzfile=True
|  4> end
|  5> %scf
|  6> maxiter 250
|  7> end
|  8> %output
|  9> Print[P_Hirshfeld] = 1
| 10> end
| 11> % maxcore
| 12> 4000
| 13> *xyz 0 1
| 14> Pd   0.34654659   0.25166154  -0.18694013
| 15> O    1.74118729   1.33291484   0.67072623
| 16> C    1.55016224   2.57216984   0.36372712
| 17> O    0.50957435   2.97948950  -0.13688166
| 18> C    2.65947063   3.55695063   0.62730251
| 19> H    2.24416920   4.47927626   1.05824548
| 20> H    3.14162164   3.84056956  -0.32110556
| 21> H    3.44234865   3.17352479   1.28411237
| 22> N   -1.35845139  -0.70725614  -1.03986624
| 23> C   -1.17780152  -1.88481640  -1.93210591
| 24> H   -0.59561216  -1.61860688  -2.80756985
| 25> H   -2.17431091  -2.22229596  -2.25070430
| 26> H   -0.65403720  -2.69887691  -1.41583645
| 27> C   -2.05082058   0.35455912  -1.80031266
| 28> H   -2.20897324   1.22974678  -1.16293745
| 29> H   -3.03023858  -0.01301274  -2.13540045
| 30> H   -1.46219923   0.63042932  -2.67644352
| 31> C   -1.62551088  -0.91327181   1.43294502
| 32> C   -1.42959951  -2.05767420   2.25136984
| 33> C   -1.15404614  -1.94025488   3.60006984
| 34> C   -1.09263554  -0.67813631   4.15850176
| 35> C   -1.15455491   0.44945092   3.34502149
| 36> C   -1.42240709   0.40182098   1.97698121
| 37> H   -0.94591428  -0.54859564   5.21944011
| 38> H   -1.05630446   1.42438138   3.77294094
| 39> H   -1.54162429  -3.05532644   1.83880636
| 40> H   -0.97312289  -2.82691199   4.20382551
| 41> H   -1.55798770   2.25632696   1.35653387
| 42> C   -2.22828880  -1.12903916   0.07251171
| 43> H   -3.17394168  -0.59958791   0.03581064
| 44> H   -2.49419810  -2.17765347  -0.03780460
| 45> O    1.74540645   0.23403343  -1.68385792
| 46> C    2.17067921  -0.70163841  -2.45665900
| 47> O    1.57957124  -1.71112588  -2.78795252
| 48> C    3.58848200  -0.47059529  -3.00015374
| 49> H    3.99617233  -1.41956155  -3.35231105
| 50> H    4.26403554  -0.07259580  -2.23667030
| 51> H    3.61821307   0.21202603  -3.85929831
| 52> *
| 53>
| 54>                          ****END OF INPUT****

CARTESIAN COORDINATES (ANGSTROEM)
---------------------------------
  Pd     0.346547    0.251662   -0.186940
  O      1.741187    1.332915    0.670726
  C      1.550162    2.572170    0.363727
  O      0.509574    2.979489   -0.136882
  C      2.659471    3.556951    0.627303
  H      2.244169    4.479276    1.058245
  H      3.141622    3.840570   -0.321106
  H      3.442349    3.173525    1.284112
  N     -1.358451   -0.707256   -1.039866
  C     -1.177802   -1.884816   -1.932106
  H     -0.595612   -1.618607   -2.807570
  H     -2.174311   -2.222296   -2.250704
  H     -0.654037   -2.698877   -1.415836
  C     -2.050821    0.354559   -1.800313
  H     -2.208973    1.229747   -1.162937
  H     -3.030239   -0.013013   -2.135400
  H     -1.462199    0.630429   -2.676444
  C     -1.625511   -0.913272    1.432945
  C     -1.429600   -2.057674    2.251370
  C     -1.154046   -1.940255    3.600070
  C     -1.092636   -0.678136    4.158502
  C     -1.154555    0.449451    3.345021
  C     -1.422407    0.401821    1.976981
  H     -0.945914   -0.548596    5.219440
  H     -1.056304    1.424381    3.772941
  H     -1.541624   -3.055326    1.838806
  H     -0.973123   -2.826912    4.203826
  H     -1.557988    2.256327    1.356534
  C     -2.228289   -1.129039    0.072512
  H     -3.173942   -0.599588    0.035811
  H     -2.494198   -2.177653   -0.037805
  O      1.745406    0.234033   -1.683858
  C      2.170679   -0.701638   -2.456659
  O      1.579571   -1.711126   -2.787953
  C      3.588482   -0.470595   -3.000154
  H      3.996172   -1.419562   -3.352311
  H      4.264036   -0.072596   -2.236670
  H      3.618213    0.212026   -3.859298

 Total Charge           Charge          ....    0
 Multiplicity           Mult            ....    1
 Number of Electrons    NEL             ....  154
 Basis Dimension        Dim             ....  339

ORBITAL ENERGIES
----------------

  NO   OCC          E(Eh)            E(eV)
   0   2.0000     -19.483249      -530.1662
   1   2.0000     -19.466232      -529.7031
   2   2.0000     -19.438253      -528.9418
   3   2.0000     -19.421760      -528.4930
   4   2.0000     -14.723797      -400.6549
   5   2.0000     -10.537491      -286.7397
   6   2.0000     -10.534655      -286.6625
   7   2.0000     -10.525256      -286.4068
   8   2.0000     -10.511556      -286.0340
   9   2.0000     -10.507930      -285.9353
  10   2.0000     -10.488347      -285.4024
  11   2.0000     -10.486707      -285.3578
  12   2.0000     -10.480896      -285.1997
  13   2.0000     -10.480416      -285.1866
  14   2.0000     -10.478868      -285.1445
  15   2.0000     -10.471587      -284.9464
  16   2.0000     -10.419673      -283.5337
  17   2.0000     -10.406500      -283.1753
  18   2.0000      -3.666654       -99.7747
  19   2.0000      -2.319366       -63.1132
  20   2.0000      -2.304794       -62.7166
  21   2.0000      -2.278075       -61.9896
  22   2.0000      -1.160659       -31.5831
  23   2.0000      -1.139184       -30.9988
  24   2.0000      -1.082466       -29.4554
  25   2.0000      -1.057940       -28.7880
  26   2.0000      -1.046604       -28.4795
  27   2.0000      -0.989382       -26.9225
  28   2.0000      -0.897223       -24.4147
  29   2.0000      -0.867141       -23.5961
  30   2.0000      -0.819905       -22.3108
  31   2.0000      -0.808497       -22.0003
  32   2.0000      -0.800165       -21.7736
  33   2.0000      -0.780099       -21.2276
  34   2.0000      -0.724854       -19.7243
  35   2.0000      -0.708790       -19.2872
  36   2.0000      -0.685667       -18.6579
  37   2.0000      -0.612659       -16.6713
  38   2.0000      -0.595474       -16.2037
  39   2.0000      -0.584772       -15.9125
  40   2.0000      -0.577155       -15.7052
  41   2.0000      -0.573911       -15.6169
  42   2.0000      -0.565802       -15.3963
  43   2.0000      -0.538951       -14.6656
  44   2.0000      -0.531861       -14.4727
  45   2.0000      -0.518759       -14.1161
  46   2.0000      -0.510838       -13.9006
  47   2.0000      -0.502208       -13.6658
  48   2.0000      -0.500318       -13.6143
  49   2.0000      -0.492799       -13.4097
  50   2.0000      -0.488421       -13.2906
  51   2.0000      -0.480604       -13.0779
  52   2.0000      -0.480408       -13.0726
  53   2.0000      -0.478291       -13.0150
  54   2.0000      -0.460085       -12.5195
  55   2.0000      -0.451753       -12.2928
  56   2.0000      -0.443640       -12.0721
  57   2.0000      -0.437748       -11.9117
  58   2.0000      -0.433550       -11.7975
  59   2.0000      -0.427250       -11.6261
  60   2.0000      -0.421685       -11.4746
  61   2.0000      -0.416099       -11.3226
  62   2.0000      -0.406853       -11.0710
  63   2.0000      -0.401334       -10.9209
  64   2.0000      -0.376719       -10.2511
  65   2.0000      -0.369338       -10.0502
  66   2.0000      -0.357939        -9.7400
  67   2.0000      -0.349065        -9.4986
  68   2.0000      -0.347591        -9.4584
  69   2.0000      -0.329887        -8.9767
  70   2.0000      -0.327725        -8.9179
  71   2.0000      -0.318319        -8.6619
  72   2.0000      -0.306219        -8.3326
  73   2.0000      -0.304191        -8.2774
  74   2.0000      -0.293104        -7.9758
  75   2.0000      -0.277575        -7.5532
  76   2.0000      -0.273624        -7.4457
  77   0.0000      -0.089464        -2.4344
  78   0.0000      -0.071003        -1.9321
  79   0.0000      -0.026831        -0.7301
  80   0.0000      -0.007832        -0.2131
  81   0.0000       0.056023         1.5245

MULLIKEN ATOMIC CHARGES
-----------------------
   0 Pd:    0.543619
   1 O :   -0.514983
   2 C :    0.604203
   3 O :   -0.472247
   4 C :   -0.750897
   5 H :    0.235611
   6 H :    0.251172
   7 H :    0.235888
   8 N :   -0.485839
   9 C :   -0.527055
  10 H :    0.309930
  11 H :    0.204600
  12 H :    0.264290
  13 C :   -0.540085
  14 H :    0.277085
  15 H :    0.231260
  16 H :    0.288287
  17 C :   -0.034550
  18 C :   -0.239808
  19 C :   -0.208717
  20 C :   -0.217437
  21 C :   -0.210140
  22 C :   -0.146657
  23 H :    0.241726
  24 H :    0.249578
  25 H :    0.235723
  26 H :    0.241797
  27 H :    0.201427
  28 C :   -0.309211
  29 H :    0.264853
  30 H :    0.258030
  31 O :   -0.511822
  32 C :    0.546553
  33 O :   -0.473523
  34 C :   -0.745148
  35 H :    0.234450
  36 H :    0.236460
  37 H :    0.231579
Sum of atomic charges:   -0.0000000

LOEWDIN ATOMIC CHARGES
----------------------
   0 Pd:   -0.270878
   1 O :   -0.152071
   2 C :    0.146458
   3 O :   -0.257522
   4 C :   -0.379530
   5 H :    0.146040
   6 H :    0.157484
   7 H :    0.139025
   8 N :   -0.059792
   9 C :   -0.237426
  10 H :    0.168730
  11 H :    0.111008
  12 H :    0.151053
  13 C :   -0.228383
  14 H :    0.156834
  15 H :    0.123823
  16 H :    0.160958
  17 C :   -0.040890
  18 C :   -0.116253
  19 C :   -0.112656
  20 C :   -0.120537
  21 C :   -0.115292
  22 C :   -0.057704
  23 H :    0.147178
  24 H :    0.150488
  25 H :    0.148889
  26 H :    0.147308
  27 H :    0.204935
  28 C :   -0.106035
  29 H :    0.152207
  30 H :    0.146312
  31 O :   -0.169101
  32 C :    0.117957
  33 O :   -0.287472
  34 C :   -0.389029
  35 H :    0.139173
  36 H :    0.141131
  37 H :    0.143577

  Mayer bond orders larger than 0.100000
B(  0-Pd,  1-O ) :   0.6768 B(  0-Pd,  3-O ) :   0.1498 B(  0-Pd,  8-N ) :   0.4206
B(  0-Pd, 22-C ) :   0.1312 B(  0-Pd, 31-O ) :   0.6427 B(  1-O ,  2-C ) :   1.2615
B(  2-C ,  3-O ) :   1.8029 B(  2-C ,  4-C ) :   0.9369 B(  4-C ,  5-H ) :   0.9185
B(  4-C ,  6-H ) :   0.9107 B(  4-C ,  7-H ) :   0.9132 B(  8-N ,  9-C ) :   0.9029
B(  8-N , 13-C ) :   0.9126 B(  8-N , 28-C ) :   0.8850 B(  9-C , 10-H ) :   0.8685
B(  9-C , 11-H ) :   0.9003 B(  9-C , 12-H ) :   0.9085 B( 13-C , 14-H ) :   0.8918
B( 13-C , 15-H ) :   0.9007 B( 13-C , 16-H ) :   0.8943 B( 17-C , 18-C ) :   1.3937
B( 17-C , 22-C ) :   1.3665 B( 17-C , 28-C ) :   0.9407 B( 18-C , 19-C ) :   1.4484
B( 18-C , 25-H ) :   0.9090 B( 19-C , 20-C ) :   1.4091 B( 19-C , 26-H ) :   0.9099
B( 20-C , 21-C ) :   1.4314 B( 20-C , 23-H ) :   0.9097 B( 21-C , 22-C ) :   1.4033
B( 21-C , 24-H ) :   0.9088 B( 22-C , 27-H ) :   0.8006 B( 28-C , 29-H ) :   0.8959
B( 28-C , 30-H ) :   0.9110 B( 31-O , 32-C ) :   1.3078 B( 31-O , 33-O ) :   0.1020
B( 32-C , 33-O ) :   1.8907 B( 32-C , 34-C ) :   0.9133 B( 34-C , 35-H ) :   0.9198
B( 34-C , 36-H ) :   0.9149 B( 34-C , 37-H ) :   0.9182

Dispersion correction           -0.026805475
FINAL SINGLE POINT ENERGY      -988.364058161201
Dispersion correction            ... done

DIPOLE MOMENT
-------------
                                X             Y             Z
Electronic contribution:     12.89652      11.51283      -7.88094
Nuclear contribution   :    -15.20463     -12.24407       9.45966
                        -----------------------------------------
Total Dipole Moment    :     -2.30811      -0.73124       1.57873
                        -----------------------------------------
Magnitude (a.u.)       :      2.89040
Magnitude (Debye)      :      7.34682

Rotational constants in cm-1:     0.013420     0.008873     0.006728
Rotational constants in MHz :   402.332632   265.998465   201.714097

                             ****ORCA TERMINATED NORMALLY****
TOTAL RUN TIME: 0 days 0 hours 11 minutes 26 seconds 993 msec
