                         Program Version 5.0.3 -  RELEASE  -
|  1> ! EnGrad PBEh-3c
|  2> %output
|  3> xyzfile=True
|  4> end
|  5> %scf
|  6> maxiter 250
|  7> end
|  8> %output
|  9> Print[P_Hirshfeld] = 1
| 10> end
| 11> % maxcore
| 12> 4000
| 13> *xyz 0 1
| 14> Pd   0.34302279   0.21766850  -0.16827729
| 15> O    1.73334147   1.34975892   0.67394156
| 16> C    1.50867159   2.59167477   0.36142995
| 17> O    0.49954441   2.98409936  -0.08980377
| 18> C    2.64949242   3.55539782   0.63435488
| 19> H    2.25944598   4.48269012   1.05016609
| 20> H    3.12006436   3.84454870  -0.30387446
| 21> H    3.43325463   3.18552897   1.28555698
| 22> N   -1.34854157  -0.70297478  -1.03570846
| 23> C   -1.18680058  -1.88949096  -1.94035831
| 24> H   -0.59099567  -1.60498330  -2.81508532
| 25> H   -2.20452459  -2.22772322  -2.25286697
| 26> H   -0.65373934  -2.68680975  -1.38575377
| 27> C   -2.04907275   0.36246308  -1.80463153
| 28> H   -2.20018735   1.24262808  -1.16759669
| 29> H   -3.03194303  -0.01777829  -2.14597779
| 30> H   -1.44759457   0.63047872  -2.67986851
| 31> C   -1.63796880  -0.90451423   1.42944135
| 32> C   -1.42091107  -2.05265085   2.23243570
| 33> C   -1.11965232  -1.94404146   3.57978605
| 34> C   -1.07401354  -0.67774585   4.13165000
| 35> C   -1.13366909   0.45586409   3.32608295
| 36> C   -1.39842962   0.43176388   1.95444977
| 37> H   -0.94241845  -0.52762479   5.19033953
| 38> H   -1.03601730   1.43180161   3.76697774
| 39> H   -1.59223887  -3.06867049   1.86308099
| 40> H   -1.02928905  -2.82265155   4.22229479
| 41> H   -1.46490843   2.14678865   1.32981616
| 42> C   -2.23659366  -1.13293499   0.07576925
| 43> H   -3.17301761  -0.58344665   0.07675703
| 44> H   -2.52761662  -2.18390949  -0.02505797
| 45> O    1.76169418   0.19240583  -1.67107466
| 46> C    2.18546385  -0.73769680  -2.45903886
| 47> O    1.56061343  -1.73084403  -2.82313173
| 48> C    3.59152819  -0.45867216  -2.98399902
| 49> H    4.02613720  -1.37370657  -3.36635570
| 50> H    4.27839411  -0.06006445  -2.23195921
| 51> H    3.58721745   0.22185773  -3.84350539
| 52> *
| 53>
| 54>                          ****END OF INPUT****

CARTESIAN COORDINATES (ANGSTROEM)
---------------------------------
  Pd     0.343023    0.217668   -0.168277
  O      1.733341    1.349759    0.673942
  C      1.508672    2.591675    0.361430
  O      0.499544    2.984099   -0.089804
  C      2.649492    3.555398    0.634355
  H      2.259446    4.482690    1.050166
  H      3.120064    3.844549   -0.303874
  H      3.433255    3.185529    1.285557
  N     -1.348542   -0.702975   -1.035708
  C     -1.186801   -1.889491   -1.940358
  H     -0.590996   -1.604983   -2.815085
  H     -2.204525   -2.227723   -2.252867
  H     -0.653739   -2.686810   -1.385754
  C     -2.049073    0.362463   -1.804632
  H     -2.200187    1.242628   -1.167597
  H     -3.031943   -0.017778   -2.145978
  H     -1.447595    0.630479   -2.679869
  C     -1.637969   -0.904514    1.429441
  C     -1.420911   -2.052651    2.232436
  C     -1.119652   -1.944041    3.579786
  C     -1.074014   -0.677746    4.131650
  C     -1.133669    0.455864    3.326083
  C     -1.398430    0.431764    1.954450
  H     -0.942418   -0.527625    5.190340
  H     -1.036017    1.431802    3.766978
  H     -1.592239   -3.068670    1.863081
  H     -1.029289   -2.822652    4.222295
  H     -1.464908    2.146789    1.329816
  C     -2.236594   -1.132935    0.075769
  H     -3.173018   -0.583447    0.076757
  H     -2.527617   -2.183909   -0.025058
  O      1.761694    0.192406   -1.671075
  C      2.185464   -0.737697   -2.459039
  O      1.560613   -1.730844   -2.823132
  C      3.591528   -0.458672   -2.983999
  H      4.026137   -1.373707   -3.366356
  H      4.278394   -0.060064   -2.231959
  H      3.587217    0.221858   -3.843505

 Total Charge           Charge          ....    0
 Multiplicity           Mult            ....    1
 Number of Electrons    NEL             ....  154
 Basis Dimension        Dim             ....  339

ORBITAL ENERGIES
----------------

  NO   OCC          E(Eh)            E(eV)
   0   2.0000     -19.474135      -529.9181
   1   2.0000     -19.465235      -529.6760
   2   2.0000     -19.443362      -529.0808
   3   2.0000     -19.422507      -528.5133
   4   2.0000     -14.725956      -400.7136
   5   2.0000     -10.534400      -286.6556
   6   2.0000     -10.532650      -286.6080
   7   2.0000     -10.526915      -286.4519
   8   2.0000     -10.513110      -286.0763
   9   2.0000     -10.508834      -285.9599
  10   2.0000     -10.491718      -285.4941
  11   2.0000     -10.487617      -285.3826
  12   2.0000     -10.482051      -285.2311
  13   2.0000     -10.480673      -285.1936
  14   2.0000     -10.477413      -285.1049
  15   2.0000     -10.476379      -285.0768
  16   2.0000     -10.412479      -283.3380
  17   2.0000     -10.406592      -283.1778
  18   2.0000      -3.666527       -99.7713
  19   2.0000      -2.318567       -63.0914
  20   2.0000      -2.304744       -62.7153
  21   2.0000      -2.278306       -61.9959
  22   2.0000      -1.175058       -31.9749
  23   2.0000      -1.133954       -30.8565
  24   2.0000      -1.077757       -29.3273
  25   2.0000      -1.065796       -29.0018
  26   2.0000      -1.041131       -28.3306
  27   2.0000      -0.987884       -26.8817
  28   2.0000      -0.896820       -24.4037
  29   2.0000      -0.867189       -23.5974
  30   2.0000      -0.816629       -22.2216
  31   2.0000      -0.805041       -21.9063
  32   2.0000      -0.796843       -21.6832
  33   2.0000      -0.783727       -21.3263
  34   2.0000      -0.724021       -19.7016
  35   2.0000      -0.706126       -19.2147
  36   2.0000      -0.685347       -18.6492
  37   2.0000      -0.610843       -16.6219
  38   2.0000      -0.591273       -16.0894
  39   2.0000      -0.583401       -15.8751
  40   2.0000      -0.574918       -15.6443
  41   2.0000      -0.572547       -15.5798
  42   2.0000      -0.564014       -15.3476
  43   2.0000      -0.535958       -14.5842
  44   2.0000      -0.531676       -14.4677
  45   2.0000      -0.521954       -14.2031
  46   2.0000      -0.510297       -13.8859
  47   2.0000      -0.504682       -13.7331
  48   2.0000      -0.498478       -13.5643
  49   2.0000      -0.494433       -13.4542
  50   2.0000      -0.488861       -13.3026
  51   2.0000      -0.481298       -13.0968
  52   2.0000      -0.480260       -13.0685
  53   2.0000      -0.478106       -13.0099
  54   2.0000      -0.457868       -12.4592
  55   2.0000      -0.452037       -12.3005
  56   2.0000      -0.441803       -12.0221
  57   2.0000      -0.436021       -11.8647
  58   2.0000      -0.434027       -11.8105
  59   2.0000      -0.424411       -11.5488
  60   2.0000      -0.420228       -11.4350
  61   2.0000      -0.414923       -11.2906
  62   2.0000      -0.406559       -11.0630
  63   2.0000      -0.404306       -11.0017
  64   2.0000      -0.381223       -10.3736
  65   2.0000      -0.379885       -10.3372
  66   2.0000      -0.360201        -9.8016
  67   2.0000      -0.350202        -9.5295
  68   2.0000      -0.348591        -9.4856
  69   2.0000      -0.327499        -8.9117
  70   2.0000      -0.326682        -8.8895
  71   2.0000      -0.316580        -8.6146
  72   2.0000      -0.308204        -8.3867
  73   2.0000      -0.303401        -8.2559
  74   2.0000      -0.291703        -7.9376
  75   2.0000      -0.281701        -7.6655
  76   2.0000      -0.275287        -7.4909
  77   0.0000      -0.085219        -2.3189
  78   0.0000      -0.055053        -1.4981
  79   0.0000      -0.027385        -0.7452
  80   0.0000      -0.007321        -0.1992
  81   0.0000       0.054825         1.4919

MULLIKEN ATOMIC CHARGES
-----------------------
   0 Pd:    0.543440
   1 O :   -0.524866
   2 C :    0.583089
   3 O :   -0.426995
   4 C :   -0.759750
   5 H :    0.231480
   6 H :    0.248583
   7 H :    0.240026
   8 N :   -0.494017
   9 C :   -0.515622
  10 H :    0.309100
  11 H :    0.201369
  12 H :    0.261366
  13 C :   -0.532175
  14 H :    0.273555
  15 H :    0.231238
  16 H :    0.286588
  17 C :   -0.033964
  18 C :   -0.234498
  19 C :   -0.206859
  20 C :   -0.217710
  21 C :   -0.195513
  22 C :   -0.192021
  23 H :    0.241074
  24 H :    0.248009
  25 H :    0.234246
  26 H :    0.241038
  27 H :    0.228457
  28 C :   -0.312778
  29 H :    0.264405
  30 H :    0.258494
  31 O :   -0.509418
  32 C :    0.549162
  33 O :   -0.482889
  34 C :   -0.746445
  35 H :    0.235563
  36 H :    0.240914
  37 H :    0.234322
Sum of atomic charges:    0.0000000

LOEWDIN ATOMIC CHARGES
----------------------
   0 Pd:   -0.272996
   1 O :   -0.168691
   2 C :    0.118547
   3 O :   -0.207691
   4 C :   -0.386032
   5 H :    0.141513
   6 H :    0.154010
   7 H :    0.139716
   8 N :   -0.060210
   9 C :   -0.233197
  10 H :    0.170679
  11 H :    0.111325
  12 H :    0.151614
  13 C :   -0.226586
  14 H :    0.155497
  15 H :    0.125631
  16 H :    0.160664
  17 C :   -0.036227
  18 C :   -0.117662
  19 C :   -0.109923
  20 C :   -0.123093
  21 C :   -0.111738
  22 C :   -0.075997
  23 H :    0.146347
  24 H :    0.149744
  25 H :    0.149678
  26 H :    0.147399
  27 H :    0.222207
  28 C :   -0.107174
  29 H :    0.152509
  30 H :    0.147039
  31 O :   -0.173063
  32 C :    0.126666
  33 O :   -0.299584
  34 C :   -0.388418
  35 H :    0.138261
  36 H :    0.143286
  37 H :    0.145954

  Mayer bond orders larger than 0.100000
B(  0-Pd,  1-O ) :   0.6875 B(  0-Pd,  3-O ) :   0.1299 B(  0-Pd,  8-N ) :   0.4225
B(  0-Pd, 22-C ) :   0.1306 B(  0-Pd, 31-O ) :   0.6442 B(  1-O ,  2-C ) :   1.2364
B(  2-C ,  3-O ) :   1.8756 B(  2-C ,  4-C ) :   0.9309 B(  4-C ,  5-H ) :   0.9194
B(  4-C ,  6-H ) :   0.9122 B(  4-C ,  7-H ) :   0.9146 B(  8-N ,  9-C ) :   0.8952
B(  8-N , 13-C ) :   0.9088 B(  8-N , 28-C ) :   0.8838 B(  9-C , 10-H ) :   0.8658
B(  9-C , 11-H ) :   0.9008 B(  9-C , 12-H ) :   0.9087 B( 13-C , 14-H ) :   0.8932
B( 13-C , 15-H ) :   0.9014 B( 13-C , 16-H ) :   0.8942 B( 17-C , 18-C ) :   1.3985
B( 17-C , 22-C ) :   1.3460 B( 17-C , 28-C ) :   0.9409 B( 18-C , 19-C ) :   1.4361
B( 18-C , 25-H ) :   0.9106 B( 19-C , 20-C ) :   1.4172 B( 19-C , 26-H ) :   0.9101
B( 20-C , 21-C ) :   1.4284 B( 20-C , 23-H ) :   0.9096 B( 21-C , 22-C ) :   1.3996
B( 21-C , 24-H ) :   0.9094 B( 22-C , 27-H ) :   0.8118 B( 28-C , 29-H ) :   0.8963
B( 28-C , 30-H ) :   0.9102 B( 31-O , 32-C ) :   1.3049 B( 31-O , 33-O ) :   0.1028
B( 32-C , 33-O ) :   1.8811 B( 32-C , 34-C ) :   0.9177 B( 34-C , 35-H ) :   0.9172
B( 34-C , 36-H ) :   0.9141 B( 34-C , 37-H ) :   0.9167

Dispersion correction           -0.026904950
FINAL SINGLE POINT ENERGY      -988.376321215848
Dispersion correction            ... done

DIPOLE MOMENT
-------------
                                X             Y             Z
Electronic contribution:     12.58578       9.75980      -6.92127
Nuclear contribution   :    -15.00438     -10.44968       8.44881
                        -----------------------------------------
Total Dipole Moment    :     -2.41861      -0.68987       1.52754
                        -----------------------------------------
Magnitude (a.u.)       :      2.94261
Magnitude (Debye)      :      7.47953

Rotational constants in cm-1:     0.013354     0.008942     0.006754
Rotational constants in MHz :   400.330564   268.077000   202.483521

                             ****ORCA TERMINATED NORMALLY****
TOTAL RUN TIME: 0 days 0 hours 10 minutes 51 seconds 573 msec
