                         Program Version 5.0.3 -  RELEASE  -
|  1> ! EnGrad PBEh-3c
|  2> %output
|  3> xyzfile=True
|  4> end
|  5> %scf
|  6> maxiter 250
|  7> end
|  8> %output
|  9> Print[P_Hirshfeld] = 1
| 10> end
| 11> % maxcore
| 12> 4000
| 13> *xyz 0 1
| 14> Pd   0.33890963   0.20351857  -0.16752146
| 15> O    1.71803731   1.35700849   0.68113962
| 16> C    1.51545728   2.58698602   0.38928426
| 17> O    0.44083023   3.01193395  -0.07291415
| 18> C    2.63850835   3.55827807   0.63801292
| 19> H    2.26060272   4.48662534   1.04880546
| 20> H    3.10261878   3.84001835  -0.30131981
| 21> H    3.42065083   3.18219733   1.28651920
| 22> N   -1.35092859  -0.70411327  -1.03962951
| 23> C   -1.19082742  -1.88240993  -1.94068167
| 24> H   -0.59513669  -1.59952121  -2.81207346
| 25> H   -2.20522006  -2.22435870  -2.25342965
| 26> H   -0.65888375  -2.66966448  -1.38290363
| 27> C   -2.04535282   0.36494887  -1.80370236
| 28> H   -2.19791539   1.24564433  -1.17050593
| 29> H   -3.02557535  -0.01149937  -2.14864160
| 30> H   -1.44443859   0.63897213  -2.67361445
| 31> C   -1.62943818  -0.89509917   1.42145449
| 32> C   -1.41295526  -2.04482989   2.22206878
| 33> C   -1.10804790  -1.93900422   3.57136222
| 34> C   -1.05625331  -0.66871217   4.11095786
| 35> C   -1.11861921   0.46504274   3.30206595
| 36> C   -1.38038822   0.44893163   1.92864478
| 37> H   -0.94675179  -0.51494800   5.17510463
| 38> H   -1.00912704   1.43204858   3.75604209
| 39> H   -1.60975816  -3.06231746   1.86934500
| 40> H   -1.04592339  -2.81228220   4.22286086
| 41> H   -1.38502228   2.01460303   1.31432172
| 42> C   -2.24111303  -1.13182059   0.08169076
| 43> H   -3.17658449  -0.57612113   0.09119138
| 44> H   -2.53893534  -2.18324317  -0.02185115
| 45> O    1.75532129   0.15607149  -1.64799066
| 46> C    2.18812142  -0.74621202  -2.45248270
| 47> O    1.56371942  -1.73203332  -2.83700285
| 48> C    3.59258060  -0.46122474  -2.97688192
| 49> H    4.04457046  -1.36051727  -3.36858424
| 50> H    4.26622842  -0.05797939  -2.22382120
| 51> H    3.56719918   0.22473045  -3.82313630
| 52> *
| 53>
| 54>                          ****END OF INPUT****

CARTESIAN COORDINATES (ANGSTROEM)
---------------------------------
  Pd     0.338910    0.203519   -0.167521
  O      1.718037    1.357008    0.681140
  C      1.515457    2.586986    0.389284
  O      0.440830    3.011934   -0.072914
  C      2.638508    3.558278    0.638013
  H      2.260603    4.486625    1.048805
  H      3.102619    3.840018   -0.301320
  H      3.420651    3.182197    1.286519
  N     -1.350929   -0.704113   -1.039630
  C     -1.190827   -1.882410   -1.940682
  H     -0.595137   -1.599521   -2.812073
  H     -2.205220   -2.224359   -2.253430
  H     -0.658884   -2.669664   -1.382904
  C     -2.045353    0.364949   -1.803702
  H     -2.197915    1.245644   -1.170506
  H     -3.025575   -0.011499   -2.148642
  H     -1.444439    0.638972   -2.673614
  C     -1.629438   -0.895099    1.421454
  C     -1.412955   -2.044830    2.222069
  C     -1.108048   -1.939004    3.571362
  C     -1.056253   -0.668712    4.110958
  C     -1.118619    0.465043    3.302066
  C     -1.380388    0.448932    1.928645
  H     -0.946752   -0.514948    5.175105
  H     -1.009127    1.432049    3.756042
  H     -1.609758   -3.062317    1.869345
  H     -1.045923   -2.812282    4.222861
  H     -1.385022    2.014603    1.314322
  C     -2.241113   -1.131821    0.081691
  H     -3.176584   -0.576121    0.091191
  H     -2.538935   -2.183243   -0.021851
  O      1.755321    0.156071   -1.647991
  C      2.188121   -0.746212   -2.452483
  O      1.563719   -1.732033   -2.837003
  C      3.592581   -0.461225   -2.976882
  H      4.044570   -1.360517   -3.368584
  H      4.266228   -0.057979   -2.223821
  H      3.567199    0.224730   -3.823136

 Total Charge           Charge          ....    0
 Multiplicity           Mult            ....    1
 Number of Electrons    NEL             ....  154
 Basis Dimension        Dim             ....  339

ORBITAL ENERGIES
----------------

  NO   OCC          E(Eh)            E(eV)
   0   2.0000     -19.482559      -530.1474
   1   2.0000     -19.467271      -529.7314
   2   2.0000     -19.436563      -528.8958
   3   2.0000     -19.421483      -528.4854
   4   2.0000     -14.728456      -400.7817
   5   2.0000     -10.538654      -286.7713
   6   2.0000     -10.529364      -286.5186
   7   2.0000     -10.527342      -286.4635
   8   2.0000     -10.512496      -286.0596
   9   2.0000     -10.509892      -285.9887
  10   2.0000     -10.491363      -285.4845
  11   2.0000     -10.487178      -285.3706
  12   2.0000     -10.481807      -285.2245
  13   2.0000     -10.479548      -285.1630
  14   2.0000     -10.476617      -285.0832
  15   2.0000     -10.475672      -285.0575
  16   2.0000     -10.415114      -283.4097
  17   2.0000     -10.406448      -283.1738
  18   2.0000      -3.670613       -99.8824
  19   2.0000      -2.322573       -63.2004
  20   2.0000      -2.309331       -62.8401
  21   2.0000      -2.281708       -62.0884
  22   2.0000      -1.156317       -31.4650
  23   2.0000      -1.137483       -30.9525
  24   2.0000      -1.079576       -29.3768
  25   2.0000      -1.052157       -28.6306
  26   2.0000      -1.042624       -28.3712
  27   2.0000      -0.987258       -26.8647
  28   2.0000      -0.897527       -24.4229
  29   2.0000      -0.867201       -23.5977
  30   2.0000      -0.818426       -22.2705
  31   2.0000      -0.805371       -21.9153
  32   2.0000      -0.802464       -21.8362
  33   2.0000      -0.786506       -21.4019
  34   2.0000      -0.724679       -19.7195
  35   2.0000      -0.705995       -19.2111
  36   2.0000      -0.685562       -18.6551
  37   2.0000      -0.612258       -16.6604
  38   2.0000      -0.596901       -16.2425
  39   2.0000      -0.587595       -15.9893
  40   2.0000      -0.575971       -15.6730
  41   2.0000      -0.574365       -15.6293
  42   2.0000      -0.564755       -15.3678
  43   2.0000      -0.536312       -14.5938
  44   2.0000      -0.532854       -14.4997
  45   2.0000      -0.517303       -14.0765
  46   2.0000      -0.509233       -13.8569
  47   2.0000      -0.501712       -13.6523
  48   2.0000      -0.498134       -13.5549
  49   2.0000      -0.492677       -13.4064
  50   2.0000      -0.491043       -13.3619
  51   2.0000      -0.482912       -13.1407
  52   2.0000      -0.481714       -13.1081
  53   2.0000      -0.480650       -13.0792
  54   2.0000      -0.458216       -12.4687
  55   2.0000      -0.453707       -12.3460
  56   2.0000      -0.442518       -12.0415
  57   2.0000      -0.437265       -11.8986
  58   2.0000      -0.434577       -11.8255
  59   2.0000      -0.426663       -11.6101
  60   2.0000      -0.419915       -11.4265
  61   2.0000      -0.416703       -11.3391
  62   2.0000      -0.409753       -11.1500
  63   2.0000      -0.403088       -10.9686
  64   2.0000      -0.392915       -10.6918
  65   2.0000      -0.378831       -10.3085
  66   2.0000      -0.362912        -9.8753
  67   2.0000      -0.353159        -9.6100
  68   2.0000      -0.349981        -9.5235
  69   2.0000      -0.327614        -8.9148
  70   2.0000      -0.326638        -8.8883
  71   2.0000      -0.316418        -8.6102
  72   2.0000      -0.305233        -8.3058
  73   2.0000      -0.303201        -8.2505
  74   2.0000      -0.292584        -7.9616
  75   2.0000      -0.279586        -7.6079
  76   2.0000      -0.274816        -7.4781
  77   0.0000      -0.086470        -2.3530
  78   0.0000      -0.030459        -0.8288
  79   0.0000      -0.022165        -0.6031
  80   0.0000      -0.006776        -0.1844
  81   0.0000       0.053194         1.4475

MULLIKEN ATOMIC CHARGES
-----------------------
   0 Pd:    0.564975
   1 O :   -0.507480
   2 C :    0.595290
   3 O :   -0.495851
   4 C :   -0.753830
   5 H :    0.240056
   6 H :    0.253339
   7 H :    0.238490
   8 N :   -0.493468
   9 C :   -0.516613
  10 H :    0.310152
  11 H :    0.202471
  12 H :    0.262743
  13 C :   -0.534014
  14 H :    0.276597
  15 H :    0.232535
  16 H :    0.287799
  17 C :   -0.030257
  18 C :   -0.233092
  19 C :   -0.207290
  20 C :   -0.217871
  21 C :   -0.184436
  22 C :   -0.243168
  23 H :    0.239507
  24 H :    0.247246
  25 H :    0.232749
  26 H :    0.240958
  27 H :    0.265135
  28 C :   -0.316610
  29 H :    0.265027
  30 H :    0.259435
  31 O :   -0.508917
  32 C :    0.544701
  33 O :   -0.484217
  34 C :   -0.746646
  35 H :    0.237799
  36 H :    0.240670
  37 H :    0.236088
Sum of atomic charges:   -0.0000000

LOEWDIN ATOMIC CHARGES
----------------------
   0 Pd:   -0.261627
   1 O :   -0.150990
   2 C :    0.150763
   3 O :   -0.290750
   4 C :   -0.381913
   5 H :    0.145596
   6 H :    0.156909
   7 H :    0.140173
   8 N :   -0.056172
   9 C :   -0.234080
  10 H :    0.170932
  11 H :    0.112004
  12 H :    0.151759
  13 C :   -0.227071
  14 H :    0.156516
  15 H :    0.126369
  16 H :    0.160834
  17 C :   -0.034914
  18 C :   -0.118051
  19 C :   -0.109745
  20 C :   -0.123645
  21 C :   -0.109455
  22 C :   -0.096681
  23 H :    0.145484
  24 H :    0.148589
  25 H :    0.149325
  26 H :    0.147297
  27 H :    0.241376
  28 C :   -0.105534
  29 H :    0.153036
  30 H :    0.147536
  31 O :   -0.166521
  32 C :    0.123528
  33 O :   -0.301493
  34 C :   -0.388077
  35 H :    0.139194
  36 H :    0.142744
  37 H :    0.146755

  Mayer bond orders larger than 0.100000
B(  0-Pd,  1-O ) :   0.6481 B(  0-Pd,  3-O ) :   0.1383 B(  0-Pd,  8-N ) :   0.4367
B(  0-Pd, 22-C ) :   0.1271 B(  0-Pd, 31-O ) :   0.6429 B(  1-O ,  2-C ) :   1.2981
B(  2-C ,  3-O ) :   1.7768 B(  2-C ,  4-C ) :   0.9403 B(  4-C ,  5-H ) :   0.9165
B(  4-C ,  6-H ) :   0.9092 B(  4-C ,  7-H ) :   0.9134 B(  8-N ,  9-C ) :   0.8965
B(  8-N , 13-C ) :   0.9078 B(  8-N , 28-C ) :   0.8800 B(  9-C , 10-H ) :   0.8651
B(  9-C , 11-H ) :   0.9010 B(  9-C , 12-H ) :   0.9081 B( 13-C , 14-H ) :   0.8923
B( 13-C , 15-H ) :   0.9011 B( 13-C , 16-H ) :   0.8938 B( 17-C , 18-C ) :   1.4012
B( 17-C , 22-C ) :   1.3326 B( 17-C , 28-C ) :   0.9402 B( 18-C , 19-C ) :   1.4325
B( 18-C , 25-H ) :   0.9117 B( 19-C , 20-C ) :   1.4203 B( 19-C , 26-H ) :   0.9100
B( 20-C , 21-C ) :   1.4298 B( 20-C , 23-H ) :   0.9104 B( 21-C , 22-C ) :   1.3918
B( 21-C , 24-H ) :   0.9099 B( 22-C , 27-H ) :   0.8079 B( 28-C , 29-H ) :   0.8966
B( 28-C , 30-H ) :   0.9102 B( 31-O , 32-C ) :   1.3067 B( 31-O , 33-O ) :   0.1016
B( 32-C , 33-O ) :   1.8805 B( 32-C , 34-C ) :   0.9200 B( 34-C , 35-H ) :   0.9172
B( 34-C , 36-H ) :   0.9141 B( 34-C , 37-H ) :   0.9160

Dispersion correction           -0.027022449
FINAL SINGLE POINT ENERGY      -988.405140006305
Dispersion correction            ... done

DIPOLE MOMENT
-------------
                                X             Y             Z
Electronic contribution:     12.53033       8.88823      -6.89024
Nuclear contribution   :    -14.82989      -9.66976       8.41904
                        -----------------------------------------
Total Dipole Moment    :     -2.29956      -0.78153       1.52880
                        -----------------------------------------
Magnitude (a.u.)       :      2.86984
Magnitude (Debye)      :      7.29456

Rotational constants in cm-1:     0.013320     0.009002     0.006792
Rotational constants in MHz :   399.310398   269.873043   203.617272

                             ****ORCA TERMINATED NORMALLY****
TOTAL RUN TIME: 0 days 0 hours 9 minutes 0 seconds 98 msec
