                         Program Version 5.0.3 -  RELEASE  -
|  1> ! EnGrad PBEh-3c
|  2> %output
|  3> xyzfile=True
|  4> end
|  5> %scf
|  6> maxiter 250
|  7> end
|  8> %output
|  9> Print[P_Hirshfeld] = 1
| 10> end
| 11> % maxcore
| 12> 4000
| 13> *xyz 0 1
| 14> Pd   0.33790599   0.21815673  -0.18070791
| 15> O    1.72071114   1.35710607   0.68901721
| 16> C    1.51345055   2.59291766   0.40711348
| 17> O    0.41376721   3.02227755  -0.06177337
| 18> C    2.64197936   3.56572750   0.64034203
| 19> H    2.25282271   4.48786649   1.05126581
| 20> H    3.09813217   3.83574044  -0.30875485
| 21> H    3.42086489   3.18077351   1.28795237
| 22> N   -1.36187504  -0.71492317  -1.04400813
| 23> C   -1.19342027  -1.87634875  -1.93142978
| 24> H   -0.59940158  -1.60901419  -2.79376900
| 25> H   -2.18764685  -2.22894252  -2.24631992
| 26> H   -0.67162006  -2.66349269  -1.39782721
| 27> C   -2.04293565   0.35362196  -1.80068948
| 28> H   -2.19637508   1.23561037  -1.18164485
| 29> H   -3.02020541  -0.00201090  -2.14806753
| 30> H   -1.44725397   0.63367311  -2.66254613
| 31> C   -1.61863744  -0.90582336   1.41970716
| 32> C   -1.43322478  -2.04973743   2.23365640
| 33> C   -1.13036014  -1.93761462   3.58002029
| 34> C   -1.04305655  -0.66181973   4.10682799
| 35> C   -1.10967198   0.46672869   3.28379648
| 36> C   -1.35131142   0.42117968   1.91234811
| 37> H   -0.94401475  -0.51869968   5.17738168
| 38> H   -1.00032127   1.42678142   3.74578446
| 39> H   -1.61769400  -3.05724474   1.86463529
| 40> H   -1.04683925  -2.80760376   4.22036306
| 41> H   -1.34981403   2.02670990   1.29536044
| 42> C   -2.24525885  -1.13362149   0.09196897
| 43> H   -3.17699502  -0.56503302   0.08992906
| 44> H   -2.54256700  -2.18196464  -0.03332357
| 45> O    1.74777255   0.13801103  -1.61668221
| 46> C    2.18747172  -0.74077831  -2.45256493
| 47> O    1.58957738  -1.71218086  -2.84454184
| 48> C    3.59523343  -0.46432314  -2.98547387
| 49> H    4.03878880  -1.37233823  -3.37054798
| 50> H    4.24736031  -0.05214986  -2.23150123
| 51> H    3.56147341   0.23619922  -3.81078040
| 52> *
| 53>
| 54>                          ****END OF INPUT****

CARTESIAN COORDINATES (ANGSTROEM)
---------------------------------
  Pd     0.337906    0.218157   -0.180708
  O      1.720711    1.357106    0.689017
  C      1.513451    2.592918    0.407113
  O      0.413767    3.022278   -0.061773
  C      2.641979    3.565727    0.640342
  H      2.252823    4.487866    1.051266
  H      3.098132    3.835740   -0.308755
  H      3.420865    3.180774    1.287952
  N     -1.361875   -0.714923   -1.044008
  C     -1.193420   -1.876349   -1.931430
  H     -0.599402   -1.609014   -2.793769
  H     -2.187647   -2.228943   -2.246320
  H     -0.671620   -2.663493   -1.397827
  C     -2.042936    0.353622   -1.800689
  H     -2.196375    1.235610   -1.181645
  H     -3.020205   -0.002011   -2.148068
  H     -1.447254    0.633673   -2.662546
  C     -1.618637   -0.905823    1.419707
  C     -1.433225   -2.049737    2.233656
  C     -1.130360   -1.937615    3.580020
  C     -1.043057   -0.661820    4.106828
  C     -1.109672    0.466729    3.283796
  C     -1.351311    0.421180    1.912348
  H     -0.944015   -0.518700    5.177382
  H     -1.000321    1.426781    3.745784
  H     -1.617694   -3.057245    1.864635
  H     -1.046839   -2.807604    4.220363
  H     -1.349814    2.026710    1.295360
  C     -2.245259   -1.133621    0.091969
  H     -3.176995   -0.565033    0.089929
  H     -2.542567   -2.181965   -0.033324
  O      1.747773    0.138011   -1.616682
  C      2.187472   -0.740778   -2.452565
  O      1.589577   -1.712181   -2.844542
  C      3.595233   -0.464323   -2.985474
  H      4.038789   -1.372338   -3.370548
  H      4.247360   -0.052150   -2.231501
  H      3.561473    0.236199   -3.810780

 Total Charge           Charge          ....    0
 Multiplicity           Mult            ....    1
 Number of Electrons    NEL             ....  154
 Basis Dimension        Dim             ....  339

ORBITAL ENERGIES
----------------

  NO   OCC          E(Eh)            E(eV)
   0   2.0000     -19.485833      -530.2365
   1   2.0000     -19.466373      -529.7069
   2   2.0000     -19.438107      -528.9378
   3   2.0000     -19.423114      -528.5298
   4   2.0000     -14.726767      -400.7357
   5   2.0000     -10.543267      -286.8969
   6   2.0000     -10.526202      -286.4325
   7   2.0000     -10.526177      -286.4318
   8   2.0000     -10.509959      -285.9905
   9   2.0000     -10.509109      -285.9674
  10   2.0000     -10.487419      -285.3772
  11   2.0000     -10.484607      -285.3007
  12   2.0000     -10.479650      -285.1658
  13   2.0000     -10.478460      -285.1334
  14   2.0000     -10.476206      -285.0720
  15   2.0000     -10.470320      -284.9119
  16   2.0000     -10.418133      -283.4918
  17   2.0000     -10.405044      -283.1357
  18   2.0000      -3.669948       -99.8644
  19   2.0000      -2.321451       -63.1699
  20   2.0000      -2.309618       -62.8479
  21   2.0000      -2.280536       -62.0565
  22   2.0000      -1.151115       -31.3234
  23   2.0000      -1.143647       -31.1202
  24   2.0000      -1.082850       -29.4659
  25   2.0000      -1.049451       -28.5570
  26   2.0000      -1.044238       -28.4152
  27   2.0000      -0.988050       -26.8862
  28   2.0000      -0.898207       -24.4414
  29   2.0000      -0.867008       -23.5925
  30   2.0000      -0.822435       -22.3796
  31   2.0000      -0.806843       -21.9553
  32   2.0000      -0.804286       -21.8857
  33   2.0000      -0.787176       -21.4201
  34   2.0000      -0.725005       -19.7284
  35   2.0000      -0.707463       -19.2510
  36   2.0000      -0.684790       -18.6341
  37   2.0000      -0.613259       -16.6876
  38   2.0000      -0.597902       -16.2697
  39   2.0000      -0.589215       -16.0334
  40   2.0000      -0.578044       -15.7294
  41   2.0000      -0.575930       -15.6718
  42   2.0000      -0.565659       -15.3924
  43   2.0000      -0.538045       -14.6410
  44   2.0000      -0.533119       -14.5069
  45   2.0000      -0.516632       -14.0583
  46   2.0000      -0.510243       -13.8844
  47   2.0000      -0.501589       -13.6489
  48   2.0000      -0.499025       -13.5792
  49   2.0000      -0.493135       -13.4189
  50   2.0000      -0.492044       -13.3892
  51   2.0000      -0.484530       -13.1847
  52   2.0000      -0.482937       -13.1414
  53   2.0000      -0.482087       -13.1183
  54   2.0000      -0.460274       -12.5247
  55   2.0000      -0.453544       -12.3416
  56   2.0000      -0.443594       -12.0708
  57   2.0000      -0.438712       -11.9380
  58   2.0000      -0.436221       -11.8702
  59   2.0000      -0.430416       -11.7122
  60   2.0000      -0.421888       -11.4801
  61   2.0000      -0.418221       -11.3804
  62   2.0000      -0.411704       -11.2030
  63   2.0000      -0.401086       -10.9141
  64   2.0000      -0.388454       -10.5704
  65   2.0000      -0.379076       -10.3152
  66   2.0000      -0.360572        -9.8117
  67   2.0000      -0.354313        -9.6414
  68   2.0000      -0.348532        -9.4840
  69   2.0000      -0.328634        -8.9426
  70   2.0000      -0.326359        -8.8807
  71   2.0000      -0.316250        -8.6056
  72   2.0000      -0.304191        -8.2775
  73   2.0000      -0.302813        -8.2400
  74   2.0000      -0.292656        -7.9636
  75   2.0000      -0.279279        -7.5996
  76   2.0000      -0.275398        -7.4940
  77   0.0000      -0.084430        -2.2975
  78   0.0000      -0.031660        -0.8615
  79   0.0000      -0.023744        -0.6461
  80   0.0000      -0.005478        -0.1491
  81   0.0000       0.055229         1.5028

MULLIKEN ATOMIC CHARGES
-----------------------
   0 Pd:    0.563470
   1 O :   -0.502652
   2 C :    0.598270
   3 O :   -0.512362
   4 C :   -0.747624
   5 H :    0.241490
   6 H :    0.254464
   7 H :    0.239422
   8 N :   -0.487161
   9 C :   -0.526937
  10 H :    0.310976
  11 H :    0.205328
  12 H :    0.265544
  13 C :   -0.542661
  14 H :    0.279862
  15 H :    0.233560
  16 H :    0.289049
  17 C :   -0.010458
  18 C :   -0.240747
  19 C :   -0.206434
  20 C :   -0.221130
  21 C :   -0.190306
  22 C :   -0.239243
  23 H :    0.237976
  24 H :    0.247417
  25 H :    0.231876
  26 H :    0.241580
  27 H :    0.262621
  28 C :   -0.319462
  29 H :    0.264818
  30 H :    0.258647
  31 O :   -0.522430
  32 C :    0.538352
  33 O :   -0.463066
  34 C :   -0.746263
  35 H :    0.237580
  36 H :    0.241011
  37 H :    0.235624
Sum of atomic charges:    0.0000000

LOEWDIN ATOMIC CHARGES
----------------------
   0 Pd:   -0.269905
   1 O :   -0.150527
   2 C :    0.168610
   3 O :   -0.313180
   4 C :   -0.380086
   5 H :    0.146819
   6 H :    0.158234
   7 H :    0.141393
   8 N :   -0.054805
   9 C :   -0.239231
  10 H :    0.169390
  11 H :    0.112281
  12 H :    0.150373
  13 C :   -0.230413
  14 H :    0.156616
  15 H :    0.125436
  16 H :    0.160307
  17 C :   -0.036138
  18 C :   -0.118365
  19 C :   -0.110766
  20 C :   -0.123159
  21 C :   -0.109342
  22 C :   -0.094181
  23 H :    0.144984
  24 H :    0.148481
  25 H :    0.147988
  26 H :    0.146738
  27 H :    0.245105
  28 C :   -0.101537
  29 H :    0.153428
  30 H :    0.147109
  31 O :   -0.169429
  32 C :    0.114831
  33 O :   -0.277088
  34 C :   -0.388225
  35 H :    0.140518
  36 H :    0.141813
  37 H :    0.145926

  Mayer bond orders larger than 0.100000
B(  0-Pd,  1-O ) :   0.6407 B(  0-Pd,  3-O ) :   0.1376 B(  0-Pd,  8-N ) :   0.4351
B(  0-Pd, 22-C ) :   0.1362 B(  0-Pd, 31-O ) :   0.6510 B(  1-O ,  2-C ) :   1.3089
B(  2-C ,  3-O ) :   1.7446 B(  2-C ,  4-C ) :   0.9422 B(  4-C ,  5-H ) :   0.9154
B(  4-C ,  6-H ) :   0.9086 B(  4-C ,  7-H ) :   0.9126 B(  8-N ,  9-C ) :   0.9071
B(  8-N , 13-C ) :   0.9120 B(  8-N , 28-C ) :   0.8765 B(  9-C , 10-H ) :   0.8670
B(  9-C , 11-H ) :   0.9018 B(  9-C , 12-H ) :   0.9075 B( 13-C , 14-H ) :   0.8913
B( 13-C , 15-H ) :   0.9008 B( 13-C , 16-H ) :   0.8935 B( 17-C , 18-C ) :   1.4031
B( 17-C , 22-C ) :   1.3419 B( 17-C , 28-C ) :   0.9397 B( 18-C , 19-C ) :   1.4390
B( 18-C , 25-H ) :   0.9117 B( 19-C , 20-C ) :   1.4185 B( 19-C , 26-H ) :   0.9094
B( 20-C , 21-C ) :   1.4339 B( 20-C , 23-H ) :   0.9108 B( 21-C , 22-C ) :   1.3913
B( 21-C , 24-H ) :   0.9102 B( 22-C , 27-H ) :   0.7897 B( 28-C , 29-H ) :   0.8969
B( 28-C , 30-H ) :   0.9112 B( 31-O , 32-C ) :   1.2867 B( 32-C , 33-O ) :   1.9090
B( 32-C , 34-C ) :   0.9207 B( 34-C , 35-H ) :   0.9193 B( 34-C , 36-H ) :   0.9136
B( 34-C , 37-H ) :   0.9164

Dispersion correction           -0.027057685
FINAL SINGLE POINT ENERGY      -988.402479765921
Dispersion correction            ... done

DIPOLE MOMENT
-------------
                                X             Y             Z
Electronic contribution:     12.54995       9.66215      -7.70094
Nuclear contribution   :    -14.78567     -10.45260       9.17332
                        -----------------------------------------
Total Dipole Moment    :     -2.23572      -0.79045       1.47238
                        -----------------------------------------
Magnitude (a.u.)       :      2.79126
Magnitude (Debye)      :      7.09483

Rotational constants in cm-1:     0.013313     0.009006     0.006791
Rotational constants in MHz :   399.103011   269.994203   203.595026

                             ****ORCA TERMINATED NORMALLY****
TOTAL RUN TIME: 0 days 0 hours 8 minutes 53 seconds 467 msec
