                         Program Version 5.0.3 -  RELEASE  -
|  1> ! EnGrad PBEh-3c
|  2> %output
|  3> xyzfile=True
|  4> end
|  5> %scf
|  6> maxiter 250
|  7> end
|  8> %output
|  9> Print[P_Hirshfeld] = 1
| 10> end
| 11> % maxcore
| 12> 4000
| 13> *xyz 0 1
| 14> Pd   0.33256283   0.21676625  -0.17397982
| 15> O    1.70936455   1.36208259   0.69460361
| 16> C    1.47632455   2.60816076   0.41874758
| 17> O    0.39861500   3.03357492  -0.02132719
| 18> C    2.63364415   3.56784546   0.64470621
| 19> H    2.25177862   4.49775106   1.05317372
| 20> H    3.08406380   3.83183621  -0.31221333
| 21> H    3.41392618   3.17924488   1.28957640
| 22> N   -1.37426590  -0.72087813  -1.04527636
| 23> C   -1.19683581  -1.87553497  -1.92888237
| 24> H   -0.59810696  -1.60883339  -2.78525384
| 25> H   -2.18324478  -2.23059087  -2.24255371
| 26> H   -0.67658436  -2.65550075  -1.39076610
| 27> C   -2.04050667   0.35097742  -1.80168837
| 28> H   -2.19254189   1.23503098  -1.18790107
| 29> H   -3.01454243  -0.00001469  -2.15125908
| 30> H   -1.44061643   0.63174821  -2.65913985
| 31> C   -1.60951374  -0.90921506   1.41497933
| 32> C   -1.44112129  -2.04915047   2.23619613
| 33> C   -1.12920797  -1.93225711   3.57385174
| 34> C   -1.03047110  -0.65392544   4.09274451
| 35> C   -1.08491235   0.46581023   3.26184914
| 36> C   -1.32151408   0.42297104   1.88632374
| 37> H   -0.94192388  -0.51196107   5.16316689
| 38> H   -0.97184254   1.42258559   3.72833657
| 39> H   -1.64693431  -3.05583876   1.87025462
| 40> H   -1.07101194  -2.79934949   4.22610403
| 41> H   -1.26552018   1.95602022   1.26317394
| 42> C   -2.25180809  -1.13441844   0.09297562
| 43> H   -3.17527070  -0.55332528   0.10304168
| 44> H   -2.55845929  -2.17889973  -0.03673147
| 45> O    1.75032587   0.11716368  -1.58462708
| 46> C    2.18713639  -0.74895787  -2.44648959
| 47> O    1.59874354  -1.71754511  -2.86264826
| 48> C    3.59213243  -0.45989503  -2.98194657
| 49> H    4.04593432  -1.36497282  -3.37868330
| 50> H    4.23895943  -0.04206624  -2.22622048
| 51> H    3.53889833   0.25021061  -3.79981275
| 52> *
| 53>
| 54>                          ****END OF INPUT****

CARTESIAN COORDINATES (ANGSTROEM)
---------------------------------
  Pd     0.332563    0.216766   -0.173980
  O      1.709365    1.362083    0.694604
  C      1.476325    2.608161    0.418748
  O      0.398615    3.033575   -0.021327
  C      2.633644    3.567845    0.644706
  H      2.251779    4.497751    1.053174
  H      3.084064    3.831836   -0.312213
  H      3.413926    3.179245    1.289576
  N     -1.374266   -0.720878   -1.045276
  C     -1.196836   -1.875535   -1.928882
  H     -0.598107   -1.608833   -2.785254
  H     -2.183245   -2.230591   -2.242554
  H     -0.676584   -2.655501   -1.390766
  C     -2.040507    0.350977   -1.801688
  H     -2.192542    1.235031   -1.187901
  H     -3.014542   -0.000015   -2.151259
  H     -1.440616    0.631748   -2.659140
  C     -1.609514   -0.909215    1.414979
  C     -1.441121   -2.049150    2.236196
  C     -1.129208   -1.932257    3.573852
  C     -1.030471   -0.653925    4.092745
  C     -1.084912    0.465810    3.261849
  C     -1.321514    0.422971    1.886324
  H     -0.941924   -0.511961    5.163167
  H     -0.971843    1.422586    3.728337
  H     -1.646934   -3.055839    1.870255
  H     -1.071012   -2.799349    4.226104
  H     -1.265520    1.956020    1.263174
  C     -2.251808   -1.134418    0.092976
  H     -3.175271   -0.553325    0.103042
  H     -2.558459   -2.178900   -0.036731
  O      1.750326    0.117164   -1.584627
  C      2.187136   -0.748958   -2.446490
  O      1.598744   -1.717545   -2.862648
  C      3.592132   -0.459895   -2.981947
  H      4.045934   -1.364973   -3.378683
  H      4.238959   -0.042066   -2.226220
  H      3.538898    0.250211   -3.799813

 Total Charge           Charge          ....    0
 Multiplicity           Mult            ....    1
 Number of Electrons    NEL             ....  154
 Basis Dimension        Dim             ....  339

ORBITAL ENERGIES
----------------

  NO   OCC          E(Eh)            E(eV)
   0   2.0000     -19.483333      -530.1685
   1   2.0000     -19.467302      -529.7322
   2   2.0000     -19.445329      -529.1343
   3   2.0000     -19.424739      -528.5740
   4   2.0000     -14.725053      -400.6891
   5   2.0000     -10.543930      -286.9149
   6   2.0000     -10.527810      -286.4763
   7   2.0000     -10.524385      -286.3831
   8   2.0000     -10.509445      -285.9765
   9   2.0000     -10.508905      -285.9619
  10   2.0000     -10.486834      -285.3613
  11   2.0000     -10.483391      -285.2676
  12   2.0000     -10.479177      -285.1529
  13   2.0000     -10.478062      -285.1226
  14   2.0000     -10.474954      -285.0380
  15   2.0000     -10.468571      -284.8643
  16   2.0000     -10.418462      -283.5008
  17   2.0000     -10.405885      -283.1585
  18   2.0000      -3.669681       -99.8571
  19   2.0000      -2.320593       -63.1465
  20   2.0000      -2.309936       -62.8565
  21   2.0000      -2.280330       -62.0509
  22   2.0000      -1.154545       -31.4168
  23   2.0000      -1.141857       -31.0715
  24   2.0000      -1.084493       -29.5106
  25   2.0000      -1.056795       -28.7568
  26   2.0000      -1.048811       -28.5396
  27   2.0000      -0.988486       -26.8981
  28   2.0000      -0.898331       -24.4448
  29   2.0000      -0.867497       -23.6058
  30   2.0000      -0.824159       -22.4265
  31   2.0000      -0.807451       -21.9719
  32   2.0000      -0.801210       -21.8020
  33   2.0000      -0.786496       -21.4016
  34   2.0000      -0.724952       -19.7269
  35   2.0000      -0.707284       -19.2462
  36   2.0000      -0.684760       -18.6333
  37   2.0000      -0.613520       -16.6947
  38   2.0000      -0.596868       -16.2416
  39   2.0000      -0.589272       -16.0349
  40   2.0000      -0.579040       -15.7565
  41   2.0000      -0.576858       -15.6971
  42   2.0000      -0.566237       -15.4081
  43   2.0000      -0.538733       -14.6597
  44   2.0000      -0.532825       -14.4989
  45   2.0000      -0.518396       -14.1063
  46   2.0000      -0.510766       -13.8987
  47   2.0000      -0.503895       -13.7117
  48   2.0000      -0.499119       -13.5817
  49   2.0000      -0.494999       -13.4696
  50   2.0000      -0.492271       -13.3954
  51   2.0000      -0.484675       -13.1887
  52   2.0000      -0.483361       -13.1529
  53   2.0000      -0.481788       -13.1101
  54   2.0000      -0.461197       -12.5498
  55   2.0000      -0.454927       -12.3792
  56   2.0000      -0.443823       -12.0770
  57   2.0000      -0.439541       -11.9605
  58   2.0000      -0.437516       -11.9054
  59   2.0000      -0.430260       -11.7080
  60   2.0000      -0.421688       -11.4747
  61   2.0000      -0.418309       -11.3828
  62   2.0000      -0.411969       -11.2103
  63   2.0000      -0.402123       -10.9423
  64   2.0000      -0.393606       -10.7106
  65   2.0000      -0.381982       -10.3943
  66   2.0000      -0.360896        -9.8205
  67   2.0000      -0.355359        -9.6698
  68   2.0000      -0.348601        -9.4859
  69   2.0000      -0.328599        -8.9416
  70   2.0000      -0.326893        -8.8952
  71   2.0000      -0.315934        -8.5970
  72   2.0000      -0.308541        -8.3958
  73   2.0000      -0.303340        -8.2543
  74   2.0000      -0.292100        -7.9485
  75   2.0000      -0.283659        -7.7188
  76   2.0000      -0.276388        -7.5209
  77   0.0000      -0.082727        -2.2511
  78   0.0000      -0.027110        -0.7377
  79   0.0000      -0.015102        -0.4109
  80   0.0000      -0.003473        -0.0945
  81   0.0000       0.056299         1.5320

MULLIKEN ATOMIC CHARGES
-----------------------
   0 Pd:    0.558230
   1 O :   -0.510187
   2 C :    0.591018
   3 O :   -0.485292
   4 C :   -0.747350
   5 H :    0.237144
   6 H :    0.252011
   7 H :    0.241495
   8 N :   -0.484433
   9 C :   -0.528506
  10 H :    0.310634
  11 H :    0.206207
  12 H :    0.265684
  13 C :   -0.544365
  14 H :    0.279002
  15 H :    0.234043
  16 H :    0.288497
  17 C :   -0.002812
  18 C :   -0.241071
  19 C :   -0.205798
  20 C :   -0.220782
  21 C :   -0.184504
  22 C :   -0.267464
  23 H :    0.237984
  24 H :    0.246193
  25 H :    0.231481
  26 H :    0.240575
  27 H :    0.279177
  28 C :   -0.319907
  29 H :    0.264764
  30 H :    0.258153
  31 O :   -0.528400
  32 C :    0.541148
  33 O :   -0.461837
  34 C :   -0.743296
  35 H :    0.236590
  36 H :    0.241228
  37 H :    0.234748
Sum of atomic charges:    0.0000000

LOEWDIN ATOMIC CHARGES
----------------------
   0 Pd:   -0.279919
   1 O :   -0.161582
   2 C :    0.159090
   3 O :   -0.282357
   4 C :   -0.381884
   5 H :    0.144309
   6 H :    0.156763
   7 H :    0.142051
   8 N :   -0.056331
   9 C :   -0.240201
  10 H :    0.169182
  11 H :    0.112316
  12 H :    0.150178
  13 C :   -0.231388
  14 H :    0.155723
  15 H :    0.125279
  16 H :    0.159957
  17 C :   -0.031131
  18 C :   -0.120307
  19 C :   -0.108712
  20 C :   -0.124826
  21 C :   -0.105739
  22 C :   -0.101889
  23 H :    0.144927
  24 H :    0.147926
  25 H :    0.147878
  26 H :    0.146550
  27 H :    0.255079
  28 C :   -0.101895
  29 H :    0.153420
  30 H :    0.146610
  31 O :   -0.173335
  32 C :    0.120130
  33 O :   -0.276662
  34 C :   -0.387415
  35 H :    0.140762
  36 H :    0.141622
  37 H :    0.145820

  Mayer bond orders larger than 0.100000
B(  0-Pd,  1-O ) :   0.6529 B(  0-Pd,  3-O ) :   0.1232 B(  0-Pd,  8-N ) :   0.4295
B(  0-Pd, 22-C ) :   0.1448 B(  0-Pd, 31-O ) :   0.6516 B(  1-O ,  2-C ) :   1.2846
B(  2-C ,  3-O ) :   1.7853 B(  2-C ,  4-C ) :   0.9366 B(  4-C ,  5-H ) :   0.9165
B(  4-C ,  6-H ) :   0.9099 B(  4-C ,  7-H ) :   0.9131 B(  8-N ,  9-C ) :   0.9103
B(  8-N , 13-C ) :   0.9143 B(  8-N , 28-C ) :   0.8770 B(  9-C , 10-H ) :   0.8672
B(  9-C , 11-H ) :   0.9020 B(  9-C , 12-H ) :   0.9076 B( 13-C , 14-H ) :   0.8919
B( 13-C , 15-H ) :   0.9009 B( 13-C , 16-H ) :   0.8938 B( 17-C , 18-C ) :   1.4043
B( 17-C , 22-C ) :   1.3357 B( 17-C , 28-C ) :   0.9393 B( 18-C , 19-C ) :   1.4420
B( 18-C , 25-H ) :   0.9119 B( 19-C , 20-C ) :   1.4147 B( 19-C , 26-H ) :   0.9096
B( 20-C , 21-C ) :   1.4411 B( 20-C , 23-H ) :   0.9108 B( 21-C , 22-C ) :   1.3809
B( 21-C , 24-H ) :   0.9108 B( 22-C , 27-H ) :   0.7822 B( 28-C , 29-H ) :   0.8973
B( 28-C , 30-H ) :   0.9114 B( 31-O , 32-C ) :   1.2779 B( 31-O , 33-O ) :   0.1009
B( 32-C , 33-O ) :   1.9103 B( 32-C , 34-C ) :   0.9213 B( 34-C , 35-H ) :   0.9201
B( 34-C , 36-H ) :   0.9132 B( 34-C , 37-H ) :   0.9163

Dispersion correction           -0.027127469
FINAL SINGLE POINT ENERGY      -988.416000890479
Dispersion correction            ... done

DIPOLE MOMENT
-------------
                                X             Y             Z
Electronic contribution:     12.24875       9.63913      -7.43436
Nuclear contribution   :    -14.52223     -10.37886       8.85960
                        -----------------------------------------
Total Dipole Moment    :     -2.27348      -0.73972       1.42525
                        -----------------------------------------
Magnitude (a.u.)       :      2.78339
Magnitude (Debye)      :      7.07481

Rotational constants in cm-1:     0.013281     0.009061     0.006812
Rotational constants in MHz :   398.155628   271.628539   204.230386

                             ****ORCA TERMINATED NORMALLY****
TOTAL RUN TIME: 0 days 0 hours 9 minutes 8 seconds 853 msec
