                         Program Version 5.0.3 -  RELEASE  -
|  1> ! EnGrad PBEh-3c
|  2> %output
|  3> xyzfile=True
|  4> end
|  5> %scf
|  6> maxiter 250
|  7> end
|  8> %output
|  9> Print[P_Hirshfeld] = 1
| 10> end
| 11> % maxcore
| 12> 4000
| 13> *xyz 0 1
| 14> Pd   0.30786223   0.21348718  -0.14742636
| 15> O    1.67061636   1.39801254   0.70606100
| 16> C    1.41498010   2.64074141   0.46903415
| 17> O    0.32707755   3.07486244   0.09484506
| 18> C    2.60554097   3.57605851   0.65522879
| 19> H    2.25481689   4.52399791   1.05793780
| 20> H    3.04203128   3.81746587  -0.31901747
| 21> H    3.39634313   3.17589805   1.29299097
| 22> N   -1.40046466  -0.73278698  -1.03939593
| 23> C   -1.20244225  -1.87851681  -1.91557326
| 24> H   -0.58374952  -1.61458915  -2.75653580
| 25> H   -2.17279871  -2.24796809  -2.23187060
| 26> H   -0.68827501  -2.64231482  -1.35986119
| 27> C   -2.03389734   0.33710326  -1.80836465
| 28> H   -2.17915010   1.22892385  -1.21115901
| 29> H   -3.00412895  -0.00077847  -2.16648862
| 30> H   -1.41644946   0.61394183  -2.65423122
| 31> C   -1.58801149  -0.92713477   1.39914880
| 32> C   -1.48071805  -2.05443450   2.24089113
| 33> C   -1.14003467  -1.92180707   3.56848754
| 34> C   -0.99412167  -0.63615243   4.05428152
| 35> C   -1.00444545   0.46113844   3.19815881
| 36> C   -1.22061467   0.41817969   1.80977018
| 37> H   -0.92892403  -0.49622494   5.12697501
| 38> H   -0.87905884   1.41284170   3.67479884
| 39> H   -1.74860308  -3.05423528   1.88827869
| 40> H   -1.15334187  -2.77659568   4.24793890
| 41> H   -1.01186996   1.78656771   1.15308091
| 42> C   -2.27314631  -1.13791274   0.09315068
| 43> H   -3.16864599  -0.51177716   0.13961536
| 44> H   -2.61167057  -2.17145264  -0.05130097
| 45> O    1.77053933   0.06341853  -1.50594328
| 46> C    2.18777669  -0.77063042  -2.41975504
| 47> O    1.62383955  -1.73421298  -2.90577425
| 48> C    3.57744450  -0.43834209  -2.97532871
| 49> H    4.04882260  -1.33536598  -3.40646845
| 50> H    4.21957906  -0.00348602  -2.21766951
| 51> H    3.46662317   0.30134787  -3.77688072
| 52> *
| 53>
| 54>                          ****END OF INPUT****

CARTESIAN COORDINATES (ANGSTROEM)
---------------------------------
  Pd     0.307862    0.213487   -0.147426
  O      1.670616    1.398013    0.706061
  C      1.414980    2.640741    0.469034
  O      0.327078    3.074862    0.094845
  C      2.605541    3.576059    0.655229
  H      2.254817    4.523998    1.057938
  H      3.042031    3.817466   -0.319017
  H      3.396343    3.175898    1.292991
  N     -1.400465   -0.732787   -1.039396
  C     -1.202442   -1.878517   -1.915573
  H     -0.583750   -1.614589   -2.756536
  H     -2.172799   -2.247968   -2.231871
  H     -0.688275   -2.642315   -1.359861
  C     -2.033897    0.337103   -1.808365
  H     -2.179150    1.228924   -1.211159
  H     -3.004129   -0.000778   -2.166489
  H     -1.416449    0.613942   -2.654231
  C     -1.588011   -0.927135    1.399149
  C     -1.480718   -2.054435    2.240891
  C     -1.140035   -1.921807    3.568488
  C     -0.994122   -0.636152    4.054282
  C     -1.004445    0.461138    3.198159
  C     -1.220615    0.418180    1.809770
  H     -0.928924   -0.496225    5.126975
  H     -0.879059    1.412842    3.674799
  H     -1.748603   -3.054235    1.888279
  H     -1.153342   -2.776596    4.247939
  H     -1.011870    1.786568    1.153081
  C     -2.273146   -1.137913    0.093151
  H     -3.168646   -0.511777    0.139615
  H     -2.611671   -2.171453   -0.051301
  O      1.770539    0.063419   -1.505943
  C      2.187777   -0.770630   -2.419755
  O      1.623840   -1.734213   -2.905774
  C      3.577444   -0.438342   -2.975329
  H      4.048823   -1.335366   -3.406468
  H      4.219579   -0.003486   -2.217670
  H      3.466623    0.301348   -3.776881

 Total Charge           Charge          ....    0
 Multiplicity           Mult            ....    1
 Number of Electrons    NEL             ....  154
 Basis Dimension        Dim             ....  339

ORBITAL ENERGIES
----------------

  NO   OCC          E(Eh)            E(eV)
   0   2.0000     -19.486037      -530.2420
   1   2.0000     -19.472174      -529.8648
   2   2.0000     -19.454356      -529.3799
   3   2.0000     -19.427754      -528.6561
   4   2.0000     -14.724916      -400.6853
   5   2.0000     -10.548288      -287.0335
   6   2.0000     -10.531596      -286.5793
   7   2.0000     -10.518868      -286.2329
   8   2.0000     -10.509539      -285.9791
   9   2.0000     -10.508833      -285.9599
  10   2.0000     -10.486607      -285.3551
  11   2.0000     -10.481390      -285.2131
  12   2.0000     -10.479264      -285.1553
  13   2.0000     -10.478695      -285.1398
  14   2.0000     -10.472662      -284.9756
  15   2.0000     -10.467393      -284.8322
  16   2.0000     -10.422346      -283.6065
  17   2.0000     -10.408442      -283.2281
  18   2.0000      -3.673679       -99.9659
  19   2.0000      -2.323582       -63.2279
  20   2.0000      -2.314781       -62.9884
  21   2.0000      -2.284275       -62.1583
  22   2.0000      -1.164664       -31.6921
  23   2.0000      -1.137081       -30.9416
  24   2.0000      -1.090087       -29.6628
  25   2.0000      -1.066840       -29.0302
  26   2.0000      -1.050554       -28.5870
  27   2.0000      -0.987703       -26.8768
  28   2.0000      -0.898640       -24.4532
  29   2.0000      -0.867081       -23.5945
  30   2.0000      -0.827959       -22.5299
  31   2.0000      -0.808598       -22.0031
  32   2.0000      -0.801998       -21.8235
  33   2.0000      -0.783150       -21.3106
  34   2.0000      -0.725671       -19.7465
  35   2.0000      -0.706969       -19.2376
  36   2.0000      -0.684361       -18.6224
  37   2.0000      -0.615374       -16.7452
  38   2.0000      -0.599822       -16.3220
  39   2.0000      -0.590755       -16.0753
  40   2.0000      -0.582408       -15.8481
  41   2.0000      -0.579509       -15.7693
  42   2.0000      -0.567749       -15.4492
  43   2.0000      -0.540795       -14.7158
  44   2.0000      -0.533026       -14.5044
  45   2.0000      -0.524584       -14.2747
  46   2.0000      -0.511099       -13.9077
  47   2.0000      -0.510321       -13.8865
  48   2.0000      -0.503013       -13.6877
  49   2.0000      -0.498485       -13.5645
  50   2.0000      -0.492960       -13.4141
  51   2.0000      -0.486978       -13.2514
  52   2.0000      -0.482213       -13.1217
  53   2.0000      -0.480905       -13.0861
  54   2.0000      -0.463347       -12.6083
  55   2.0000      -0.459545       -12.5049
  56   2.0000      -0.444334       -12.0909
  57   2.0000      -0.440990       -12.0000
  58   2.0000      -0.439726       -11.9656
  59   2.0000      -0.431327       -11.7370
  60   2.0000      -0.424469       -11.5504
  61   2.0000      -0.417817       -11.3694
  62   2.0000      -0.413423       -11.2498
  63   2.0000      -0.406506       -11.0616
  64   2.0000      -0.398378       -10.8404
  65   2.0000      -0.385992       -10.5034
  66   2.0000      -0.364764        -9.9257
  67   2.0000      -0.359525        -9.7832
  68   2.0000      -0.350389        -9.5346
  69   2.0000      -0.330231        -8.9861
  70   2.0000      -0.326206        -8.8765
  71   2.0000      -0.315524        -8.5858
  72   2.0000      -0.313700        -8.5362
  73   2.0000      -0.306104        -8.3295
  74   2.0000      -0.292543        -7.9605
  75   2.0000      -0.290559        -7.9065
  76   2.0000      -0.277133        -7.5412
  77   0.0000      -0.084470        -2.2985
  78   0.0000      -0.025457        -0.6927
  79   0.0000      -0.004592        -0.1250
  80   0.0000       0.020527         0.5586
  81   0.0000       0.057216         1.5569

MULLIKEN ATOMIC CHARGES
-----------------------
   0 Pd:    0.540747
   1 O :   -0.501177
   2 C :    0.582356
   3 O :   -0.476498
   4 C :   -0.744960
   5 H :    0.236080
   6 H :    0.251513
   7 H :    0.243559
   8 N :   -0.478245
   9 C :   -0.533002
  10 H :    0.311358
  11 H :    0.209304
  12 H :    0.266105
  13 C :   -0.549095
  14 H :    0.281276
  15 H :    0.236066
  16 H :    0.287424
  17 C :    0.016610
  18 C :   -0.245736
  19 C :   -0.205275
  20 C :   -0.219169
  21 C :   -0.178203
  22 C :   -0.322863
  23 H :    0.237748
  24 H :    0.244527
  25 H :    0.231164
  26 H :    0.238537
  27 H :    0.318654
  28 C :   -0.321245
  29 H :    0.266550
  30 H :    0.257346
  31 O :   -0.530057
  32 C :    0.548576
  33 O :   -0.467936
  34 C :   -0.734947
  35 H :    0.234153
  36 H :    0.237822
  37 H :    0.230936
Sum of atomic charges:   -0.0000000

LOEWDIN ATOMIC CHARGES
----------------------
   0 Pd:   -0.308014
   1 O :   -0.156641
   2 C :    0.148649
   3 O :   -0.276785
   4 C :   -0.381066
   5 H :    0.142952
   6 H :    0.156770
   7 H :    0.144235
   8 N :   -0.054852
   9 C :   -0.241996
  10 H :    0.169839
  11 H :    0.113595
  12 H :    0.149835
  13 C :   -0.233669
  14 H :    0.155409
  15 H :    0.126138
  16 H :    0.159704
  17 C :   -0.017575
  18 C :   -0.126967
  19 C :   -0.103535
  20 C :   -0.130469
  21 C :   -0.095456
  22 C :   -0.117454
  23 H :    0.144952
  24 H :    0.147900
  25 H :    0.147355
  26 H :    0.146109
  27 H :    0.286651
  28 C :   -0.103052
  29 H :    0.154684
  30 H :    0.145839
  31 O :   -0.177779
  32 C :    0.130141
  33 O :   -0.285944
  34 C :   -0.385512
  35 H :    0.141050
  36 H :    0.139539
  37 H :    0.145425

  Mayer bond orders larger than 0.100000
B(  0-Pd,  1-O ) :   0.6389 B(  0-Pd,  3-O ) :   0.1025 B(  0-Pd,  8-N ) :   0.4312
B(  0-Pd, 22-C ) :   0.1967 B(  0-Pd, 31-O ) :   0.6428 B(  1-O ,  2-C ) :   1.3050
B(  2-C ,  3-O ) :   1.7774 B(  2-C ,  4-C ) :   0.9314 B(  4-C ,  5-H ) :   0.9159
B(  4-C ,  6-H ) :   0.9095 B(  4-C ,  7-H ) :   0.9137 B(  8-N ,  9-C ) :   0.9139
B(  8-N , 13-C ) :   0.9171 B(  8-N , 28-C ) :   0.8756 B(  9-C , 10-H ) :   0.8656
B(  9-C , 11-H ) :   0.9021 B(  9-C , 12-H ) :   0.9073 B( 13-C , 14-H ) :   0.8909
B( 13-C , 15-H ) :   0.9007 B( 13-C , 16-H ) :   0.8941 B( 17-C , 18-C ) :   1.4180
B( 17-C , 22-C ) :   1.2998 B( 17-C , 28-C ) :   0.9378 B( 18-C , 19-C ) :   1.4360
B( 18-C , 25-H ) :   0.9122 B( 19-C , 20-C ) :   1.4150 B( 19-C , 26-H ) :   0.9100
B( 20-C , 21-C ) :   1.4453 B( 20-C , 23-H ) :   0.9109 B( 21-C , 22-C ) :   1.3643
B( 21-C , 24-H ) :   0.9117 B( 22-C , 27-H ) :   0.7175 B( 28-C , 29-H ) :   0.8976
B( 28-C , 30-H ) :   0.9110 B( 31-O , 32-C ) :   1.2776 B( 31-O , 33-O ) :   0.1049
B( 32-C , 33-O ) :   1.8997 B( 32-C , 34-C ) :   0.9196 B( 34-C , 35-H ) :   0.9215
B( 34-C , 36-H ) :   0.9131 B( 34-C , 37-H ) :   0.9170

Dispersion correction           -0.027179567
FINAL SINGLE POINT ENERGY      -988.434068801823
Dispersion correction            ... done

DIPOLE MOMENT
-------------
                                X             Y             Z
Electronic contribution:     11.00721       9.50017      -6.22617
Nuclear contribution   :    -13.27381     -10.18681       7.58682
                        -----------------------------------------
Total Dipole Moment    :     -2.26660      -0.68664       1.36065
                        -----------------------------------------
Magnitude (a.u.)       :      2.73136
Magnitude (Debye)      :      6.94256

Rotational constants in cm-1:     0.013174     0.009207     0.006861
Rotational constants in MHz :   394.945059   276.021152   205.673912

                             ****ORCA TERMINATED NORMALLY****
TOTAL RUN TIME: 0 days 0 hours 9 minutes 6 seconds 518 msec
