                         Program Version 5.0.3 -  RELEASE  -
|  1> ! EnGrad PBEh-3c
|  2> %output
|  3> xyzfile=True
|  4> end
|  5> %scf
|  6> maxiter 250
|  7> end
|  8> %output
|  9> Print[P_Hirshfeld] = 1
| 10> end
| 11> % maxcore
| 12> 4000
| 13> *xyz 0 1
| 14> Pd   0.29790149   0.21941231  -0.13611644
| 15> O    1.65353885   1.40749558   0.70878949
| 16> C    1.39059484   2.65467055   0.48453766
| 17> O    0.30786652   3.08693454   0.14449455
| 18> C    2.59729165   3.58126462   0.65917160
| 19> H    2.25674729   4.53455089   1.06265975
| 20> H    3.02804197   3.80688827  -0.32379934
| 21> H    3.38851697   3.17065054   1.29151203
| 22> N   -1.40853174  -0.73391577  -1.03608425
| 23> C   -1.19753373  -1.88333679  -1.90565222
| 24> H   -0.57221080  -1.62291186  -2.74343065
| 25> H   -2.16296796  -2.25871020  -2.22885224
| 26> H   -0.68807316  -2.64649055  -1.34347826
| 27> C   -2.03160916   0.33082361  -1.81488797
| 28> H   -2.17529059   1.22439752  -1.22020150
| 29> H   -3.00134749  -0.00580069  -2.17500341
| 30> H   -1.40534807   0.60116104  -2.65744636
| 31> C   -1.57710255  -0.92936143   1.39050215
| 32> C   -1.50272383  -2.04969090   2.24339875
| 33> C   -1.15948218  -1.91599500   3.57278447
| 34> C   -0.98548309  -0.62824838   4.04459462
| 35> C   -0.96625753   0.46300523   3.17568046
| 36> C   -1.17971370   0.41918817   1.78294492
| 37> H   -0.91942573  -0.49278672   5.11704740
| 38> H   -0.83185752   1.41256007   3.65399822
| 39> H   -1.78969902  -3.04667978   1.88888544
| 40> H   -1.18283534  -2.76624166   4.25327586
| 41> H   -0.92693715   1.68765628   1.11974140
| 42> C   -2.28058005  -1.13362175   0.09087768
| 43> H   -3.16607546  -0.49645904   0.14017648
| 44> H   -2.62812432  -2.16361031  -0.05866031
| 45> O    1.77710980   0.05630512  -1.49041739
| 46> C    2.18893535  -0.77063087  -2.40776267
| 47> O    1.62977635  -1.74377133  -2.89812094
| 48> C    3.56534817  -0.42353177  -2.97577958
| 49> H    4.03429648  -1.32258527  -3.41597325
| 50> H    4.21336664   0.01442155  -2.21700647
| 51> H    3.43631638   0.32210152  -3.77417213
| 52> *
| 53>
| 54>                          ****END OF INPUT****

CARTESIAN COORDINATES (ANGSTROEM)
---------------------------------
  Pd     0.297901    0.219412   -0.136116
  O      1.653539    1.407496    0.708789
  C      1.390595    2.654671    0.484538
  O      0.307867    3.086935    0.144495
  C      2.597292    3.581265    0.659172
  H      2.256747    4.534551    1.062660
  H      3.028042    3.806888   -0.323799
  H      3.388517    3.170651    1.291512
  N     -1.408532   -0.733916   -1.036084
  C     -1.197534   -1.883337   -1.905652
  H     -0.572211   -1.622912   -2.743431
  H     -2.162968   -2.258710   -2.228852
  H     -0.688073   -2.646491   -1.343478
  C     -2.031609    0.330824   -1.814888
  H     -2.175291    1.224398   -1.220201
  H     -3.001347   -0.005801   -2.175003
  H     -1.405348    0.601161   -2.657446
  C     -1.577103   -0.929361    1.390502
  C     -1.502724   -2.049691    2.243399
  C     -1.159482   -1.915995    3.572784
  C     -0.985483   -0.628248    4.044595
  C     -0.966258    0.463005    3.175680
  C     -1.179714    0.419188    1.782945
  H     -0.919426   -0.492787    5.117047
  H     -0.831858    1.412560    3.653998
  H     -1.789699   -3.046680    1.888885
  H     -1.182835   -2.766242    4.253276
  H     -0.926937    1.687656    1.119741
  C     -2.280580   -1.133622    0.090878
  H     -3.166075   -0.496459    0.140176
  H     -2.628124   -2.163610   -0.058660
  O      1.777110    0.056305   -1.490417
  C      2.188935   -0.770631   -2.407763
  O      1.629776   -1.743771   -2.898121
  C      3.565348   -0.423532   -2.975780
  H      4.034296   -1.322585   -3.415973
  H      4.213367    0.014422   -2.217006
  H      3.436316    0.322102   -3.774172

 Total Charge           Charge          ....    0
 Multiplicity           Mult            ....    1
 Number of Electrons    NEL             ....  154
 Basis Dimension        Dim             ....  339

ORBITAL ENERGIES
----------------

  NO   OCC          E(Eh)            E(eV)
   0   2.0000     -19.485838      -530.2366
   1   2.0000     -19.472167      -529.8646
   2   2.0000     -19.457309      -529.4603
   3   2.0000     -19.426138      -528.6121
   4   2.0000     -14.724428      -400.6720
   5   2.0000     -10.548591      -287.0417
   6   2.0000     -10.530845      -286.5589
   7   2.0000     -10.517623      -286.1991
   8   2.0000     -10.509838      -285.9872
   9   2.0000     -10.509424      -285.9760
  10   2.0000     -10.487087      -285.3682
  11   2.0000     -10.481813      -285.2246
  12   2.0000     -10.480758      -285.1959
  13   2.0000     -10.480185      -285.1803
  14   2.0000     -10.473399      -284.9957
  15   2.0000     -10.467300      -284.8297
  16   2.0000     -10.423386      -283.6348
  17   2.0000     -10.408786      -283.2375
  18   2.0000      -3.675435      -100.0137
  19   2.0000      -2.325126       -63.2699
  20   2.0000      -2.316621       -63.0385
  21   2.0000      -2.286235       -62.2116
  22   2.0000      -1.170598       -31.8536
  23   2.0000      -1.134691       -30.8765
  24   2.0000      -1.091748       -29.7080
  25   2.0000      -1.071560       -29.1586
  26   2.0000      -1.048987       -28.5444
  27   2.0000      -0.987362       -26.8675
  28   2.0000      -0.898836       -24.4586
  29   2.0000      -0.867809       -23.6143
  30   2.0000      -0.828538       -22.5457
  31   2.0000      -0.809357       -22.0237
  32   2.0000      -0.801255       -21.8032
  33   2.0000      -0.782065       -21.2811
  34   2.0000      -0.726115       -19.7586
  35   2.0000      -0.707844       -19.2614
  36   2.0000      -0.685498       -18.6533
  37   2.0000      -0.616651       -16.7799
  38   2.0000      -0.600032       -16.3277
  39   2.0000      -0.590119       -16.0579
  40   2.0000      -0.583331       -15.8733
  41   2.0000      -0.580834       -15.8053
  42   2.0000      -0.568354       -15.4657
  43   2.0000      -0.543435       -14.7876
  44   2.0000      -0.534761       -14.5516
  45   2.0000      -0.527146       -14.3444
  46   2.0000      -0.512728       -13.9520
  47   2.0000      -0.510558       -13.8930
  48   2.0000      -0.506963       -13.7952
  49   2.0000      -0.498795       -13.5729
  50   2.0000      -0.493675       -13.4336
  51   2.0000      -0.488496       -13.2926
  52   2.0000      -0.481449       -13.1009
  53   2.0000      -0.479733       -13.0542
  54   2.0000      -0.464579       -12.6418
  55   2.0000      -0.461954       -12.5704
  56   2.0000      -0.444504       -12.0956
  57   2.0000      -0.441893       -12.0245
  58   2.0000      -0.440387       -11.9835
  59   2.0000      -0.431964       -11.7543
  60   2.0000      -0.425639       -11.5822
  61   2.0000      -0.418447       -11.3865
  62   2.0000      -0.415751       -11.3132
  63   2.0000      -0.407110       -11.0780
  64   2.0000      -0.399637       -10.8747
  65   2.0000      -0.387128       -10.5343
  66   2.0000      -0.366195        -9.9647
  67   2.0000      -0.360974        -9.8226
  68   2.0000      -0.350923        -9.5491
  69   2.0000      -0.331099        -9.0097
  70   2.0000      -0.326301        -8.8791
  71   2.0000      -0.316480        -8.6118
  72   2.0000      -0.314189        -8.5495
  73   2.0000      -0.306749        -8.3471
  74   2.0000      -0.293983        -7.9997
  75   2.0000      -0.290893        -7.9156
  76   2.0000      -0.275829        -7.5057
  77   0.0000      -0.085221        -2.3190
  78   0.0000      -0.025931        -0.7056
  79   0.0000      -0.004962        -0.1350
  80   0.0000       0.038240         1.0406
  81   0.0000       0.058312         1.5867

MULLIKEN ATOMIC CHARGES
-----------------------
   0 Pd:    0.527236
   1 O :   -0.503984
   2 C :    0.576706
   3 O :   -0.461661
   4 C :   -0.743697
   5 H :    0.234847
   6 H :    0.250357
   7 H :    0.244433
   8 N :   -0.476310
   9 C :   -0.534568
  10 H :    0.312280
  11 H :    0.209154
  12 H :    0.266267
  13 C :   -0.549310
  14 H :    0.280944
  15 H :    0.236338
  16 H :    0.287018
  17 C :    0.025431
  18 C :   -0.249264
  19 C :   -0.204273
  20 C :   -0.219508
  21 C :   -0.176357
  22 C :   -0.334753
  23 H :    0.238169
  24 H :    0.244707
  25 H :    0.231035
  26 H :    0.239716
  27 H :    0.330190
  28 C :   -0.321761
  29 H :    0.267528
  30 H :    0.257391
  31 O :   -0.525340
  32 C :    0.550738
  33 O :   -0.475972
  34 C :   -0.732478
  35 H :    0.233316
  36 H :    0.235756
  37 H :    0.229682
Sum of atomic charges:   -0.0000000

LOEWDIN ATOMIC CHARGES
----------------------
   0 Pd:   -0.319832
   1 O :   -0.159268
   2 C :    0.141042
   3 O :   -0.260850
   4 C :   -0.381238
   5 H :    0.142194
   6 H :    0.156376
   7 H :    0.144839
   8 N :   -0.055260
   9 C :   -0.242343
  10 H :    0.170326
  11 H :    0.113390
  12 H :    0.149897
  13 C :   -0.233807
  14 H :    0.155078
  15 H :    0.126343
  16 H :    0.159858
  17 C :   -0.011715
  18 C :   -0.128595
  19 C :   -0.101758
  20 C :   -0.131668
  21 C :   -0.089976
  22 C :   -0.116134
  23 H :    0.145246
  24 H :    0.148735
  25 H :    0.147184
  26 H :    0.146321
  27 H :    0.290162
  28 C :   -0.103868
  29 H :    0.154684
  30 H :    0.145696
  31 O :   -0.177167
  32 C :    0.130158
  33 O :   -0.295256
  34 C :   -0.384427
  35 H :    0.141185
  36 H :    0.139211
  37 H :    0.145238

  Mayer bond orders larger than 0.100000
B(  0-Pd,  1-O ) :   0.6457 B(  0-Pd,  8-N ) :   0.4290 B(  0-Pd, 22-C ) :   0.2201
B(  0-Pd, 31-O ) :   0.6345 B(  1-O ,  2-C ) :   1.2919 B(  2-C ,  3-O ) :   1.7985
B(  2-C ,  4-C ) :   0.9283 B(  4-C ,  5-H ) :   0.9162 B(  4-C ,  6-H ) :   0.9101
B(  4-C ,  7-H ) :   0.9138 B(  8-N ,  9-C ) :   0.9137 B(  8-N , 13-C ) :   0.9181
B(  8-N , 28-C ) :   0.8759 B(  9-C , 10-H ) :   0.8644 B(  9-C , 11-H ) :   0.9021
B(  9-C , 12-H ) :   0.9072 B( 13-C , 14-H ) :   0.8909 B( 13-C , 15-H ) :   0.9006
B( 13-C , 16-H ) :   0.8944 B( 17-C , 18-C ) :   1.4249 B( 17-C , 22-C ) :   1.2751
B( 17-C , 28-C ) :   0.9369 B( 18-C , 19-C ) :   1.4306 B( 18-C , 25-H ) :   0.9127
B( 19-C , 20-C ) :   1.4174 B( 19-C , 26-H ) :   0.9094 B( 20-C , 21-C ) :   1.4414
B( 20-C , 23-H ) :   0.9110 B( 21-C , 22-C ) :   1.3623 B( 21-C , 24-H ) :   0.9117
B( 22-C , 27-H ) :   0.7036 B( 28-C , 29-H ) :   0.8974 B( 28-C , 30-H ) :   0.9108
B( 31-O , 32-C ) :   1.2886 B( 31-O , 33-O ) :   0.1059 B( 32-C , 33-O ) :   1.8888
B( 32-C , 34-C ) :   0.9191 B( 34-C , 35-H ) :   0.9219 B( 34-C , 36-H ) :   0.9137
B( 34-C , 37-H ) :   0.9172

Dispersion correction           -0.026907864
FINAL SINGLE POINT ENERGY      -988.444789954679
Dispersion correction            ... done

DIPOLE MOMENT
-------------
                                X             Y             Z
Electronic contribution:     10.47982       9.80827      -5.68900
Nuclear contribution   :    -12.77303     -10.47000       7.05651
                        -----------------------------------------
Total Dipole Moment    :     -2.29321      -0.66174       1.36751
                        -----------------------------------------
Magnitude (a.u.)       :      2.75078
Magnitude (Debye)      :      6.99193

Rotational constants in cm-1:     0.013156     0.009267     0.006879
Rotational constants in MHz :   394.404641   277.807977   206.216179

                             ****ORCA TERMINATED NORMALLY****
TOTAL RUN TIME: 0 days 0 hours 8 minutes 51 seconds 242 msec
