                         Program Version 5.0.3 -  RELEASE  -
|  1> ! EnGrad PBEh-3c
|  2> %output
|  3> xyzfile=True
|  4> end
|  5> %scf
|  6> maxiter 250
|  7> end
|  8> %output
|  9> Print[P_Hirshfeld] = 1
| 10> end
| 11> % maxcore
| 12> 4000
| 13> *xyz 0 1
| 14> Pd   0.28826594   0.22333178  -0.12284507
| 15> O    1.62668992   1.41933682   0.71209324
| 16> C    1.36686103   2.67295045   0.50736425
| 17> O    0.27361772   3.10561811   0.21860877
| 18> C    2.58166104   3.58757853   0.66392600
| 19> H    2.26294952   4.54916441   1.06978128
| 20> H    3.00646099   3.78867899  -0.32787646
| 21> H    3.37338200   3.16146792   1.28706349
| 22> N   -1.41121354  -0.72965386  -1.03093206
| 23> C   -1.18595170  -1.89253807  -1.89022559
| 24> H   -0.55183204  -1.63513488  -2.72774695
| 25> H   -2.15215114  -2.27603407  -2.22860341
| 26> H   -0.68261654  -2.65674072  -1.31399193
| 27> C   -2.02869183   0.32590330  -1.82731836
| 28> H   -2.17115574   1.22057752  -1.23127339
| 29> H   -2.99967478  -0.01571234  -2.19108394
| 30> H   -1.38767662   0.58240758  -2.66651149
| 31> C   -1.56409251  -0.92141208   1.37528645
| 32> C   -1.53154076  -2.03655584   2.24072734
| 33> C   -1.19051458  -1.90293319   3.57576232
| 34> C   -0.97535565  -0.61695794   4.02884621
| 35> C   -0.90666748   0.47232695   3.14512872
| 36> C   -1.11950997   0.42846249   1.74806961
| 37> H   -0.90331911  -0.48288549   5.10061978
| 38> H   -0.75389971   1.41893118   3.62483205
| 39> H   -1.84954718  -3.02681795   1.88858420
| 40> H   -1.22610845  -2.74919043   4.25915903
| 41> H   -0.81849888   1.48054940   1.08989609
| 42> C   -2.28901994  -1.12249648   0.08560214
| 43> H   -3.16446451  -0.47597356   0.13566221
| 44> H   -2.65006044  -2.14911293  -0.06505269
| 45> O    1.78344292   0.04782609  -1.48082632
| 46> C    2.18896033  -0.77839849  -2.39522038
| 47> O    1.63298881  -1.75207536  -2.86645153
| 48> C    3.54695107  -0.39855409  -2.97506179
| 49> H    4.00843467  -1.29327001  -3.42650610
| 50> H    4.20574090   0.03938675  -2.21800594
| 51> H    3.39060110   0.34781418  -3.76932993
| 52> *
| 53>
| 54>                          ****END OF INPUT****

CARTESIAN COORDINATES (ANGSTROEM)
---------------------------------
  Pd     0.288266    0.223332   -0.122845
  O      1.626690    1.419337    0.712093
  C      1.366861    2.672950    0.507364
  O      0.273618    3.105618    0.218609
  C      2.581661    3.587579    0.663926
  H      2.262950    4.549164    1.069781
  H      3.006461    3.788679   -0.327876
  H      3.373382    3.161468    1.287063
  N     -1.411214   -0.729654   -1.030932
  C     -1.185952   -1.892538   -1.890226
  H     -0.551832   -1.635135   -2.727747
  H     -2.152151   -2.276034   -2.228603
  H     -0.682617   -2.656741   -1.313992
  C     -2.028692    0.325903   -1.827318
  H     -2.171156    1.220578   -1.231273
  H     -2.999675   -0.015712   -2.191084
  H     -1.387677    0.582408   -2.666511
  C     -1.564093   -0.921412    1.375286
  C     -1.531541   -2.036556    2.240727
  C     -1.190515   -1.902933    3.575762
  C     -0.975356   -0.616958    4.028846
  C     -0.906667    0.472327    3.145129
  C     -1.119510    0.428462    1.748070
  H     -0.903319   -0.482885    5.100620
  H     -0.753900    1.418931    3.624832
  H     -1.849547   -3.026818    1.888584
  H     -1.226108   -2.749190    4.259159
  H     -0.818499    1.480549    1.089896
  C     -2.289020   -1.122496    0.085602
  H     -3.164465   -0.475974    0.135662
  H     -2.650060   -2.149113   -0.065053
  O      1.783443    0.047826   -1.480826
  C      2.188960   -0.778398   -2.395220
  O      1.632989   -1.752075   -2.866452
  C      3.546951   -0.398554   -2.975062
  H      4.008435   -1.293270   -3.426506
  H      4.205741    0.039387   -2.218006
  H      3.390601    0.347814   -3.769330

 Total Charge           Charge          ....    0
 Multiplicity           Mult            ....    1
 Number of Electrons    NEL             ....  154
 Basis Dimension        Dim             ....  339

ORBITAL ENERGIES
----------------

  NO   OCC          E(Eh)            E(eV)
   0   2.0000     -19.484380      -530.1969
   1   2.0000     -19.469775      -529.7995
   2   2.0000     -19.453308      -529.3514
   3   2.0000     -19.426062      -528.6100
   4   2.0000     -14.725049      -400.6889
   5   2.0000     -10.546283      -286.9789
   6   2.0000     -10.528532      -286.4959
   7   2.0000     -10.512367      -286.0561
   8   2.0000     -10.511398      -286.0297
   9   2.0000     -10.509949      -285.9903
  10   2.0000     -10.488959      -285.4191
  11   2.0000     -10.484516      -285.2982
  12   2.0000     -10.482928      -285.2550
  13   2.0000     -10.481912      -285.2273
  14   2.0000     -10.475002      -285.0393
  15   2.0000     -10.470046      -284.9044
  16   2.0000     -10.423084      -283.6265
  17   2.0000     -10.408284      -283.2238
  18   2.0000      -3.678231      -100.0898
  19   2.0000      -2.327654       -63.3387
  20   2.0000      -2.319965       -63.1294
  21   2.0000      -2.289158       -62.2912
  22   2.0000      -1.169941       -31.8357
  23   2.0000      -1.138072       -30.9685
  24   2.0000      -1.092897       -29.7392
  25   2.0000      -1.069704       -29.1081
  26   2.0000      -1.050748       -28.5923
  27   2.0000      -0.986863       -26.8539
  28   2.0000      -0.899212       -24.4688
  29   2.0000      -0.870479       -23.6870
  30   2.0000      -0.828117       -22.5342
  31   2.0000      -0.810116       -22.0444
  32   2.0000      -0.801073       -21.7983
  33   2.0000      -0.782275       -21.2868
  34   2.0000      -0.728207       -19.8155
  35   2.0000      -0.710074       -19.3221
  36   2.0000      -0.688239       -18.7279
  37   2.0000      -0.619723       -16.8635
  38   2.0000      -0.599755       -16.3202
  39   2.0000      -0.589014       -16.0279
  40   2.0000      -0.585885       -15.9427
  41   2.0000      -0.582085       -15.8393
  42   2.0000      -0.570693       -15.5294
  43   2.0000      -0.551505       -15.0072
  44   2.0000      -0.537455       -14.6249
  45   2.0000      -0.527398       -14.3512
  46   2.0000      -0.513910       -13.9842
  47   2.0000      -0.510903       -13.9024
  48   2.0000      -0.510427       -13.8894
  49   2.0000      -0.498670       -13.5695
  50   2.0000      -0.494896       -13.4668
  51   2.0000      -0.489800       -13.3281
  52   2.0000      -0.483076       -13.1452
  53   2.0000      -0.480746       -13.0818
  54   2.0000      -0.469072       -12.7641
  55   2.0000      -0.462683       -12.5903
  56   2.0000      -0.445147       -12.1131
  57   2.0000      -0.441750       -12.0206
  58   2.0000      -0.439793       -11.9674
  59   2.0000      -0.435009       -11.8372
  60   2.0000      -0.427892       -11.6435
  61   2.0000      -0.419699       -11.4206
  62   2.0000      -0.417968       -11.3735
  63   2.0000      -0.407845       -11.0980
  64   2.0000      -0.400458       -10.8970
  65   2.0000      -0.387861       -10.5542
  66   2.0000      -0.368806       -10.0357
  67   2.0000      -0.365015        -9.9326
  68   2.0000      -0.351603        -9.5676
  69   2.0000      -0.331161        -9.0113
  70   2.0000      -0.326679        -8.8894
  71   2.0000      -0.314830        -8.5670
  72   2.0000      -0.313470        -8.5300
  73   2.0000      -0.306129        -8.3302
  74   2.0000      -0.294291        -8.0081
  75   2.0000      -0.290924        -7.9165
  76   2.0000      -0.276811        -7.5324
  77   0.0000      -0.086290        -2.3481
  78   0.0000      -0.027200        -0.7402
  79   0.0000      -0.006699        -0.1823
  80   0.0000       0.055931         1.5220
  81   0.0000       0.062860         1.7105

MULLIKEN ATOMIC CHARGES
-----------------------
   0 Pd:    0.502670
   1 O :   -0.510038
   2 C :    0.574068
   3 O :   -0.457956
   4 C :   -0.742820
   5 H :    0.235327
   6 H :    0.249531
   7 H :    0.244318
   8 N :   -0.476937
   9 C :   -0.533487
  10 H :    0.312527
  11 H :    0.207737
  12 H :    0.266091
  13 C :   -0.546634
  14 H :    0.281634
  15 H :    0.236048
  16 H :    0.285870
  17 C :    0.025425
  18 C :   -0.250275
  19 C :   -0.203337
  20 C :   -0.218393
  21 C :   -0.181964
  22 C :   -0.322435
  23 H :    0.238847
  24 H :    0.246001
  25 H :    0.230956
  26 H :    0.241617
  27 H :    0.342707
  28 C :   -0.323844
  29 H :    0.269292
  30 H :    0.258135
  31 O :   -0.520454
  32 C :    0.547441
  33 O :   -0.470785
  34 C :   -0.733141
  35 H :    0.231660
  36 H :    0.235310
  37 H :    0.229286
Sum of atomic charges:   -0.0000000

LOEWDIN ATOMIC CHARGES
----------------------
   0 Pd:   -0.330401
   1 O :   -0.162002
   2 C :    0.137113
   3 O :   -0.258561
   4 C :   -0.380628
   5 H :    0.142395
   6 H :    0.156393
   7 H :    0.145240
   8 N :   -0.055890
   9 C :   -0.241228
  10 H :    0.170711
  11 H :    0.112978
  12 H :    0.150262
  13 C :   -0.232712
  14 H :    0.155594
  15 H :    0.126860
  16 H :    0.160098
  17 C :   -0.003721
  18 C :   -0.130260
  19 C :   -0.100018
  20 C :   -0.132689
  21 C :   -0.079982
  22 C :   -0.107194
  23 H :    0.145634
  24 H :    0.150947
  25 H :    0.146869
  26 H :    0.146891
  27 H :    0.277483
  28 C :   -0.105587
  29 H :    0.154644
  30 H :    0.145920
  31 O :   -0.178447
  32 C :    0.120027
  33 O :   -0.288085
  34 C :   -0.384352
  35 H :    0.140263
  36 H :    0.140063
  37 H :    0.145369

  Mayer bond orders larger than 0.100000
B(  0-Pd,  1-O ) :   0.6527 B(  0-Pd,  8-N ) :   0.4275 B(  0-Pd, 22-C ) :   0.2503
B(  0-Pd, 31-O ) :   0.6323 B(  1-O ,  2-C ) :   1.2739 B(  2-C ,  3-O ) :   1.8194
B(  2-C ,  4-C ) :   0.9283 B(  4-C ,  5-H ) :   0.9166 B(  4-C ,  6-H ) :   0.9101
B(  4-C ,  7-H ) :   0.9139 B(  8-N ,  9-C ) :   0.9111 B(  8-N , 13-C ) :   0.9171
B(  8-N , 28-C ) :   0.8761 B(  9-C , 10-H ) :   0.8635 B(  9-C , 11-H ) :   0.9023
B(  9-C , 12-H ) :   0.9068 B( 13-C , 14-H ) :   0.8905 B( 13-C , 15-H ) :   0.9007
B( 13-C , 16-H ) :   0.8949 B( 17-C , 18-C ) :   1.4314 B( 17-C , 22-C ) :   1.2324
B( 17-C , 28-C ) :   0.9364 B( 18-C , 19-C ) :   1.4196 B( 18-C , 25-H ) :   0.9140
B( 19-C , 20-C ) :   1.4237 B( 19-C , 26-H ) :   0.9087 B( 20-C , 21-C ) :   1.4284
B( 20-C , 23-H ) :   0.9114 B( 21-C , 22-C ) :   1.3700 B( 21-C , 24-H ) :   0.9114
B( 22-C , 27-H ) :   0.6979 B( 28-C , 29-H ) :   0.8965 B( 28-C , 30-H ) :   0.9102
B( 31-O , 32-C ) :   1.2930 B( 31-O , 33-O ) :   0.1053 B( 32-C , 33-O ) :   1.8975
B( 32-C , 34-C ) :   0.9170 B( 34-C , 35-H ) :   0.9218 B( 34-C , 36-H ) :   0.9149
B( 34-C , 37-H ) :   0.9176

Dispersion correction           -0.026412552
FINAL SINGLE POINT ENERGY      -988.466039522878
Dispersion correction            ... done

DIPOLE MOMENT
-------------
                                X             Y             Z
Electronic contribution:      9.99787       9.84946      -5.12626
Nuclear contribution   :    -12.30590     -10.60267       6.45442
                        -----------------------------------------
Total Dipole Moment    :     -2.30803      -0.75321       1.32816
                        -----------------------------------------
Magnitude (a.u.)       :      2.76737
Magnitude (Debye)      :      7.03409

Rotational constants in cm-1:     0.013149     0.009365     0.006914
Rotational constants in MHz :   394.201412   280.741287   207.285634

                             ****ORCA TERMINATED NORMALLY****
TOTAL RUN TIME: 0 days 0 hours 7 minutes 53 seconds 984 msec
