                         Program Version 5.0.3 -  RELEASE  -
|  1> ! EnGrad PBEh-3c
|  2> %output
|  3> xyzfile=True
|  4> end
|  5> %scf
|  6> maxiter 250
|  7> end
|  8> %output
|  9> Print[P_Hirshfeld] = 1
| 10> end
| 11> % maxcore
| 12> 4000
| 13> *xyz 0 1
| 14> Pd   0.29428894   0.22801909  -0.12696333
| 15> O    1.60668751   1.42710837   0.71213381
| 16> C    1.37452261   2.68037928   0.53692100
| 17> O    0.23018423   3.12706823   0.28177976
| 18> C    2.56493408   3.59275789   0.66540398
| 19> H    2.27110980   4.56062467   1.07815175
| 20> H    2.98800972   3.76665290  -0.33018927
| 21> H    3.35593858   3.15068464   1.27875172
| 22> N   -1.40103379  -0.72227713  -1.03105251
| 23> C   -1.16883190  -1.90650307  -1.87144246
| 24> H   -0.52743099  -1.65382154  -2.71059537
| 25> H   -2.13634066  -2.29607884  -2.23065844
| 26> H   -0.67170014  -2.67721934  -1.28357799
| 27> C   -2.02663827   0.32276777  -1.84380360
| 28> H   -2.17085952   1.21747667  -1.24222034
| 29> H   -3.00058170  -0.02751152  -2.21129807
| 30> H   -1.37155137   0.55930432  -2.68071915
| 31> C   -1.55487030  -0.90490053   1.36307648
| 32> C   -1.56529509  -2.01427025   2.23453377
| 33> C   -1.23757086  -1.88345575   3.57583413
| 34> C   -0.97241342  -0.60109613   4.01434977
| 35> C   -0.84415936   0.48469066   3.12424327
| 36> C   -1.05741242   0.40469877   1.73461946
| 37> H   -0.88028120  -0.46890772   5.08816792
| 38> H   -0.66635360   1.43549677   3.59647847
| 39> H   -1.90313734  -2.99139427   1.88165679
| 40> H   -1.26213804  -2.73006424   4.25959613
| 41> H   -0.76987641   1.24500478   1.09590745
| 42> C   -2.28988620  -1.10362073   0.07890728
| 43> H   -3.16657323  -0.45719085   0.11542597
| 44> H   -2.66390006  -2.12749200  -0.06852309
| 45> O    1.78159206   0.05475194  -1.48597027
| 46> C    2.19050011  -0.77540962  -2.38209185
| 47> O    1.62624173  -1.76348904  -2.81090038
| 48> C    3.52854994  -0.37015975  -2.97761369
| 49> H    3.96866135  -1.25713890  -3.43208449
| 50> H    4.19744071   0.06285185  -2.22830378
| 51> H    3.35018337   0.36959091  -3.76747349
| 52> *
| 53>
| 54>                          ****END OF INPUT****

CARTESIAN COORDINATES (ANGSTROEM)
---------------------------------
  Pd     0.294289    0.228019   -0.126963
  O      1.606688    1.427108    0.712134
  C      1.374523    2.680379    0.536921
  O      0.230184    3.127068    0.281780
  C      2.564934    3.592758    0.665404
  H      2.271110    4.560625    1.078152
  H      2.988010    3.766653   -0.330189
  H      3.355939    3.150685    1.278752
  N     -1.401034   -0.722277   -1.031053
  C     -1.168832   -1.906503   -1.871442
  H     -0.527431   -1.653822   -2.710595
  H     -2.136341   -2.296079   -2.230658
  H     -0.671700   -2.677219   -1.283578
  C     -2.026638    0.322768   -1.843804
  H     -2.170860    1.217477   -1.242220
  H     -3.000582   -0.027512   -2.211298
  H     -1.371551    0.559304   -2.680719
  C     -1.554870   -0.904901    1.363076
  C     -1.565295   -2.014270    2.234534
  C     -1.237571   -1.883456    3.575834
  C     -0.972413   -0.601096    4.014350
  C     -0.844159    0.484691    3.124243
  C     -1.057412    0.404699    1.734619
  H     -0.880281   -0.468908    5.088168
  H     -0.666354    1.435497    3.596478
  H     -1.903137   -2.991394    1.881657
  H     -1.262138   -2.730064    4.259596
  H     -0.769876    1.245005    1.095907
  C     -2.289886   -1.103621    0.078907
  H     -3.166573   -0.457191    0.115426
  H     -2.663900   -2.127492   -0.068523
  O      1.781592    0.054752   -1.485970
  C      2.190500   -0.775410   -2.382092
  O      1.626242   -1.763489   -2.810900
  C      3.528550   -0.370160   -2.977614
  H      3.968661   -1.257139   -3.432084
  H      4.197441    0.062852   -2.228304
  H      3.350183    0.369591   -3.767473

 Total Charge           Charge          ....    0
 Multiplicity           Mult            ....    1
 Number of Electrons    NEL             ....  154
 Basis Dimension        Dim             ....  339

ORBITAL ENERGIES
----------------

  NO   OCC          E(Eh)            E(eV)
   0   2.0000     -19.486404      -530.2520
   1   2.0000     -19.470425      -529.8172
   2   2.0000     -19.440928      -529.0146
   3   2.0000     -19.426058      -528.6099
   4   2.0000     -14.726800      -400.7366
   5   2.0000     -10.544819      -286.9391
   6   2.0000     -10.528416      -286.4928
   7   2.0000     -10.510982      -286.0184
   8   2.0000     -10.508187      -285.9423
   9   2.0000     -10.499239      -285.6988
  10   2.0000     -10.491307      -285.4830
  11   2.0000     -10.486072      -285.3405
  12   2.0000     -10.482529      -285.2441
  13   2.0000     -10.481445      -285.2146
  14   2.0000     -10.475962      -285.0654
  15   2.0000     -10.472982      -284.9843
  16   2.0000     -10.423274      -283.6317
  17   2.0000     -10.408301      -283.2243
  18   2.0000      -3.681844      -100.1881
  19   2.0000      -2.331277       -63.4373
  20   2.0000      -2.324716       -63.2587
  21   2.0000      -2.292274       -62.3759
  22   2.0000      -1.157969       -31.5099
  23   2.0000      -1.142823       -31.0978
  24   2.0000      -1.092667       -29.7330
  25   2.0000      -1.053912       -28.6784
  26   2.0000      -1.050982       -28.5987
  27   2.0000      -0.989275       -26.9195
  28   2.0000      -0.899930       -24.4883
  29   2.0000      -0.875812       -23.8321
  30   2.0000      -0.826981       -22.5033
  31   2.0000      -0.811140       -22.0722
  32   2.0000      -0.805975       -21.9317
  33   2.0000      -0.787353       -21.4250
  34   2.0000      -0.733819       -19.9682
  35   2.0000      -0.713449       -19.4139
  36   2.0000      -0.692340       -18.8395
  37   2.0000      -0.627312       -17.0700
  38   2.0000      -0.603495       -16.4219
  39   2.0000      -0.592438       -16.1210
  40   2.0000      -0.591659       -16.0999
  41   2.0000      -0.581628       -15.8269
  42   2.0000      -0.574435       -15.6312
  43   2.0000      -0.557107       -15.1596
  44   2.0000      -0.539281       -14.6746
  45   2.0000      -0.526507       -14.3270
  46   2.0000      -0.517082       -14.0705
  47   2.0000      -0.510163       -13.8823
  48   2.0000      -0.505416       -13.7531
  49   2.0000      -0.497391       -13.5347
  50   2.0000      -0.495791       -13.4912
  51   2.0000      -0.491006       -13.3610
  52   2.0000      -0.487046       -13.2532
  53   2.0000      -0.483242       -13.1497
  54   2.0000      -0.471564       -12.8319
  55   2.0000      -0.462727       -12.5914
  56   2.0000      -0.446225       -12.1424
  57   2.0000      -0.441286       -12.0080
  58   2.0000      -0.437737       -11.9114
  59   2.0000      -0.437102       -11.8941
  60   2.0000      -0.431182       -11.7331
  61   2.0000      -0.421685       -11.4746
  62   2.0000      -0.419047       -11.4028
  63   2.0000      -0.411227       -11.1901
  64   2.0000      -0.399375       -10.8675
  65   2.0000      -0.388095       -10.5606
  66   2.0000      -0.369845       -10.0640
  67   2.0000      -0.369175       -10.0458
  68   2.0000      -0.352679        -9.5969
  69   2.0000      -0.330911        -9.0045
  70   2.0000      -0.327407        -8.9092
  71   2.0000      -0.313369        -8.5272
  72   2.0000      -0.308386        -8.3916
  73   2.0000      -0.304896        -8.2967
  74   2.0000      -0.292020        -7.9463
  75   2.0000      -0.288548        -7.8518
  76   2.0000      -0.278614        -7.5815
  77   0.0000      -0.086838        -2.3630
  78   0.0000      -0.025986        -0.7071
  79   0.0000      -0.008650        -0.2354
  80   0.0000       0.056192         1.5291
  81   0.0000       0.063047         1.7156

MULLIKEN ATOMIC CHARGES
-----------------------
   0 Pd:    0.496082
   1 O :   -0.509684
   2 C :    0.582176
   3 O :   -0.496708
   4 C :   -0.741383
   5 H :    0.241052
   6 H :    0.252052
   7 H :    0.242154
   8 N :   -0.479387
   9 C :   -0.532149
  10 H :    0.312670
  11 H :    0.206031
  12 H :    0.265986
  13 C :   -0.542346
  14 H :    0.283908
  15 H :    0.235568
  16 H :    0.284154
  17 C :    0.027472
  18 C :   -0.252659
  19 C :   -0.202932
  20 C :   -0.220515
  21 C :   -0.201891
  22 C :   -0.277269
  23 H :    0.237902
  24 H :    0.248453
  25 H :    0.229483
  26 H :    0.243030
  27 H :    0.347171
  28 C :   -0.331670
  29 H :    0.270217
  30 H :    0.259776
  31 O :   -0.514368
  32 C :    0.543149
  33 O :   -0.472862
  34 C :   -0.735936
  35 H :    0.234543
  36 H :    0.237088
  37 H :    0.231642
Sum of atomic charges:   -0.0000000

LOEWDIN ATOMIC CHARGES
----------------------
   0 Pd:   -0.316390
   1 O :   -0.153233
   2 C :    0.152358
   3 O :   -0.305993
   4 C :   -0.376859
   5 H :    0.145938
   6 H :    0.158703
   7 H :    0.145384
   8 N :   -0.056236
   9 C :   -0.240900
  10 H :    0.170943
  11 H :    0.112301
  12 H :    0.151034
  13 C :   -0.230779
  14 H :    0.157440
  15 H :    0.127485
  16 H :    0.160074
  17 C :   -0.003343
  18 C :   -0.129543
  19 C :   -0.101268
  20 C :   -0.130788
  21 C :   -0.072912
  22 C :   -0.094219
  23 H :    0.145110
  24 H :    0.154851
  25 H :    0.145375
  26 H :    0.147385
  27 H :    0.243541
  28 C :   -0.105615
  29 H :    0.154262
  30 H :    0.146552
  31 O :   -0.171499
  32 C :    0.114419
  33 O :   -0.289257
  34 C :   -0.384044
  35 H :    0.140874
  36 H :    0.142170
  37 H :    0.146678

  Mayer bond orders larger than 0.100000
B(  0-Pd,  1-O ) :   0.6422 B(  0-Pd,  3-O ) :   0.1045 B(  0-Pd,  8-N ) :   0.4319
B(  0-Pd, 22-C ) :   0.2627 B(  0-Pd, 31-O ) :   0.6354 B(  1-O ,  2-C ) :   1.2855
B(  2-C ,  3-O ) :   1.7862 B(  2-C ,  4-C ) :   0.9373 B(  4-C ,  5-H ) :   0.9160
B(  4-C ,  6-H ) :   0.9078 B(  4-C ,  7-H ) :   0.9128 B(  8-N ,  9-C ) :   0.9078
B(  8-N , 13-C ) :   0.9142 B(  8-N , 28-C ) :   0.8762 B(  9-C , 10-H ) :   0.8622
B(  9-C , 11-H ) :   0.9023 B(  9-C , 12-H ) :   0.9063 B( 13-C , 14-H ) :   0.8894
B( 13-C , 15-H ) :   0.9006 B( 13-C , 16-H ) :   0.8956 B( 17-C , 18-C ) :   1.4234
B( 17-C , 22-C ) :   1.2293 B( 17-C , 28-C ) :   0.9365 B( 18-C , 19-C ) :   1.4180
B( 18-C , 25-H ) :   0.9161 B( 19-C , 20-C ) :   1.4226 B( 19-C , 26-H ) :   0.9087
B( 20-C , 21-C ) :   1.4219 B( 20-C , 23-H ) :   0.9125 B( 21-C , 22-C ) :   1.3867
B( 21-C , 24-H ) :   0.9114 B( 22-C , 27-H ) :   0.7015 B( 28-C , 29-H ) :   0.8954
B( 28-C , 30-H ) :   0.9097 B( 31-O , 32-C ) :   1.2975 B( 31-O , 33-O ) :   0.1034
B( 32-C , 33-O ) :   1.8970 B( 32-C , 34-C ) :   0.9187 B( 34-C , 35-H ) :   0.9200
B( 34-C , 36-H ) :   0.9154 B( 34-C , 37-H ) :   0.9171

Dispersion correction           -0.026460903
FINAL SINGLE POINT ENERGY      -988.478908351292
Dispersion correction            ... done

DIPOLE MOMENT
-------------
                                X             Y             Z
Electronic contribution:     10.47971       9.86585      -5.53552
Nuclear contribution   :    -12.67409     -10.76130       6.77991
                        -----------------------------------------
Total Dipole Moment    :     -2.19437      -0.89544       1.24439
                        -----------------------------------------
Magnitude (a.u.)       :      2.67686
Magnitude (Debye)      :      6.80405

Rotational constants in cm-1:     0.013173     0.009455     0.006947
Rotational constants in MHz :   394.919931   283.462483   208.268607

                             ****ORCA TERMINATED NORMALLY****
TOTAL RUN TIME: 0 days 0 hours 8 minutes 25 seconds 19 msec
