                         Program Version 5.0.3 -  RELEASE  -
|  1> ! EnGrad PBEh-3c
|  2> %output
|  3> xyzfile=True
|  4> end
|  5> %scf
|  6> maxiter 250
|  7> end
|  8> %output
|  9> Print[P_Hirshfeld] = 1
| 10> end
| 11> % maxcore
| 12> 4000
| 13> *xyz 0 1
| 14> Pd   0.43395438   0.13164986  -0.23953722
| 15> O    1.98784616   1.33012180   0.62946379
| 16> C    1.72168560   2.59836266   0.33463808
| 17> O    0.69420939   2.91004869  -0.16046734
| 18> C    2.79518265   3.63740837   0.64055860
| 19> H    2.34489283   4.54081458   1.06417924
| 20> H    3.25419758   3.94250989  -0.30084968
| 21> H    3.56783805   3.27873653   1.29998098
| 22> N   -1.36718738  -0.78705132  -0.98228996
| 23> C   -1.20080242  -1.99469737  -1.79526231
| 24> H   -0.61430770  -1.82574413  -2.67973268
| 25> H   -2.15103914  -2.36940849  -2.20368752
| 26> H   -0.72025193  -2.75694192  -1.20481437
| 27> C   -1.99649317   0.19899240  -1.86858819
| 28> H   -2.09982471   1.14766625  -1.37676462
| 29> H   -2.98717305  -0.14180820  -2.19323773
| 30> H   -1.40485597   0.34800902  -2.76642383
| 31> C   -1.60542306  -1.10699280   1.45214328
| 32> C   -1.58580365  -2.20754998   2.34738670
| 33> C   -1.32596193  -2.03566193   3.69202614
| 34> C   -0.99113093  -0.79101174   4.17781203
| 35> C   -1.16538915   0.32751467   3.35391773
| 36> C   -1.42376622   0.14191786   2.01199240
| 37> H   -0.77979873  -0.65451687   5.23567849
| 38> H   -1.11341988   1.28358302   3.84191126
| 39> H   -2.10452266  -3.11692814   2.08941622
| 40> H   -1.49955197  -2.85202671   4.39098827
| 41> H   -1.69827071   3.59964569   1.20091038
| 42> C   -2.31112201  -1.14107234   0.13716111
| 43> H   -3.16850872  -0.45331392   0.17911761
| 44> H   -2.80636168  -2.11257795   0.02345219
| 45> O    1.66499416   0.27851752  -1.81321853
| 46> C    2.30699459  -0.63961818  -2.48080264
| 47> O    1.84986424  -1.70899804  -2.66330325
| 48> C    3.61656002  -0.30457963  -3.19930185
| 49> H    4.09481819  -1.17797727  -3.66070534
| 50> H    4.33844420   0.08096874  -2.50416266
| 51> H    3.44895219   0.40181625  -4.01015660
| 52> *
| 53>
| 54>                          ****END OF INPUT****

CARTESIAN COORDINATES (ANGSTROEM)
---------------------------------
  Pd     0.433954    0.131650   -0.239537
  O      1.987846    1.330122    0.629464
  C      1.721686    2.598363    0.334638
  O      0.694209    2.910049   -0.160467
  C      2.795183    3.637408    0.640559
  H      2.344893    4.540815    1.064179
  H      3.254198    3.942510   -0.300850
  H      3.567838    3.278737    1.299981
  N     -1.367187   -0.787051   -0.982290
  C     -1.200802   -1.994697   -1.795262
  H     -0.614308   -1.825744   -2.679733
  H     -2.151039   -2.369408   -2.203688
  H     -0.720252   -2.756942   -1.204814
  C     -1.996493    0.198992   -1.868588
  H     -2.099825    1.147666   -1.376765
  H     -2.987173   -0.141808   -2.193238
  H     -1.404856    0.348009   -2.766424
  C     -1.605423   -1.106993    1.452143
  C     -1.585804   -2.207550    2.347387
  C     -1.325962   -2.035662    3.692026
  C     -0.991131   -0.791012    4.177812
  C     -1.165389    0.327515    3.353918
  C     -1.423766    0.141918    2.011992
  H     -0.779799   -0.654517    5.235678
  H     -1.113420    1.283583    3.841911
  H     -2.104523   -3.116928    2.089416
  H     -1.499552   -2.852027    4.390988
  H     -1.698271    3.599646    1.200910
  C     -2.311122   -1.141072    0.137161
  H     -3.168509   -0.453314    0.179118
  H     -2.806362   -2.112578    0.023452
  O      1.664994    0.278518   -1.813219
  C      2.306995   -0.639618   -2.480803
  O      1.849864   -1.708998   -2.663303
  C      3.616560   -0.304580   -3.199302
  H      4.094818   -1.177977   -3.660705
  H      4.338444    0.080969   -2.504163
  H      3.448952    0.401816   -4.010157

 Total Charge           Charge          ....    0
 Multiplicity           Mult            ....    1
 Number of Electrons    NEL             ....  154
 Basis Dimension        Dim             ....  339

ORBITAL ENERGIES
----------------

  NO   OCC          E(Eh)            E(eV)
   0   2.0000     -19.463274      -529.6226
   1   2.0000     -19.463241      -529.6217
   2   2.0000     -19.434581      -528.8418
   3   2.0000     -19.420184      -528.4501
   4   2.0000     -14.729784      -400.8178
   5   2.0000     -10.525010      -286.4001
   6   2.0000     -10.521488      -286.3043
   7   2.0000     -10.519525      -286.2508
   8   2.0000     -10.517341      -286.1914
   9   2.0000     -10.507189      -285.9151
  10   2.0000     -10.489796      -285.4419
  11   2.0000     -10.487186      -285.3708
  12   2.0000     -10.486095      -285.3411
  13   2.0000     -10.482761      -285.2504
  14   2.0000     -10.480980      -285.2020
  15   2.0000     -10.472528      -284.9720
  16   2.0000     -10.412960      -283.3510
  17   2.0000     -10.409201      -283.2488
  18   2.0000      -3.665272       -99.7371
  19   2.0000      -2.313390       -62.9506
  20   2.0000      -2.307394       -62.7874
  21   2.0000      -2.275719       -61.9255
  22   2.0000      -1.154215       -31.4078
  23   2.0000      -1.152419       -31.3589
  24   2.0000      -1.085030       -29.5252
  25   2.0000      -1.045243       -28.4425
  26   2.0000      -1.035750       -28.1842
  27   2.0000      -0.999247       -27.1909
  28   2.0000      -0.906677       -24.6719
  29   2.0000      -0.868675       -23.6378
  30   2.0000      -0.821510       -22.3544
  31   2.0000      -0.814078       -22.1522
  32   2.0000      -0.792653       -21.5692
  33   2.0000      -0.787464       -21.4280
  34   2.0000      -0.728784       -19.8312
  35   2.0000      -0.715988       -19.4830
  36   2.0000      -0.685141       -18.6436
  37   2.0000      -0.613557       -16.6957
  38   2.0000      -0.585971       -15.9451
  39   2.0000      -0.581887       -15.8339
  40   2.0000      -0.578990       -15.7551
  41   2.0000      -0.572027       -15.5656
  42   2.0000      -0.564762       -15.3680
  43   2.0000      -0.547073       -14.8866
  44   2.0000      -0.534114       -14.5340
  45   2.0000      -0.512838       -13.9550
  46   2.0000      -0.508516       -13.8374
  47   2.0000      -0.502481       -13.6732
  48   2.0000      -0.490590       -13.3496
  49   2.0000      -0.488542       -13.2939
  50   2.0000      -0.486491       -13.2381
  51   2.0000      -0.484063       -13.1720
  52   2.0000      -0.482179       -13.1208
  53   2.0000      -0.478853       -13.0302
  54   2.0000      -0.463639       -12.6162
  55   2.0000      -0.450363       -12.2550
  56   2.0000      -0.442716       -12.0469
  57   2.0000      -0.437236       -11.8978
  58   2.0000      -0.430497       -11.7144
  59   2.0000      -0.427869       -11.6429
  60   2.0000      -0.422415       -11.4945
  61   2.0000      -0.418592       -11.3905
  62   2.0000      -0.408365       -11.1122
  63   2.0000      -0.401989       -10.9387
  64   2.0000      -0.377028       -10.2595
  65   2.0000      -0.362195        -9.8558
  66   2.0000      -0.352365        -9.5883
  67   2.0000      -0.343876        -9.3573
  68   2.0000      -0.327479        -8.9112
  69   2.0000      -0.324966        -8.8428
  70   2.0000      -0.321057        -8.7364
  71   2.0000      -0.304139        -8.2760
  72   2.0000      -0.298874        -8.1328
  73   2.0000      -0.290785        -7.9127
  74   2.0000      -0.273161        -7.4331
  75   2.0000      -0.270076        -7.3492
  76   2.0000      -0.259868        -7.0714
  77   0.0000      -0.176552        -4.8042
  78   0.0000      -0.090288        -2.4569
  79   0.0000      -0.032717        -0.8903
  80   0.0000      -0.010339        -0.2813
  81   0.0000       0.050886         1.3847

MULLIKEN ATOMIC CHARGES
-----------------------
   0 Pd:    0.457368
   1 O :   -0.518695
   2 C :    0.579435
   3 O :   -0.415646
   4 C :   -0.749377
   5 H :    0.231398
   6 H :    0.246134
   7 H :    0.239543
   8 N :   -0.483241
   9 C :   -0.536305
  10 H :    0.308711
  11 H :    0.211080
  12 H :    0.266922
  13 C :   -0.548906
  14 H :    0.293984
  15 H :    0.228718
  16 H :    0.288153
  17 C :   -0.044891
  18 C :   -0.225343
  19 C :   -0.228367
  20 C :   -0.194144
  21 C :   -0.282668
  22 C :    0.054097
  23 H :    0.245138
  24 H :    0.264741
  25 H :    0.227299
  26 H :    0.245578
  27 H :    0.081512
  28 C :   -0.320911
  29 H :    0.276596
  30 H :    0.255325
  31 O :   -0.528108
  32 C :    0.530232
  33 O :   -0.424994
  34 C :   -0.745245
  35 H :    0.238961
  36 H :    0.241166
  37 H :    0.234752
Sum of atomic charges:    0.0000000

LOEWDIN ATOMIC CHARGES
----------------------
   0 Pd:   -0.252655
   1 O :   -0.211827
   2 C :    0.129324
   3 O :   -0.199195
   4 C :   -0.385710
   5 H :    0.142608
   6 H :    0.153619
   7 H :    0.139471
   8 N :   -0.054603
   9 C :   -0.240920
  10 H :    0.164532
  11 H :    0.114614
  12 H :    0.149641
  13 C :   -0.235827
  14 H :    0.158890
  15 H :    0.122743
  16 H :    0.160486
  17 C :   -0.059551
  18 C :   -0.110891
  19 C :   -0.122795
  20 C :   -0.107278
  21 C :   -0.117117
  22 C :    0.031203
  23 H :    0.148543
  24 H :    0.159347
  25 H :    0.147395
  26 H :    0.148626
  27 H :    0.086237
  28 C :   -0.098764
  29 H :    0.158300
  30 H :    0.144008
  31 O :   -0.174156
  32 C :    0.104317
  33 O :   -0.237034
  34 C :   -0.385918
  35 H :    0.141318
  36 H :    0.143510
  37 H :    0.145510

  Mayer bond orders larger than 0.100000
B(  0-Pd,  1-O ) :   0.6752 B(  0-Pd,  3-O ) :   0.1331 B(  0-Pd,  8-N ) :   0.4065
B(  0-Pd, 22-C ) :   0.1991 B(  0-Pd, 27-H ) :   0.1241 B(  0-Pd, 31-O ) :   0.6890
B(  1-O ,  2-C ) :   1.2406 B(  2-C ,  3-O ) :   1.8623 B(  2-C ,  4-C ) :   0.9290
B(  4-C ,  5-H ) :   0.9201 B(  4-C ,  6-H ) :   0.9132 B(  4-C ,  7-H ) :   0.9143
B(  8-N ,  9-C ) :   0.9173 B(  8-N , 13-C ) :   0.9150 B(  8-N , 28-C ) :   0.8814
B(  9-C , 10-H ) :   0.8776 B(  9-C , 11-H ) :   0.9026 B(  9-C , 12-H ) :   0.9086
B( 13-C , 14-H ) :   0.8890 B( 13-C , 15-H ) :   0.9026 B( 13-C , 16-H ) :   0.8927
B( 17-C , 18-C ) :   1.3638 B( 17-C , 22-C ) :   1.3932 B( 17-C , 28-C ) :   0.9399
B( 18-C , 19-C ) :   1.4623 B( 18-C , 25-H ) :   0.9087 B( 19-C , 20-C ) :   1.4110
B( 19-C , 26-H ) :   0.9066 B( 20-C , 21-C ) :   1.4064 B( 20-C , 23-H ) :   0.9042
B( 21-C , 22-C ) :   1.4338 B( 21-C , 24-H ) :   0.9001 B( 22-C , 27-H ) :   0.6373
B( 28-C , 29-H ) :   0.8978 B( 28-C , 30-H ) :   0.9080 B( 31-O , 32-C ) :   1.2388
B( 32-C , 33-O ) :   1.9454 B( 32-C , 34-C ) :   0.9263 B( 34-C , 35-H ) :   0.9209
B( 34-C , 36-H ) :   0.9118 B( 34-C , 37-H ) :   0.9165

Dispersion correction           -0.025523109
FINAL SINGLE POINT ENERGY      -988.195437961059
Dispersion correction            ... done

DIPOLE MOMENT
-------------
                                X             Y             Z
Electronic contribution:     16.37501       5.46517     -10.84686
Nuclear contribution   :    -19.10216      -6.36670      12.32776
                        -----------------------------------------
Total Dipole Moment    :     -2.72714      -0.90153       1.48091
                        -----------------------------------------
Magnitude (a.u.)       :      3.23159
Magnitude (Debye)      :      8.21404

Rotational constants in cm-1:     0.013328     0.008362     0.006356
Rotational constants in MHz :   399.567470   250.671810   190.552148

                             ****ORCA TERMINATED NORMALLY****
TOTAL RUN TIME: 0 days 0 hours 20 minutes 36 seconds 429 msec
