                         Program Version 5.0.3 -  RELEASE  -
|  1> ! EnGrad PBEh-3c
|  2> %output
|  3> xyzfile=True
|  4> end
|  5> %scf
|  6> maxiter 250
|  7> end
|  8> %output
|  9> Print[P_Hirshfeld] = 1
| 10> end
| 11> % maxcore
| 12> 4000
| 13> *xyz 0 1
| 14> Pd   0.31860571   0.23160245  -0.15675777
| 15> O    1.61643335   1.42128155   0.71030383
| 16> C    1.34957097   2.68898275   0.54418121
| 17> O    0.25859606   3.12006791   0.30533123
| 18> C    2.56627989   3.59540953   0.66564793
| 19> H    2.27820491   4.55957672   1.08266754
| 20> H    2.98500316   3.75110075  -0.33017114
| 21> H    3.34631372   3.14343492   1.26884563
| 22> N   -1.38136766  -0.71774489  -1.04110545
| 23> C   -1.15178981  -1.92214907  -1.86064743
| 24> H   -0.50954703  -1.67480846  -2.69894268
| 25> H   -2.11784134  -2.30790089  -2.23295094
| 26> H   -0.65920383  -2.69991935  -1.26774916
| 27> C   -2.02568326   0.32070183  -1.85870655
| 28> H   -2.17654144   1.21569944  -1.24901301
| 29> H   -3.00183596  -0.03735347  -2.22529077
| 30> H   -1.36823531   0.54263213  -2.69648338
| 31> C   -1.56004767  -0.89795043   1.36585622
| 32> C   -1.58893929  -1.98972994   2.22893153
| 33> C   -1.28050051  -1.86475650   3.57255358
| 34> C   -0.98137944  -0.58606448   4.01607850
| 35> C   -0.81285369   0.48908114   3.13627299
| 36> C   -1.04767221   0.30789583   1.79030254
| 37> H   -0.85984899  -0.45881976   5.08734631
| 38> H   -0.60789730   1.45399853   3.58217778
| 39> H   -1.92035288  -2.95573787   1.86740480
| 40> H   -1.26970991  -2.71767470   4.25129489
| 41> H   -0.82379076   1.15967926   1.11838954
| 42> C   -2.27851172  -1.08187360   0.07239516
| 43> H   -3.17088767  -0.45178120   0.08088144
| 44> H   -2.65593787  -2.10628939  -0.06616822
| 45> O    1.76736679   0.09888366  -1.51582748
| 46> C    2.18739730  -0.76012200  -2.37501715
| 47> O    1.61706350  -1.78213535  -2.73762681
| 48> C    3.51237747  -0.35053383  -2.98398022
| 49> H    3.93205386  -1.23555779  -3.43200381
| 50> H    4.19475387   0.07440350  -2.24633216
| 51> H    3.33735586   0.37620779  -3.77601628
| 52> *
| 53>
| 54>                          ****END OF INPUT****

CARTESIAN COORDINATES (ANGSTROEM)
---------------------------------
  Pd     0.318606    0.231602   -0.156758
  O      1.616433    1.421282    0.710304
  C      1.349571    2.688983    0.544181
  O      0.258596    3.120068    0.305331
  C      2.566280    3.595410    0.665648
  H      2.278205    4.559577    1.082668
  H      2.985003    3.751101   -0.330171
  H      3.346314    3.143435    1.268846
  N     -1.381368   -0.717745   -1.041105
  C     -1.151790   -1.922149   -1.860647
  H     -0.509547   -1.674808   -2.698943
  H     -2.117841   -2.307901   -2.232951
  H     -0.659204   -2.699919   -1.267749
  C     -2.025683    0.320702   -1.858707
  H     -2.176541    1.215699   -1.249013
  H     -3.001836   -0.037353   -2.225291
  H     -1.368235    0.542632   -2.696483
  C     -1.560048   -0.897950    1.365856
  C     -1.588939   -1.989730    2.228932
  C     -1.280501   -1.864756    3.572554
  C     -0.981379   -0.586064    4.016078
  C     -0.812854    0.489081    3.136273
  C     -1.047672    0.307896    1.790303
  H     -0.859849   -0.458820    5.087346
  H     -0.607897    1.453999    3.582178
  H     -1.920353   -2.955738    1.867405
  H     -1.269710   -2.717675    4.251295
  H     -0.823791    1.159679    1.118390
  C     -2.278512   -1.081874    0.072395
  H     -3.170888   -0.451781    0.080881
  H     -2.655938   -2.106289   -0.066168
  O      1.767367    0.098884   -1.515827
  C      2.187397   -0.760122   -2.375017
  O      1.617063   -1.782135   -2.737627
  C      3.512377   -0.350534   -2.983980
  H      3.932054   -1.235558   -3.432004
  H      4.194754    0.074403   -2.246332
  H      3.337356    0.376208   -3.776016

 Total Charge           Charge          ....    0
 Multiplicity           Mult            ....    1
 Number of Electrons    NEL             ....  154
 Basis Dimension        Dim             ....  339

ORBITAL ENERGIES
----------------

  NO   OCC          E(Eh)            E(eV)
   0   2.0000     -19.478044      -530.0245
   1   2.0000     -19.472867      -529.8837
   2   2.0000     -19.446533      -529.1671
   3   2.0000     -19.426876      -528.6322
   4   2.0000     -14.724996      -400.6875
   5   2.0000     -10.539609      -286.7973
   6   2.0000     -10.530545      -286.5507
   7   2.0000     -10.511319      -286.0275
   8   2.0000     -10.495193      -285.5887
   9   2.0000     -10.492572      -285.5174
  10   2.0000     -10.489629      -285.4373
  11   2.0000     -10.480646      -285.1929
  12   2.0000     -10.479191      -285.1533
  13   2.0000     -10.475735      -285.0592
  14   2.0000     -10.473740      -285.0050
  15   2.0000     -10.472379      -284.9679
  16   2.0000     -10.417695      -283.4799
  17   2.0000     -10.408497      -283.2296
  18   2.0000      -3.678393      -100.0942
  19   2.0000      -2.327386       -63.3314
  20   2.0000      -2.321681       -63.1762
  21   2.0000      -2.288872       -62.2834
  22   2.0000      -1.166864       -31.7520
  23   2.0000      -1.144369       -31.1399
  24   2.0000      -1.089317       -29.6418
  25   2.0000      -1.065212       -28.9859
  26   2.0000      -1.051268       -28.6065
  27   2.0000      -0.998161       -27.1613
  28   2.0000      -0.900975       -24.5168
  29   2.0000      -0.877023       -23.8650
  30   2.0000      -0.825356       -22.4591
  31   2.0000      -0.812146       -22.0996
  32   2.0000      -0.800363       -21.7790
  33   2.0000      -0.793019       -21.5791
  34   2.0000      -0.732589       -19.9348
  35   2.0000      -0.714971       -19.4553
  36   2.0000      -0.693393       -18.8682
  37   2.0000      -0.628506       -17.1025
  38   2.0000      -0.600285       -16.3346
  39   2.0000      -0.592996       -16.1362
  40   2.0000      -0.586316       -15.9545
  41   2.0000      -0.579064       -15.7571
  42   2.0000      -0.572530       -15.5793
  43   2.0000      -0.553658       -15.0658
  44   2.0000      -0.539364       -14.6768
  45   2.0000      -0.526102       -14.3160
  46   2.0000      -0.518133       -14.0991
  47   2.0000      -0.511979       -13.9317
  48   2.0000      -0.506358       -13.7787
  49   2.0000      -0.500279       -13.6133
  50   2.0000      -0.498336       -13.5604
  51   2.0000      -0.492808       -13.4100
  52   2.0000      -0.489799       -13.3281
  53   2.0000      -0.485904       -13.2221
  54   2.0000      -0.469862       -12.7856
  55   2.0000      -0.463778       -12.6200
  56   2.0000      -0.446426       -12.1479
  57   2.0000      -0.439528       -11.9602
  58   2.0000      -0.438432       -11.9303
  59   2.0000      -0.436711       -11.8835
  60   2.0000      -0.432151       -11.7594
  61   2.0000      -0.421851       -11.4791
  62   2.0000      -0.420070       -11.4307
  63   2.0000      -0.413585       -11.2542
  64   2.0000      -0.402268       -10.9463
  65   2.0000      -0.389160       -10.5896
  66   2.0000      -0.369281       -10.0487
  67   2.0000      -0.366778        -9.9805
  68   2.0000      -0.352433        -9.5902
  69   2.0000      -0.330004        -8.9799
  70   2.0000      -0.327654        -8.9159
  71   2.0000      -0.314553        -8.5594
  72   2.0000      -0.310402        -8.4465
  73   2.0000      -0.304552        -8.2873
  74   2.0000      -0.293086        -7.9753
  75   2.0000      -0.290961        -7.9174
  76   2.0000      -0.280227        -7.6254
  77   0.0000      -0.080249        -2.1837
  78   0.0000      -0.017960        -0.4887
  79   0.0000      -0.006860        -0.1867
  80   0.0000       0.056242         1.5304
  81   0.0000       0.061939         1.6854

MULLIKEN ATOMIC CHARGES
-----------------------
   0 Pd:    0.503024
   1 O :   -0.529216
   2 C :    0.564002
   3 O :   -0.441414
   4 C :   -0.743450
   5 H :    0.233934
   6 H :    0.248878
   7 H :    0.243325
   8 N :   -0.484499
   9 C :   -0.530091
  10 H :    0.311132
  11 H :    0.204440
  12 H :    0.265795
  13 C :   -0.537158
  14 H :    0.280081
  15 H :    0.234122
  16 H :    0.282310
  17 C :    0.127343
  18 C :   -0.280511
  19 C :   -0.192957
  20 C :   -0.246104
  21 C :   -0.188676
  22 C :   -0.322347
  23 H :    0.235363
  24 H :    0.250525
  25 H :    0.225125
  26 H :    0.240798
  27 H :    0.338154
  28 C :   -0.346841
  29 H :    0.267969
  30 H :    0.260401
  31 O :   -0.512536
  32 C :    0.543664
  33 O :   -0.480092
  34 C :   -0.739107
  35 H :    0.238111
  36 H :    0.241495
  37 H :    0.235007
Sum of atomic charges:   -0.0000000

LOEWDIN ATOMIC CHARGES
----------------------
   0 Pd:   -0.308107
   1 O :   -0.175031
   2 C :    0.129633
   3 O :   -0.240529
   4 C :   -0.381719
   5 H :    0.141667
   6 H :    0.156172
   7 H :    0.144265
   8 N :   -0.060971
   9 C :   -0.240938
  10 H :    0.169899
  11 H :    0.110856
  12 H :    0.151857
  13 C :   -0.229036
  14 H :    0.156833
  15 H :    0.126700
  16 H :    0.159137
  17 C :   -0.023005
  18 C :   -0.121640
  19 C :   -0.107764
  20 C :   -0.122499
  21 C :   -0.081787
  22 C :   -0.088044
  23 H :    0.142586
  24 H :    0.158909
  25 H :    0.142187
  26 H :    0.147395
  27 H :    0.230152
  28 C :   -0.101606
  29 H :    0.153127
  30 H :    0.146889
  31 O :   -0.161492
  32 C :    0.121216
  33 O :   -0.296821
  34 C :   -0.383422
  35 H :    0.141774
  36 H :    0.145432
  37 H :    0.147728

  Mayer bond orders larger than 0.100000
B(  0-Pd,  1-O ) :   0.6683 B(  0-Pd,  8-N ) :   0.4207 B(  0-Pd, 22-C ) :   0.2339
B(  0-Pd, 31-O ) :   0.6446 B(  1-O ,  2-C ) :   1.2360 B(  2-C ,  3-O ) :   1.8740
B(  2-C ,  4-C ) :   0.9322 B(  4-C ,  5-H ) :   0.9187 B(  4-C ,  6-H ) :   0.9105
B(  4-C ,  7-H ) :   0.9136 B(  8-N ,  9-C ) :   0.9070 B(  8-N , 13-C ) :   0.9140
B(  8-N , 28-C ) :   0.8800 B(  9-C , 10-H ) :   0.8628 B(  9-C , 11-H ) :   0.9023
B(  9-C , 12-H ) :   0.9064 B( 13-C , 14-H ) :   0.8912 B( 13-C , 15-H ) :   0.9004
B( 13-C , 16-H ) :   0.8963 B( 17-C , 18-C ) :   1.4049 B( 17-C , 22-C ) :   1.2579
B( 17-C , 28-C ) :   0.9290 B( 18-C , 19-C ) :   1.4310 B( 18-C , 25-H ) :   0.9181
B( 19-C , 20-C ) :   1.4124 B( 19-C , 26-H ) :   0.9113 B( 20-C , 21-C ) :   1.4307
B( 20-C , 23-H ) :   0.9130 B( 21-C , 22-C ) :   1.4003 B( 21-C , 24-H ) :   0.9115
B( 22-C , 27-H ) :   0.7264 B( 28-C , 29-H ) :   0.8964 B( 28-C , 30-H ) :   0.9100
B( 31-O , 32-C ) :   1.2928 B( 31-O , 33-O ) :   0.1020 B( 32-C , 33-O ) :   1.8881
B( 32-C , 34-C ) :   0.9236 B( 34-C , 35-H ) :   0.9181 B( 34-C , 36-H ) :   0.9146
B( 34-C , 37-H ) :   0.9158

Dispersion correction           -0.026553255
FINAL SINGLE POINT ENERGY      -988.493187655507
Dispersion correction            ... done

DIPOLE MOMENT
-------------
                                X             Y             Z
Electronic contribution:     11.75550      10.12096      -7.35459
Nuclear contribution   :    -13.96628     -10.92816       8.45523
                        -----------------------------------------
Total Dipole Moment    :     -2.21079      -0.80720       1.10064
                        -----------------------------------------
Magnitude (a.u.)       :      2.59819
Magnitude (Debye)      :      6.60406

Rotational constants in cm-1:     0.013244     0.009483     0.006948
Rotational constants in MHz :   397.041173   284.279274   208.298574

                             ****ORCA TERMINATED NORMALLY****
TOTAL RUN TIME: 0 days 0 hours 9 minutes 44 seconds 212 msec
