                         Program Version 5.0.3 -  RELEASE  -
|  1> ! EnGrad PBEh-3c
|  2> %output
|  3> xyzfile=True
|  4> end
|  5> %scf
|  6> maxiter 250
|  7> end
|  8> %output
|  9> Print[P_Hirshfeld] = 1
| 10> end
| 11> % maxcore
| 12> 4000
| 13> *xyz 0 1
| 14> Pd   0.45561981   0.19307080  -0.20786484
| 15> O    1.98121163   1.28164653   0.62935493
| 16> C    1.67180848   2.60908732   0.32011013
| 17> O    0.67958339   2.91479357  -0.16560200
| 18> C    2.79907482   3.63271713   0.64056478
| 19> H    2.33254428   4.53379688   1.06110918
| 20> H    3.24830036   3.94118180  -0.30336266
| 21> H    3.57061198   3.28249479   1.30258877
| 22> N   -1.39965429  -0.81124620  -1.03292850
| 23> C   -1.19323987  -2.00533771  -1.83166136
| 24> H   -0.60657461  -1.79208674  -2.68989044
| 25> H   -2.16131802  -2.34806073  -2.19298130
| 26> H   -0.71427220  -2.75914396  -1.22892160
| 27> C   -2.01380702   0.22980611  -1.86449096
| 28> H   -2.11310683   1.16373728  -1.35160824
| 29> H   -2.99237069  -0.13501981  -2.17902366
| 30> H   -1.40694712   0.36754943  -2.75456299
| 31> C   -1.64083107  -1.07271087   1.46966628
| 32> C   -1.58693379  -2.19358702   2.34895775
| 33> C   -1.28693864  -2.03463918   3.67755207
| 34> C   -1.02644692  -0.78311322   4.17591913
| 35> C   -1.16431303   0.34584764   3.35405913
| 36> C   -1.40414364   0.13355373   2.03663500
| 37> H   -0.78507612  -0.64587701   5.23236632
| 38> H   -1.14370237   1.29323276   3.83457521
| 39> H   -2.03778099  -3.13374341   2.05774555
| 40> H   -1.44859699  -2.85695310   4.37695689
| 41> H   -1.71358116   3.55982739   1.21458978
| 42> C   -2.29698034  -1.15431697   0.15950638
| 43> H   -3.15260239  -0.46759077   0.17275051
| 44> H   -2.76846131  -2.12906667   0.00130061
| 45> O    1.70120126   0.28243478  -1.77398161
| 46> C    2.27923149  -0.63984207  -2.51383713
| 47> O    1.80661527  -1.72214099  -2.70874728
| 48> C    3.63681244  -0.30753592  -3.16771793
| 49> H    4.06214135  -1.21880935  -3.62314459
| 50> H    4.35173034   0.06658513  -2.48422476
| 51> H    3.47942610   0.37869721  -3.99358136
| 52> *
| 53>
| 54>                          ****END OF INPUT****

CARTESIAN COORDINATES (ANGSTROEM)
---------------------------------
  Pd     0.455620    0.193071   -0.207865
  O      1.981212    1.281647    0.629355
  C      1.671808    2.609087    0.320110
  O      0.679583    2.914794   -0.165602
  C      2.799075    3.632717    0.640565
  H      2.332544    4.533797    1.061109
  H      3.248300    3.941182   -0.303363
  H      3.570612    3.282495    1.302589
  N     -1.399654   -0.811246   -1.032928
  C     -1.193240   -2.005338   -1.831661
  H     -0.606575   -1.792087   -2.689890
  H     -2.161318   -2.348061   -2.192981
  H     -0.714272   -2.759144   -1.228922
  C     -2.013807    0.229806   -1.864491
  H     -2.113107    1.163737   -1.351608
  H     -2.992371   -0.135020   -2.179024
  H     -1.406947    0.367549   -2.754563
  C     -1.640831   -1.072711    1.469666
  C     -1.586934   -2.193587    2.348958
  C     -1.286939   -2.034639    3.677552
  C     -1.026447   -0.783113    4.175919
  C     -1.164313    0.345848    3.354059
  C     -1.404144    0.133554    2.036635
  H     -0.785076   -0.645877    5.232366
  H     -1.143702    1.293233    3.834575
  H     -2.037781   -3.133743    2.057746
  H     -1.448597   -2.856953    4.376957
  H     -1.713581    3.559827    1.214590
  C     -2.296980   -1.154317    0.159506
  H     -3.152602   -0.467591    0.172751
  H     -2.768461   -2.129067    0.001301
  O      1.701201    0.282435   -1.773982
  C      2.279231   -0.639842   -2.513837
  O      1.806615   -1.722141   -2.708747
  C      3.636812   -0.307536   -3.167718
  H      4.062141   -1.218809   -3.623145
  H      4.351730    0.066585   -2.484225
  H      3.479426    0.378697   -3.993581

 Total Charge           Charge          ....    0
 Multiplicity           Mult            ....    1
 Number of Electrons    NEL             ....  154
 Basis Dimension        Dim             ....  339

ORBITAL ENERGIES
----------------

  NO   OCC          E(Eh)            E(eV)
   0   2.0000     -19.470055      -529.8071
   1   2.0000     -19.460879      -529.5575
   2   2.0000     -19.456777      -529.4458
   3   2.0000     -19.422354      -528.5091
   4   2.0000     -14.716038      -400.4437
   5   2.0000     -10.538325      -286.7624
   6   2.0000     -10.524677      -286.3910
   7   2.0000     -10.521898      -286.3154
   8   2.0000     -10.513950      -286.0991
   9   2.0000     -10.507366      -285.9200
  10   2.0000     -10.492439      -285.5138
  11   2.0000     -10.488883      -285.4170
  12   2.0000     -10.488103      -285.3958
  13   2.0000     -10.481740      -285.2226
  14   2.0000     -10.478785      -285.1422
  15   2.0000     -10.465268      -284.7744
  16   2.0000     -10.419899      -283.5399
  17   2.0000     -10.407626      -283.2059
  18   2.0000      -3.659142       -99.5703
  19   2.0000      -2.307722       -62.7963
  20   2.0000      -2.300703       -62.6053
  21   2.0000      -2.270527       -61.7842
  22   2.0000      -1.179882       -32.1062
  23   2.0000      -1.139617       -31.0106
  24   2.0000      -1.072361       -29.1804
  25   2.0000      -1.039730       -28.2925
  26   2.0000      -1.031304       -28.0632
  27   2.0000      -1.007653       -27.4196
  28   2.0000      -0.911029       -24.7903
  29   2.0000      -0.876517       -23.8512
  30   2.0000      -0.820535       -22.3279
  31   2.0000      -0.814853       -22.1733
  32   2.0000      -0.793574       -21.5942
  33   2.0000      -0.785333       -21.3700
  34   2.0000      -0.725297       -19.7363
  35   2.0000      -0.719311       -19.5734
  36   2.0000      -0.683870       -18.6091
  37   2.0000      -0.616680       -16.7807
  38   2.0000      -0.584261       -15.8986
  39   2.0000      -0.579773       -15.7764
  40   2.0000      -0.576591       -15.6898
  41   2.0000      -0.573707       -15.6114
  42   2.0000      -0.565796       -15.3961
  43   2.0000      -0.546447       -14.8696
  44   2.0000      -0.535083       -14.5604
  45   2.0000      -0.514477       -13.9996
  46   2.0000      -0.511238       -13.9115
  47   2.0000      -0.506784       -13.7903
  48   2.0000      -0.498045       -13.5525
  49   2.0000      -0.490962       -13.3597
  50   2.0000      -0.488549       -13.2941
  51   2.0000      -0.484888       -13.1945
  52   2.0000      -0.483190       -13.1483
  53   2.0000      -0.476278       -12.9602
  54   2.0000      -0.467823       -12.7301
  55   2.0000      -0.450332       -12.2542
  56   2.0000      -0.447837       -12.1863
  57   2.0000      -0.440232       -11.9793
  58   2.0000      -0.437941       -11.9170
  59   2.0000      -0.436903       -11.8887
  60   2.0000      -0.422695       -11.5021
  61   2.0000      -0.418387       -11.3849
  62   2.0000      -0.411884       -11.2079
  63   2.0000      -0.390936       -10.6379
  64   2.0000      -0.379824       -10.3355
  65   2.0000      -0.356359        -9.6970
  66   2.0000      -0.345048        -9.3892
  67   2.0000      -0.343729        -9.3533
  68   2.0000      -0.332990        -9.0611
  69   2.0000      -0.325382        -8.8541
  70   2.0000      -0.322585        -8.7780
  71   2.0000      -0.306575        -8.3423
  72   2.0000      -0.302695        -8.2368
  73   2.0000      -0.288782        -7.8582
  74   2.0000      -0.277925        -7.5627
  75   2.0000      -0.271484        -7.3875
  76   2.0000      -0.258398        -7.0314
  77   0.0000      -0.173367        -4.7176
  78   0.0000      -0.082061        -2.2330
  79   0.0000      -0.032129        -0.8743
  80   0.0000      -0.010777        -0.2933
  81   0.0000       0.051933         1.4132

MULLIKEN ATOMIC CHARGES
-----------------------
   0 Pd:    0.432582
   1 O :   -0.540214
   2 C :    0.573611
   3 O :   -0.355842
   4 C :   -0.749741
   5 H :    0.228807
   6 H :    0.248036
   7 H :    0.246412
   8 N :   -0.467455
   9 C :   -0.520854
  10 H :    0.305371
  11 H :    0.200663
  12 H :    0.260985
  13 C :   -0.541118
  14 H :    0.290006
  15 H :    0.221883
  16 H :    0.281411
  17 C :    0.001382
  18 C :   -0.236267
  19 C :   -0.207822
  20 C :   -0.219500
  21 C :   -0.266741
  22 C :    0.043250
  23 H :    0.248519
  24 H :    0.269497
  25 H :    0.233163
  26 H :    0.243057
  27 H :    0.053561
  28 C :   -0.331249
  29 H :    0.269803
  30 H :    0.252517
  31 O :   -0.536857
  32 C :    0.536414
  33 O :   -0.441811
  34 C :   -0.741492
  35 H :    0.234603
  36 H :    0.249199
  37 H :    0.232229
Sum of atomic charges:   -0.0000000

LOEWDIN ATOMIC CHARGES
----------------------
   0 Pd:   -0.272688
   1 O :   -0.229829
   2 C :    0.152996
   3 O :   -0.136034
   4 C :   -0.388585
   5 H :    0.141749
   6 H :    0.153630
   7 H :    0.142159
   8 N :   -0.078388
   9 C :   -0.239675
  10 H :    0.163405
  11 H :    0.109052
  12 H :    0.148592
  13 C :   -0.235953
  14 H :    0.158141
  15 H :    0.118534
  16 H :    0.158524
  17 C :   -0.059431
  18 C :   -0.103370
  19 C :   -0.124273
  20 C :   -0.105183
  21 C :   -0.116243
  22 C :    0.047492
  23 H :    0.149377
  24 H :    0.162723
  25 H :    0.148664
  26 H :    0.150451
  27 H :    0.058012
  28 C :   -0.098432
  29 H :    0.157049
  30 H :    0.142943
  31 O :   -0.186146
  32 C :    0.125079
  33 O :   -0.257352
  34 C :   -0.386944
  35 H :    0.141118
  36 H :    0.144363
  37 H :    0.144472

  Mayer bond orders larger than 0.100000
B(  0-Pd,  1-O ) :   0.7556 B(  0-Pd,  3-O ) :   0.1200 B(  0-Pd,  8-N ) :   0.3757
B(  0-Pd, 22-C ) :   0.1922 B(  0-Pd, 27-H ) :   0.1403 B(  0-Pd, 31-O ) :   0.6743
B(  1-O ,  2-C ) :   1.1235 B(  2-C ,  3-O ) :   1.9550 B(  2-C ,  4-C ) :   0.9236
B(  4-C ,  5-H ) :   0.9195 B(  4-C ,  6-H ) :   0.9124 B(  4-C ,  7-H ) :   0.9126
B(  8-N ,  9-C ) :   0.9260 B(  8-N , 13-C ) :   0.9219 B(  8-N , 28-C ) :   0.8840
B(  9-C , 10-H ) :   0.8772 B(  9-C , 11-H ) :   0.9046 B(  9-C , 12-H ) :   0.9117
B( 13-C , 14-H ) :   0.8903 B( 13-C , 15-H ) :   0.9052 B( 13-C , 16-H ) :   0.8957
B( 17-C , 18-C ) :   1.3575 B( 17-C , 22-C ) :   1.4090 B( 17-C , 28-C ) :   0.9428
B( 18-C , 19-C ) :   1.4634 B( 18-C , 21-C ) :   0.1016 B( 18-C , 25-H ) :   0.9055
B( 19-C , 20-C ) :   1.4120 B( 19-C , 26-H ) :   0.9083 B( 20-C , 21-C ) :   1.4047
B( 20-C , 23-H ) :   0.9020 B( 21-C , 22-C ) :   1.4442 B( 21-C , 24-H ) :   0.8979
B( 22-C , 27-H ) :   0.6362 B( 28-C , 29-H ) :   0.8989 B( 28-C , 30-H ) :   0.9096
B( 31-O , 32-C ) :   1.2445 B( 32-C , 33-O ) :   1.9297 B( 32-C , 34-C ) :   0.9230
B( 34-C , 35-H ) :   0.9226 B( 34-C , 36-H ) :   0.9095 B( 34-C , 37-H ) :   0.9172

Dispersion correction           -0.025487325
FINAL SINGLE POINT ENERGY      -988.199524125282
Dispersion correction            ... done

DIPOLE MOMENT
-------------
                                X             Y             Z
Electronic contribution:     17.74838       8.92486      -8.93716
Nuclear contribution   :    -20.34611      -9.66748      10.58993
                        -----------------------------------------
Total Dipole Moment    :     -2.59772      -0.74262       1.65276
                        -----------------------------------------
Magnitude (a.u.)       :      3.16722
Magnitude (Debye)      :      8.05043

Rotational constants in cm-1:     0.013267     0.008365     0.006356
Rotational constants in MHz :   397.736981   250.771496   190.537618

                             ****ORCA TERMINATED NORMALLY****
TOTAL RUN TIME: 0 days 0 hours 21 minutes 54 seconds 902 msec
