                         Program Version 5.0.3 -  RELEASE  -
|  1> ! EnGrad PBEh-3c
|  2> %output
|  3> xyzfile=True
|  4> end
|  5> %scf
|  6> maxiter 250
|  7> end
|  8> %output
|  9> Print[P_Hirshfeld] = 1
| 10> end
| 11> % maxcore
| 12> 4000
| 13> *xyz 0 1
| 14> Pd   0.49287575   0.29702322  -0.15175505
| 15> O    1.94689477   1.21084194   0.62201443
| 16> C    1.66070537   2.60763699   0.32861853
| 17> O    0.59564490   2.93907484  -0.20121812
| 18> C    2.78954185   3.61701436   0.63888351
| 19> H    2.31357726   4.51620180   1.05554430
| 20> H    3.23967119   3.93592536  -0.30779576
| 21> H    3.57839704   3.28489049   1.30957520
| 22> N   -1.44049135  -0.83275714  -1.08026734
| 23> C   -1.19091769  -2.02482718  -1.88406285
| 24> H   -0.57752193  -1.73680946  -2.71469650
| 25> H   -2.18439186  -2.32315591  -2.17495293
| 26> H   -0.70192831  -2.77035428  -1.26695092
| 27> C   -2.04115041   0.26285655  -1.86420979
| 28> H   -2.13465128   1.19697717  -1.30515000
| 29> H   -3.00767428  -0.11949127  -2.16113920
| 30> H   -1.40752637   0.40100608  -2.73652477
| 31> C   -1.70267351  -1.04259219   1.50912522
| 32> C   -1.60813909  -2.16859825   2.34232747
| 33> C   -1.22964468  -2.03430147   3.66120434
| 34> C   -1.08376455  -0.76064876   4.18161357
| 35> C   -1.15113006   0.36858050   3.37602183
| 36> C   -1.35885634   0.14536785   2.06818013
| 37> H   -0.79746843  -0.63086946   5.22199038
| 38> H   -1.18221047   1.32645015   3.82143926
| 39> H   -1.92495652  -3.16127666   1.99718609
| 40> H   -1.35900670  -2.86660027   4.34993158
| 41> H   -1.73201465   3.47427676   1.23681085
| 42> C   -2.28241825  -1.16994588   0.15831637
| 43> H   -3.12125339  -0.48551737   0.15912755
| 44> H   -2.70156963  -2.15721454  -0.03521273
| 45> O    1.77514817   0.30587036  -1.72851639
| 46> C    2.20791182  -0.70385113  -2.56071773
| 47> O    1.75297881  -1.71823408  -2.77456833
| 48> C    3.64759961  -0.32379555  -3.13204287
| 49> H    4.00306353  -1.27642563  -3.55729075
| 50> H    4.38470629   0.06136724  -2.43876077
| 51> H    3.52923332   0.35354295  -3.96648386
| 52> *
| 53>
| 54>                          ****END OF INPUT****

CARTESIAN COORDINATES (ANGSTROEM)
---------------------------------
  Pd     0.492876    0.297023   -0.151755
  O      1.946895    1.210842    0.622014
  C      1.660705    2.607637    0.328619
  O      0.595645    2.939075   -0.201218
  C      2.789542    3.617014    0.638884
  H      2.313577    4.516202    1.055544
  H      3.239671    3.935925   -0.307796
  H      3.578397    3.284890    1.309575
  N     -1.440491   -0.832757   -1.080267
  C     -1.190918   -2.024827   -1.884063
  H     -0.577522   -1.736809   -2.714697
  H     -2.184392   -2.323156   -2.174953
  H     -0.701928   -2.770354   -1.266951
  C     -2.041150    0.262857   -1.864210
  H     -2.134651    1.196977   -1.305150
  H     -3.007674   -0.119491   -2.161139
  H     -1.407526    0.401006   -2.736525
  C     -1.702674   -1.042592    1.509125
  C     -1.608139   -2.168598    2.342327
  C     -1.229645   -2.034301    3.661204
  C     -1.083765   -0.760649    4.181614
  C     -1.151130    0.368580    3.376022
  C     -1.358856    0.145368    2.068180
  H     -0.797468   -0.630869    5.221990
  H     -1.182210    1.326450    3.821439
  H     -1.924957   -3.161277    1.997186
  H     -1.359007   -2.866600    4.349932
  H     -1.732015    3.474277    1.236811
  C     -2.282418   -1.169946    0.158316
  H     -3.121253   -0.485517    0.159128
  H     -2.701570   -2.157215   -0.035213
  O      1.775148    0.305870   -1.728516
  C      2.207912   -0.703851   -2.560718
  O      1.752979   -1.718234   -2.774568
  C      3.647600   -0.323796   -3.132043
  H      4.003064   -1.276426   -3.557291
  H      4.384706    0.061367   -2.438761
  H      3.529233    0.353543   -3.966484

 Total Charge           Charge          ....    0
 Multiplicity           Mult            ....    1
 Number of Electrons    NEL             ....  154
 Basis Dimension        Dim             ....  339

ORBITAL ENERGIES
----------------

  NO   OCC          E(Eh)            E(eV)
   0   2.0000     -19.493913      -530.4564
   1   2.0000     -19.474551      -529.9295
   2   2.0000     -19.454130      -529.3738
   3   2.0000     -19.449812      -529.2563
   4   2.0000     -14.696327      -399.9074
   5   2.0000     -10.568078      -287.5720
   6   2.0000     -10.531531      -286.5775
   7   2.0000     -10.519867      -286.2601
   8   2.0000     -10.504747      -285.8487
   9   2.0000     -10.502252      -285.7808
  10   2.0000     -10.489109      -285.4232
  11   2.0000     -10.484012      -285.2845
  12   2.0000     -10.482944      -285.2554
  13   2.0000     -10.479734      -285.1681
  14   2.0000     -10.474170      -285.0166
  15   2.0000     -10.463884      -284.7368
  16   2.0000     -10.438952      -284.0583
  17   2.0000     -10.407175      -283.1936
  18   2.0000      -3.651612       -99.3654
  19   2.0000      -2.304654       -62.7128
  20   2.0000      -2.289963       -62.3131
  21   2.0000      -2.264001       -61.6066
  22   2.0000      -1.177036       -32.0288
  23   2.0000      -1.144666       -31.1479
  24   2.0000      -1.054621       -28.6977
  25   2.0000      -1.041159       -28.3314
  26   2.0000      -1.029072       -28.0025
  27   2.0000      -1.006770       -27.3956
  28   2.0000      -0.905545       -24.6411
  29   2.0000      -0.875228       -23.8162
  30   2.0000      -0.813774       -22.1439
  31   2.0000      -0.810414       -22.0525
  32   2.0000      -0.809994       -22.0410
  33   2.0000      -0.772987       -21.0341
  34   2.0000      -0.719805       -19.5869
  35   2.0000      -0.711190       -19.3525
  36   2.0000      -0.677681       -18.4407
  37   2.0000      -0.612735       -16.6734
  38   2.0000      -0.599946       -16.3254
  39   2.0000      -0.575374       -15.6567
  40   2.0000      -0.572968       -15.5913
  41   2.0000      -0.562060       -15.2944
  42   2.0000      -0.560509       -15.2522
  43   2.0000      -0.540068       -14.6960
  44   2.0000      -0.529468       -14.4076
  45   2.0000      -0.520772       -14.1709
  46   2.0000      -0.514175       -13.9914
  47   2.0000      -0.501585       -13.6488
  48   2.0000      -0.500774       -13.6268
  49   2.0000      -0.491090       -13.3632
  50   2.0000      -0.488632       -13.2963
  51   2.0000      -0.485533       -13.2120
  52   2.0000      -0.483473       -13.1560
  53   2.0000      -0.481355       -13.0983
  54   2.0000      -0.469167       -12.7667
  55   2.0000      -0.447612       -12.1801
  56   2.0000      -0.445296       -12.1171
  57   2.0000      -0.444295       -12.0899
  58   2.0000      -0.440405       -11.9840
  59   2.0000      -0.431896       -11.7525
  60   2.0000      -0.430792       -11.7224
  61   2.0000      -0.418450       -11.3866
  62   2.0000      -0.409399       -11.1403
  63   2.0000      -0.400140       -10.8884
  64   2.0000      -0.382531       -10.4092
  65   2.0000      -0.355313        -9.6686
  66   2.0000      -0.345370        -9.3980
  67   2.0000      -0.337224        -9.1763
  68   2.0000      -0.327395        -8.9089
  69   2.0000      -0.325568        -8.8591
  70   2.0000      -0.318158        -8.6575
  71   2.0000      -0.311981        -8.4894
  72   2.0000      -0.300802        -8.1852
  73   2.0000      -0.290507        -7.9051
  74   2.0000      -0.285379        -7.7656
  75   2.0000      -0.268139        -7.2964
  76   2.0000      -0.255003        -6.9390
  77   0.0000      -0.165652        -4.5076
  78   0.0000      -0.066578        -1.8117
  79   0.0000      -0.022637        -0.6160
  80   0.0000      -0.009782        -0.2662
  81   0.0000       0.050740         1.3807

MULLIKEN ATOMIC CHARGES
-----------------------
   0 Pd:    0.437999
   1 O :   -0.550348
   2 C :    0.610540
   3 O :   -0.408860
   4 C :   -0.744585
   5 H :    0.242662
   6 H :    0.261419
   7 H :    0.252328
   8 N :   -0.459760
   9 C :   -0.503038
  10 H :    0.290423
  11 H :    0.197190
  12 H :    0.252923
  13 C :   -0.531293
  14 H :    0.282780
  15 H :    0.215984
  16 H :    0.271050
  17 C :    0.060420
  18 C :   -0.257914
  19 C :   -0.191320
  20 C :   -0.241016
  21 C :   -0.256375
  22 C :    0.011732
  23 H :    0.244165
  24 H :    0.271093
  25 H :    0.237576
  26 H :    0.235641
  27 H :    0.038334
  28 C :   -0.328778
  29 H :    0.260967
  30 H :    0.242742
  31 O :   -0.562000
  32 C :    0.519425
  33 O :   -0.354669
  34 C :   -0.743269
  35 H :    0.218876
  36 H :    0.246348
  37 H :    0.230608
Sum of atomic charges:   -0.0000000

LOEWDIN ATOMIC CHARGES
----------------------
   0 Pd:   -0.302661
   1 O :   -0.202851
   2 C :    0.246595
   3 O :   -0.194715
   4 C :   -0.379905
   5 H :    0.150350
   6 H :    0.161997
   7 H :    0.147844
   8 N :   -0.118146
   9 C :   -0.237501
  10 H :    0.160857
  11 H :    0.108309
  12 H :    0.145881
  13 C :   -0.237205
  14 H :    0.159311
  15 H :    0.114407
  16 H :    0.154700
  17 C :   -0.057401
  18 C :   -0.104276
  19 C :   -0.123350
  20 C :   -0.110510
  21 C :   -0.119915
  22 C :    0.054483
  23 H :    0.147775
  24 H :    0.164282
  25 H :    0.148142
  26 H :    0.149741
  27 H :    0.044098
  28 C :   -0.103702
  29 H :    0.154265
  30 H :    0.139543
  31 O :   -0.236573
  32 C :    0.120644
  33 O :   -0.163237
  34 C :   -0.398714
  35 H :    0.132880
  36 H :    0.144096
  37 H :    0.140462

  Mayer bond orders larger than 0.100000
B(  0-Pd,  1-O ) :   0.7866 B(  0-Pd,  3-O ) :   0.1302 B(  0-Pd,  8-N ) :   0.3313
B(  0-Pd, 22-C ) :   0.2054 B(  0-Pd, 27-H ) :   0.1574 B(  0-Pd, 31-O ) :   0.6974
B(  1-O ,  2-C ) :   1.0763 B(  2-C ,  3-O ) :   1.8675 B(  2-C ,  4-C ) :   0.9394
B(  4-C ,  5-H ) :   0.9116 B(  4-C ,  6-H ) :   0.9038 B(  4-C ,  7-H ) :   0.9078
B(  8-N ,  9-C ) :   0.9298 B(  8-N , 13-C ) :   0.9267 B(  8-N , 28-C ) :   0.8979
B(  9-C , 10-H ) :   0.8844 B(  9-C , 11-H ) :   0.9069 B(  9-C , 12-H ) :   0.9150
B( 13-C , 14-H ) :   0.8933 B( 13-C , 15-H ) :   0.9074 B( 13-C , 16-H ) :   0.9005
B( 17-C , 18-C ) :   1.3768 B( 17-C , 22-C ) :   1.3929 B( 17-C , 28-C ) :   0.9479
B( 18-C , 19-C ) :   1.4413 B( 18-C , 25-H ) :   0.9042 B( 19-C , 20-C ) :   1.4138
B( 19-C , 26-H ) :   0.9128 B( 20-C , 21-C ) :   1.3965 B( 20-C , 23-H ) :   0.9039
B( 21-C , 22-C ) :   1.4520 B( 21-C , 24-H ) :   0.8973 B( 22-C , 27-H ) :   0.6209
B( 28-C , 29-H ) :   0.8994 B( 28-C , 30-H ) :   0.9118 B( 31-O , 32-C ) :   1.1778
B( 32-C , 33-O ) :   2.0430 B( 32-C , 34-C ) :   0.8957 B( 34-C , 35-H ) :   0.9227
B( 34-C , 36-H ) :   0.9149 B( 34-C , 37-H ) :   0.9187

Dispersion correction           -0.025414960
FINAL SINGLE POINT ENERGY      -988.174991316028
Dispersion correction            ... done

DIPOLE MOMENT
-------------
                                X             Y             Z
Electronic contribution:     20.48158      14.57189      -5.82933
Nuclear contribution   :    -22.53252     -15.22524       7.50664
                        -----------------------------------------
Total Dipole Moment    :     -2.05095      -0.65335       1.67731
                        -----------------------------------------
Magnitude (a.u.)       :      2.72885
Magnitude (Debye)      :      6.93618

Rotational constants in cm-1:     0.013128     0.008362     0.006348
Rotational constants in MHz :   393.559916   250.677987   190.318742

                             ****ORCA TERMINATED NORMALLY****
TOTAL RUN TIME: 0 days 0 hours 18 minutes 12 seconds 43 msec
