                         Program Version 5.0.3 -  RELEASE  -
|  1> ! EnGrad PBEh-3c
|  2> %output
|  3> xyzfile=True
|  4> end
|  5> %scf
|  6> maxiter 250
|  7> end
|  8> %output
|  9> Print[P_Hirshfeld] = 1
| 10> end
| 11> % maxcore
| 12> 4000
| 13> *xyz 0 1
| 14> Pd   0.46634365   0.22299273  -0.19171405
| 15> O    1.97133378   1.26126596   0.62724202
| 16> C    1.66861253   2.60866985   0.32255921
| 17> O    0.65542232   2.92178275  -0.17585383
| 18> C    2.79633082   3.62819720   0.64008084
| 19> H    2.32708476   4.52873227   1.05950737
| 20> H    3.24581651   3.93966878  -0.30463870
| 21> H    3.57285285   3.28318437   1.30459977
| 22> N   -1.41140893  -0.81743796  -1.04655463
| 23> C   -1.19257145  -2.01094761  -1.84674474
| 24> H   -0.59821201  -1.77617558  -2.69703068
| 25> H   -2.16795965  -2.34089206  -2.18779197
| 26> H   -0.71071910  -2.76237076  -1.23986806
| 27> C   -2.02167761   0.23931944  -1.86441003
| 28> H   -2.11930824   1.17330514  -1.33823558
| 29> H   -2.99677571  -0.13055004  -2.17387575
| 30> H   -1.40711386   0.37717967  -2.74937082
| 31> C   -1.65863196  -1.06404143   1.48102424
| 32> C   -1.59303758  -2.18639419   2.34704928
| 33> C   -1.27044700  -2.03454197   3.67284649
| 34> C   -1.04294537  -0.77664699   4.17755823
| 35> C   -1.16051841   0.35239113   3.36038093
| 36> C   -1.39110803   0.13695433   2.04571504
| 37> H   -0.78864316  -0.64155720   5.22937969
| 38> H   -1.15478664   1.30279414   3.83079413
| 39> H   -2.00530530  -3.14166865   2.04031396
| 40> H   -1.42280910  -2.85972997   4.36917785
| 41> H   -1.71888710   3.53520228   1.22098595
| 42> C   -2.29278875  -1.15881564   0.15916385
| 43> H   -3.14357882  -0.47275081   0.16882924
| 44> H   -2.74920704  -2.13716883  -0.00920948
| 45> O    1.72248633   0.28918054  -1.76089478
| 46> C    2.25870265  -0.65826660  -2.52733136
| 47> O    1.79117642  -1.72101641  -2.72769338
| 48> C    3.63991745  -0.31221613  -3.15744913
| 49> H    4.04513624  -1.23539377  -3.60418905
| 50> H    4.36122222   0.06508320  -2.47113829
| 51> H    3.49376273   0.37145675  -3.98578154
| 52> *
| 53>
| 54>                          ****END OF INPUT****

CARTESIAN COORDINATES (ANGSTROEM)
---------------------------------
  Pd     0.466344    0.222993   -0.191714
  O      1.971334    1.261266    0.627242
  C      1.668613    2.608670    0.322559
  O      0.655422    2.921783   -0.175854
  C      2.796331    3.628197    0.640081
  H      2.327085    4.528732    1.059507
  H      3.245817    3.939669   -0.304639
  H      3.572853    3.283184    1.304600
  N     -1.411409   -0.817438   -1.046555
  C     -1.192571   -2.010948   -1.846745
  H     -0.598212   -1.776176   -2.697031
  H     -2.167960   -2.340892   -2.187792
  H     -0.710719   -2.762371   -1.239868
  C     -2.021678    0.239319   -1.864410
  H     -2.119308    1.173305   -1.338236
  H     -2.996776   -0.130550   -2.173876
  H     -1.407114    0.377180   -2.749371
  C     -1.658632   -1.064041    1.481024
  C     -1.593038   -2.186394    2.347049
  C     -1.270447   -2.034542    3.672846
  C     -1.042945   -0.776647    4.177558
  C     -1.160518    0.352391    3.360381
  C     -1.391108    0.136954    2.045715
  H     -0.788643   -0.641557    5.229380
  H     -1.154787    1.302794    3.830794
  H     -2.005305   -3.141669    2.040314
  H     -1.422809   -2.859730    4.369178
  H     -1.718887    3.535202    1.220986
  C     -2.292789   -1.158816    0.159164
  H     -3.143579   -0.472751    0.168829
  H     -2.749207   -2.137169   -0.009209
  O      1.722486    0.289181   -1.760895
  C      2.258703   -0.658267   -2.527331
  O      1.791176   -1.721016   -2.727693
  C      3.639917   -0.312216   -3.157449
  H      4.045136   -1.235394   -3.604189
  H      4.361222    0.065083   -2.471138
  H      3.493763    0.371457   -3.985782

 Total Charge           Charge          ....    0
 Multiplicity           Mult            ....    1
 Number of Electrons    NEL             ....  154
 Basis Dimension        Dim             ....  339

ORBITAL ENERGIES
----------------

  NO   OCC          E(Eh)            E(eV)
   0   2.0000     -19.477130      -529.9997
   1   2.0000     -19.461806      -529.5827
   2   2.0000     -19.458947      -529.5049
   3   2.0000     -19.429614      -528.7067
   4   2.0000     -14.710557      -400.2946
   5   2.0000     -10.546977      -286.9978
   6   2.0000     -10.526178      -286.4319
   7   2.0000     -10.521269      -286.2983
   8   2.0000     -10.511251      -286.0257
   9   2.0000     -10.505788      -285.8770
  10   2.0000     -10.491214      -285.4804
  11   2.0000     -10.487332      -285.3748
  12   2.0000     -10.486548      -285.3535
  13   2.0000     -10.481016      -285.2030
  14   2.0000     -10.477422      -285.1051
  15   2.0000     -10.464663      -284.7580
  16   2.0000     -10.425540      -283.6934
  17   2.0000     -10.407173      -283.1936
  18   2.0000      -3.656843       -99.5077
  19   2.0000      -2.306350       -62.7590
  20   2.0000      -2.297644       -62.5221
  21   2.0000      -2.268466       -61.7281
  22   2.0000      -1.168790       -31.8044
  23   2.0000      -1.146801       -31.2060
  24   2.0000      -1.067254       -29.0415
  25   2.0000      -1.041213       -28.3328
  26   2.0000      -1.032595       -28.0983
  27   2.0000      -1.007555       -27.4170
  28   2.0000      -0.909483       -24.7483
  29   2.0000      -0.876453       -23.8495
  30   2.0000      -0.818621       -22.2758
  31   2.0000      -0.813666       -22.1410
  32   2.0000      -0.798377       -21.7250
  33   2.0000      -0.781640       -21.2695
  34   2.0000      -0.723919       -19.6988
  35   2.0000      -0.716996       -19.5105
  36   2.0000      -0.682373       -18.5683
  37   2.0000      -0.615703       -16.7541
  38   2.0000      -0.584961       -15.9176
  39   2.0000      -0.579412       -15.7666
  40   2.0000      -0.577312       -15.7095
  41   2.0000      -0.570400       -15.5214
  42   2.0000      -0.564809       -15.3692
  43   2.0000      -0.544295       -14.8110
  44   2.0000      -0.533866       -14.5272
  45   2.0000      -0.515507       -14.0277
  46   2.0000      -0.510574       -13.8934
  47   2.0000      -0.505918       -13.7667
  48   2.0000      -0.498684       -13.5699
  49   2.0000      -0.489753       -13.3269
  50   2.0000      -0.487551       -13.2669
  51   2.0000      -0.484247       -13.1770
  52   2.0000      -0.482707       -13.1351
  53   2.0000      -0.478748       -13.0274
  54   2.0000      -0.468443       -12.7470
  55   2.0000      -0.448937       -12.2162
  56   2.0000      -0.447611       -12.1801
  57   2.0000      -0.440089       -11.9754
  58   2.0000      -0.439749       -11.9662
  59   2.0000      -0.437108       -11.8943
  60   2.0000      -0.425085       -11.5672
  61   2.0000      -0.417892       -11.3714
  62   2.0000      -0.410675       -11.1750
  63   2.0000      -0.390172       -10.6171
  64   2.0000      -0.380639       -10.3577
  65   2.0000      -0.356813        -9.7094
  66   2.0000      -0.344976        -9.3873
  67   2.0000      -0.340054        -9.2534
  68   2.0000      -0.333481        -9.0745
  69   2.0000      -0.325645        -8.8613
  70   2.0000      -0.323170        -8.7939
  71   2.0000      -0.309019        -8.4088
  72   2.0000      -0.303009        -8.2453
  73   2.0000      -0.289823        -7.8865
  74   2.0000      -0.276921        -7.5354
  75   2.0000      -0.276031        -7.5112
  76   2.0000      -0.257585        -7.0092
  77   0.0000      -0.171268        -4.6604
  78   0.0000      -0.077934        -2.1207
  79   0.0000      -0.028859        -0.7853
  80   0.0000      -0.010522        -0.2863
  81   0.0000       0.052213         1.4208

MULLIKEN ATOMIC CHARGES
-----------------------
   0 Pd:    0.431446
   1 O :   -0.542684
   2 C :    0.587089
   3 O :   -0.373654
   4 C :   -0.747557
   5 H :    0.232890
   6 H :    0.251948
   7 H :    0.248070
   8 N :   -0.463521
   9 C :   -0.515459
  10 H :    0.301174
  11 H :    0.199358
  12 H :    0.258504
  13 C :   -0.538197
  14 H :    0.287925
  15 H :    0.220014
  16 H :    0.278456
  17 C :    0.020748
  18 C :   -0.243509
  19 C :   -0.201248
  20 C :   -0.227694
  21 C :   -0.261978
  22 C :    0.031640
  23 H :    0.247869
  24 H :    0.269638
  25 H :    0.234856
  26 H :    0.240521
  27 H :    0.049714
  28 C :   -0.331329
  29 H :    0.267225
  30 H :    0.249880
  31 O :   -0.544376
  32 C :    0.532789
  33 O :   -0.418529
  34 C :   -0.742413
  35 H :    0.230194
  36 H :    0.248452
  37 H :    0.231748
Sum of atomic charges:   -0.0000000

LOEWDIN ATOMIC CHARGES
----------------------
   0 Pd:   -0.281005
   1 O :   -0.222808
   2 C :    0.181796
   3 O :   -0.155050
   4 C :   -0.385700
   5 H :    0.144250
   6 H :    0.156045
   7 H :    0.143747
   8 N :   -0.089029
   9 C :   -0.238734
  10 H :    0.162635
  11 H :    0.108484
  12 H :    0.147823
  13 C :   -0.236227
  14 H :    0.158511
  15 H :    0.117208
  16 H :    0.157443
  17 C :   -0.058802
  18 C :   -0.103691
  19 C :   -0.123858
  20 C :   -0.106914
  21 C :   -0.117102
  22 C :    0.049534
  23 H :    0.148968
  24 H :    0.163087
  25 H :    0.148454
  26 H :    0.150266
  27 H :    0.054555
  28 C :   -0.099929
  29 H :    0.156266
  30 H :    0.141934
  31 O :   -0.199526
  32 C :    0.123018
  33 O :   -0.231817
  34 C :   -0.390115
  35 H :    0.138734
  36 H :    0.144210
  37 H :    0.143340

  Mayer bond orders larger than 0.100000
B(  0-Pd,  1-O ) :   0.7665 B(  0-Pd,  3-O ) :   0.1228 B(  0-Pd,  8-N ) :   0.3641
B(  0-Pd, 22-C ) :   0.1954 B(  0-Pd, 27-H ) :   0.1449 B(  0-Pd, 31-O ) :   0.6805
B(  1-O ,  2-C ) :   1.1085 B(  2-C ,  3-O ) :   1.9284 B(  2-C ,  4-C ) :   0.9290
B(  4-C ,  5-H ) :   0.9174 B(  4-C ,  6-H ) :   0.9100 B(  4-C ,  7-H ) :   0.9112
B(  8-N ,  9-C ) :   0.9275 B(  8-N , 13-C ) :   0.9236 B(  8-N , 28-C ) :   0.8877
B(  9-C , 10-H ) :   0.8792 B(  9-C , 11-H ) :   0.9051 B(  9-C , 12-H ) :   0.9128
B( 13-C , 14-H ) :   0.8912 B( 13-C , 15-H ) :   0.9058 B( 13-C , 16-H ) :   0.8970
B( 17-C , 18-C ) :   1.3647 B( 17-C , 22-C ) :   1.4048 B( 17-C , 28-C ) :   0.9442
B( 18-C , 19-C ) :   1.4578 B( 18-C , 21-C ) :   0.1008 B( 18-C , 25-H ) :   0.9047
B( 19-C , 20-C ) :   1.4133 B( 19-C , 26-H ) :   0.9100 B( 20-C , 21-C ) :   1.4035
B( 20-C , 23-H ) :   0.9021 B( 21-C , 22-C ) :   1.4468 B( 21-C , 24-H ) :   0.8979
B( 22-C , 27-H ) :   0.6329 B( 28-C , 29-H ) :   0.8992 B( 28-C , 30-H ) :   0.9103
B( 31-O , 32-C ) :   1.2271 B( 32-C , 33-O ) :   1.9616 B( 32-C , 34-C ) :   0.9152
B( 34-C , 35-H ) :   0.9227 B( 34-C , 36-H ) :   0.9112 B( 34-C , 37-H ) :   0.9178

Dispersion correction           -0.025469992
FINAL SINGLE POINT ENERGY      -988.204422318917
Dispersion correction            ... done

DIPOLE MOMENT
-------------
                                X             Y             Z
Electronic contribution:     18.53135      10.55266      -8.03445
Nuclear contribution   :    -20.97545     -11.26724       9.70243
                        -----------------------------------------
Total Dipole Moment    :     -2.44410      -0.71458       1.66797
                        -----------------------------------------
Magnitude (a.u.)       :      3.04407
Magnitude (Debye)      :      7.73742

Rotational constants in cm-1:     0.013231     0.008365     0.006355
Rotational constants in MHz :   396.657014   250.762236   190.503259

                             ****ORCA TERMINATED NORMALLY****
TOTAL RUN TIME: 0 days 0 hours 14 minutes 59 seconds 742 msec
