                         Program Version 5.0.3 -  RELEASE  -
|  1> ! EnGrad PBEh-3c
|  2> %output
|  3> xyzfile=True
|  4> end
|  5> %scf
|  6> maxiter 250
|  7> end
|  8> %output
|  9> Print[P_Hirshfeld] = 1
| 10> end
| 11> % maxcore
| 12> 4000
| 13> *xyz 0 1
| 14> Pd   0.45819872   0.20026654  -0.20398084
| 15> O    1.97883616   1.27674533   0.62884681
| 16> C    1.67103990   2.60898692   0.32069909
| 17> O    0.67377304   2.91647436  -0.16806740
| 18> C    2.79841493   3.63163016   0.64044840
| 19> H    2.33123136   4.53257892   1.06072397
| 20> H    3.24770303   3.94081795  -0.30366953
| 21> H    3.57115087   3.28266062   1.30307239
| 22> N   -1.40248109  -0.81273522  -1.03620536
| 23> C   -1.19307913  -2.00668680  -1.83528867
| 24> H   -0.60456354  -1.78826036  -2.69160755
| 25> H   -2.16291522  -2.34633678  -2.19173335
| 26> H   -0.71341774  -2.75991995  -1.23155405
| 27> C   -2.01569977   0.23209391  -1.86447150
| 28> H   -2.11459817   1.16603820  -1.34839233
| 29> H   -2.99343002  -0.13394490  -2.17778567
| 30> H   -1.40698722   0.36986534  -2.75331436
| 31> C   -1.64511189  -1.07062601   1.47239768
| 32> C   -1.58840165  -2.19185726   2.34849880
| 33> C   -1.28297267  -2.03461581   3.67642045
| 34> C   -1.03041452  -0.78155820   4.17631330
| 35> C   -1.16340049   0.34742124   3.35557942
| 36> C   -1.40100879   0.13437152   2.03881860
| 37> H   -0.78593393  -0.64483816   5.23164809
| 38> H   -1.14636796   1.29553212   3.83366592
| 39> H   -2.02997112  -3.13564931   2.05355354
| 40> H   -1.44239542  -2.85762090   4.37508616
| 41> H   -1.71485715   3.55390545   1.21612795
| 42> C   -2.29597233  -1.15539883   0.15942401
| 43> H   -3.15043237  -0.46883168   0.17180751
| 44> H   -2.76383097  -2.13101511  -0.00122690
| 45> O    1.70631997   0.28405703  -1.77083444
| 46> C    2.27429464  -0.64427287  -2.51708228
| 47> O    1.80290248  -1.72187055  -2.71330351
| 48> C    3.63755914  -0.30866144  -3.16524845
| 49> H    4.05805189  -1.22279763  -3.61858609
| 50> H    4.35401299   0.06622394  -2.48107768
| 51> H    3.48287382   0.37695600  -3.99170563
| 52> *
| 53>
| 54>                          ****END OF INPUT****

CARTESIAN COORDINATES (ANGSTROEM)
---------------------------------
  Pd     0.458199    0.200267   -0.203981
  O      1.978836    1.276745    0.628847
  C      1.671040    2.608987    0.320699
  O      0.673773    2.916474   -0.168067
  C      2.798415    3.631630    0.640448
  H      2.331231    4.532579    1.060724
  H      3.247703    3.940818   -0.303670
  H      3.571151    3.282661    1.303072
  N     -1.402481   -0.812735   -1.036205
  C     -1.193079   -2.006687   -1.835289
  H     -0.604564   -1.788260   -2.691608
  H     -2.162915   -2.346337   -2.191733
  H     -0.713418   -2.759920   -1.231554
  C     -2.015700    0.232094   -1.864472
  H     -2.114598    1.166038   -1.348392
  H     -2.993430   -0.133945   -2.177786
  H     -1.406987    0.369865   -2.753314
  C     -1.645112   -1.070626    1.472398
  C     -1.588402   -2.191857    2.348499
  C     -1.282973   -2.034616    3.676420
  C     -1.030415   -0.781558    4.176313
  C     -1.163400    0.347421    3.355579
  C     -1.401009    0.134372    2.038819
  H     -0.785934   -0.644838    5.231648
  H     -1.146368    1.295532    3.833666
  H     -2.029971   -3.135649    2.053554
  H     -1.442395   -2.857621    4.375086
  H     -1.714857    3.553905    1.216128
  C     -2.295972   -1.155399    0.159424
  H     -3.150432   -0.468832    0.171808
  H     -2.763831   -2.131015   -0.001227
  O      1.706320    0.284057   -1.770834
  C      2.274295   -0.644273   -2.517082
  O      1.802902   -1.721871   -2.713304
  C      3.637559   -0.308661   -3.165248
  H      4.058052   -1.222798   -3.618586
  H      4.354013    0.066224   -2.481078
  H      3.482874    0.376956   -3.991706

 Total Charge           Charge          ....    0
 Multiplicity           Mult            ....    1
 Number of Electrons    NEL             ....  154
 Basis Dimension        Dim             ....  339

ORBITAL ENERGIES
----------------

  NO   OCC          E(Eh)            E(eV)
   0   2.0000     -19.471774      -529.8539
   1   2.0000     -19.460413      -529.5448
   2   2.0000     -19.457978      -529.4785
   3   2.0000     -19.424046      -528.5552
   4   2.0000     -14.714736      -400.4083
   5   2.0000     -10.540405      -286.8190
   6   2.0000     -10.524998      -286.3997
   7   2.0000     -10.521744      -286.3112
   8   2.0000     -10.513298      -286.0814
   9   2.0000     -10.506980      -285.9095
  10   2.0000     -10.492125      -285.5052
  11   2.0000     -10.488499      -285.4066
  12   2.0000     -10.487724      -285.3855
  13   2.0000     -10.481555      -285.2176
  14   2.0000     -10.478456      -285.1333
  15   2.0000     -10.465107      -284.7700
  16   2.0000     -10.421267      -283.5771
  17   2.0000     -10.407492      -283.2023
  18   2.0000      -3.658585       -99.5552
  19   2.0000      -2.307363       -62.7865
  20   2.0000      -2.299976       -62.5855
  21   2.0000      -2.270023       -61.7705
  22   2.0000      -1.177151       -32.0319
  23   2.0000      -1.141050       -31.0496
  24   2.0000      -1.071135       -29.1471
  25   2.0000      -1.040330       -28.3088
  26   2.0000      -1.031625       -28.0719
  27   2.0000      -1.007641       -27.4193
  28   2.0000      -0.910662       -24.7804
  29   2.0000      -0.876523       -23.8514
  30   2.0000      -0.820079       -22.3155
  31   2.0000      -0.814582       -22.1659
  32   2.0000      -0.794724       -21.6256
  33   2.0000      -0.784435       -21.3456
  34   2.0000      -0.724962       -19.7272
  35   2.0000      -0.718776       -19.5589
  36   2.0000      -0.683531       -18.5998
  37   2.0000      -0.616457       -16.7746
  38   2.0000      -0.583914       -15.8891
  39   2.0000      -0.579525       -15.7697
  40   2.0000      -0.577159       -15.7053
  41   2.0000      -0.573132       -15.5957
  42   2.0000      -0.565592       -15.3905
  43   2.0000      -0.545912       -14.8550
  44   2.0000      -0.534816       -14.5531
  45   2.0000      -0.514657       -14.0045
  46   2.0000      -0.510989       -13.9047
  47   2.0000      -0.506609       -13.7855
  48   2.0000      -0.498190       -13.5564
  49   2.0000      -0.490642       -13.3511
  50   2.0000      -0.488304       -13.2874
  51   2.0000      -0.484704       -13.1895
  52   2.0000      -0.482984       -13.1427
  53   2.0000      -0.476848       -12.9757
  54   2.0000      -0.467989       -12.7346
  55   2.0000      -0.450015       -12.2455
  56   2.0000      -0.447801       -12.1853
  57   2.0000      -0.439994       -11.9729
  58   2.0000      -0.438432       -11.9303
  59   2.0000      -0.437166       -11.8959
  60   2.0000      -0.423266       -11.5177
  61   2.0000      -0.418235       -11.3808
  62   2.0000      -0.411578       -11.1996
  63   2.0000      -0.390483       -10.6256
  64   2.0000      -0.380007       -10.3405
  65   2.0000      -0.356504        -9.7010
  66   2.0000      -0.345035        -9.3889
  67   2.0000      -0.342938        -9.3318
  68   2.0000      -0.333111        -9.0644
  69   2.0000      -0.325438        -8.8556
  70   2.0000      -0.322838        -8.7849
  71   2.0000      -0.307207        -8.3595
  72   2.0000      -0.302836        -8.2406
  73   2.0000      -0.289111        -7.8671
  74   2.0000      -0.277602        -7.5539
  75   2.0000      -0.272797        -7.4232
  76   2.0000      -0.258216        -7.0264
  77   0.0000      -0.172872        -4.7041
  78   0.0000      -0.081095        -2.2067
  79   0.0000      -0.031309        -0.8519
  80   0.0000      -0.010714        -0.2916
  81   0.0000       0.051998         1.4149

MULLIKEN ATOMIC CHARGES
-----------------------
   0 Pd:    0.432123
   1 O :   -0.540774
   2 C :    0.577036
   3 O :   -0.360302
   4 C :   -0.749159
   5 H :    0.229796
   6 H :    0.248981
   7 H :    0.246807
   8 N :   -0.466378
   9 C :   -0.519539
  10 H :    0.304371
  11 H :    0.200330
  12 H :    0.260376
  13 C :   -0.540410
  14 H :    0.289506
  15 H :    0.221425
  16 H :    0.280704
  17 C :    0.006124
  18 C :   -0.238022
  19 C :   -0.206176
  20 C :   -0.221571
  21 C :   -0.265502
  22 C :    0.040333
  23 H :    0.248420
  24 H :    0.269510
  25 H :    0.233581
  26 H :    0.242442
  27 H :    0.052675
  28 C :   -0.331325
  29 H :    0.269185
  30 H :    0.251898
  31 O :   -0.538660
  32 C :    0.535604
  33 O :   -0.436355
  34 C :   -0.741739
  35 H :    0.233553
  36 H :    0.249021
  37 H :    0.232111
Sum of atomic charges:    0.0000000

LOEWDIN ATOMIC CHARGES
----------------------
   0 Pd:   -0.274640
   1 O :   -0.228202
   2 C :    0.160046
   3 O :   -0.140761
   4 C :   -0.387860
   5 H :    0.142352
   6 H :    0.154211
   7 H :    0.142537
   8 N :   -0.080883
   9 C :   -0.239428
  10 H :    0.163217
  11 H :    0.108892
  12 H :    0.148408
  13 C :   -0.236013
  14 H :    0.158232
  15 H :    0.118208
  16 H :    0.158266
  17 C :   -0.059277
  18 C :   -0.103450
  19 C :   -0.124165
  20 C :   -0.105614
  21 C :   -0.116437
  22 C :    0.047985
  23 H :    0.149283
  24 H :    0.162805
  25 H :    0.148607
  26 H :    0.150409
  27 H :    0.057220
  28 C :   -0.098793
  29 H :    0.156863
  30 H :    0.142699
  31 O :   -0.189261
  32 C :    0.124506
  33 O :   -0.251341
  34 C :   -0.387687
  35 H :    0.140544
  36 H :    0.144319
  37 H :    0.144202

  Mayer bond orders larger than 0.100000
B(  0-Pd,  1-O ) :   0.7584 B(  0-Pd,  3-O ) :   0.1207 B(  0-Pd,  8-N ) :   0.3730
B(  0-Pd, 22-C ) :   0.1929 B(  0-Pd, 27-H ) :   0.1414 B(  0-Pd, 31-O ) :   0.6757
B(  1-O ,  2-C ) :   1.1198 B(  2-C ,  3-O ) :   1.9485 B(  2-C ,  4-C ) :   0.9250
B(  4-C ,  5-H ) :   0.9190 B(  4-C ,  6-H ) :   0.9118 B(  4-C ,  7-H ) :   0.9123
B(  8-N ,  9-C ) :   0.9264 B(  8-N , 13-C ) :   0.9223 B(  8-N , 28-C ) :   0.8849
B(  9-C , 10-H ) :   0.8776 B(  9-C , 11-H ) :   0.9048 B(  9-C , 12-H ) :   0.9119
B( 13-C , 14-H ) :   0.8906 B( 13-C , 15-H ) :   0.9054 B( 13-C , 16-H ) :   0.8960
B( 17-C , 18-C ) :   1.3594 B( 17-C , 22-C ) :   1.4080 B( 17-C , 28-C ) :   0.9431
B( 18-C , 19-C ) :   1.4621 B( 18-C , 21-C ) :   0.1015 B( 18-C , 25-H ) :   0.9053
B( 19-C , 20-C ) :   1.4124 B( 19-C , 26-H ) :   0.9087 B( 20-C , 21-C ) :   1.4045
B( 20-C , 23-H ) :   0.9020 B( 21-C , 22-C ) :   1.4449 B( 21-C , 24-H ) :   0.8979
B( 22-C , 27-H ) :   0.6355 B( 28-C , 29-H ) :   0.8990 B( 28-C , 30-H ) :   0.9097
B( 31-O , 32-C ) :   1.2405 B( 32-C , 33-O ) :   1.9374 B( 32-C , 34-C ) :   0.9211
B( 34-C , 35-H ) :   0.9227 B( 34-C , 36-H ) :   0.9099 B( 34-C , 37-H ) :   0.9173

Dispersion correction           -0.025483343
FINAL SINGLE POINT ENERGY      -988.201592266784
Dispersion correction            ... done

DIPOLE MOMENT
-------------
                                X             Y             Z
Electronic contribution:     17.93634       9.31653      -8.71944
Nuclear contribution   :    -20.49745     -10.05220      10.37650
                        -----------------------------------------
Total Dipole Moment    :     -2.56112      -0.73566       1.65705
                        -----------------------------------------
Magnitude (a.u.)       :      3.13789
Magnitude (Debye)      :      7.97588

Rotational constants in cm-1:     0.013259     0.008365     0.006355
Rotational constants in MHz :   397.486465   250.770578   190.531473

                             ****ORCA TERMINATED NORMALLY****
TOTAL RUN TIME: 0 days 0 hours 15 minutes 34 seconds 244 msec
