                         Program Version 5.0.3 -  RELEASE  -
|  1> ! EnGrad PBEh-3c
|  2> %output
|  3> xyzfile=True
|  4> end
|  5> %scf
|  6> maxiter 250
|  7> end
|  8> %output
|  9> Print[P_Hirshfeld] = 1
| 10> end
| 11> % maxcore
| 12> 4000
| 13> *xyz 0 1
| 14> Pd   0.46357437   0.21526583  -0.19588476
| 15> O    1.97388459   1.26652894   0.62778765
| 16> C    1.66943784   2.60877766   0.32192677
| 17> O    0.66166156   2.91997790  -0.17320645
| 18> C    2.79703942   3.62936441   0.64020581
| 19> H    2.32849461   4.53004013   1.05992101
| 20> H    3.24645793   3.94005949  -0.30430918
| 21> H    3.57227418   3.28300630   1.30408046
| 22> N   -1.40837346  -0.81583903  -1.04303588
| 23> C   -1.19274406  -2.00949893  -1.84284968
| 24> H   -0.60037153  -1.78028441  -2.69518681
| 25> H   -2.16624454  -2.34274327  -2.18913204
| 26> H   -0.71163664  -2.76153749  -1.23704129
| 27> C   -2.01964515   0.23686276  -1.86443093
| 28> H   -2.11770681   1.17083438  -1.34168888
| 29> H   -2.99563818  -0.13170429  -2.17520513
| 30> H   -1.40707080   0.37469280  -2.75071162
| 31> C   -1.65403513  -1.06628019   1.47809121
| 32> C   -1.59146136  -2.18825164   2.34754211
| 33> C   -1.27470573  -2.03456708   3.67406164
| 34> C   -1.03868488  -0.77831680   4.17713496
| 35> C   -1.16149832   0.35070137   3.35874841
| 36> C   -1.39447429   0.13607617   2.04337025
| 37> H   -0.78772202  -0.64267273   5.23015094
| 38> H   -1.15192429   1.30032505   3.83177054
| 39> H   -2.01369168  -3.13962208   2.04481542
| 40> H   -1.42946845  -2.85901288   4.37118668
| 41> H   -1.71751692   3.54156136   1.21933423
| 42> C   -2.29387117  -1.15765392   0.15925230
| 43> H   -3.14590902  -0.47141830   0.16984185
| 44> H   -2.75417917  -2.13507656  -0.00649540
| 45> O    1.71698977   0.28743855  -1.76427427
| 46> C    2.26400393  -0.65350873  -2.52384667
| 47> O    1.79516328  -1.72130682  -2.72280082
| 48> C    3.63911562  -0.31100754  -3.16010090
| 49> H    4.04952756  -1.23111108  -3.60908404
| 50> H    4.35877108   0.06547105  -2.47451768
| 51> H    3.49006050   0.37332649  -3.98779573
| 52> *
| 53>
| 54>                          ****END OF INPUT****

CARTESIAN COORDINATES (ANGSTROEM)
---------------------------------
  Pd     0.463574    0.215266   -0.195885
  O      1.973885    1.266529    0.627788
  C      1.669438    2.608778    0.321927
  O      0.661662    2.919978   -0.173206
  C      2.797039    3.629364    0.640206
  H      2.328495    4.530040    1.059921
  H      3.246458    3.940059   -0.304309
  H      3.572274    3.283006    1.304080
  N     -1.408373   -0.815839   -1.043036
  C     -1.192744   -2.009499   -1.842850
  H     -0.600372   -1.780284   -2.695187
  H     -2.166245   -2.342743   -2.189132
  H     -0.711637   -2.761537   -1.237041
  C     -2.019645    0.236863   -1.864431
  H     -2.117707    1.170834   -1.341689
  H     -2.995638   -0.131704   -2.175205
  H     -1.407071    0.374693   -2.750712
  C     -1.654035   -1.066280    1.478091
  C     -1.591461   -2.188252    2.347542
  C     -1.274706   -2.034567    3.674062
  C     -1.038685   -0.778317    4.177135
  C     -1.161498    0.350701    3.358748
  C     -1.394474    0.136076    2.043370
  H     -0.787722   -0.642673    5.230151
  H     -1.151924    1.300325    3.831771
  H     -2.013692   -3.139622    2.044815
  H     -1.429468   -2.859013    4.371187
  H     -1.717517    3.541561    1.219334
  C     -2.293871   -1.157654    0.159252
  H     -3.145909   -0.471418    0.169842
  H     -2.754179   -2.135077   -0.006495
  O      1.716990    0.287439   -1.764274
  C      2.264004   -0.653509   -2.523847
  O      1.795163   -1.721307   -2.722801
  C      3.639116   -0.311008   -3.160101
  H      4.049528   -1.231111   -3.609084
  H      4.358771    0.065471   -2.474518
  H      3.490060    0.373326   -3.987796

 Total Charge           Charge          ....    0
 Multiplicity           Mult            ....    1
 Number of Electrons    NEL             ....  154
 Basis Dimension        Dim             ....  339

ORBITAL ENERGIES
----------------

  NO   OCC          E(Eh)            E(eV)
   0   2.0000     -19.475321      -529.9504
   1   2.0000     -19.460499      -529.5471
   2   2.0000     -19.459445      -529.5184
   3   2.0000     -19.427684      -528.6542
   4   2.0000     -14.711989      -400.3336
   5   2.0000     -10.544744      -286.9371
   6   2.0000     -10.525749      -286.4202
   7   2.0000     -10.521428      -286.3026
   8   2.0000     -10.511945      -286.0446
   9   2.0000     -10.506188      -285.8879
  10   2.0000     -10.491510      -285.4885
  11   2.0000     -10.487721      -285.3854
  12   2.0000     -10.486944      -285.3643
  13   2.0000     -10.481192      -285.2077
  14   2.0000     -10.477772      -285.1147
  15   2.0000     -10.464803      -284.7618
  16   2.0000     -10.424096      -283.6541
  17   2.0000     -10.407264      -283.1961
  18   2.0000      -3.657431       -99.5238
  19   2.0000      -2.306672       -62.7677
  20   2.0000      -2.298442       -62.5438
  21   2.0000      -2.268989       -61.7423
  22   2.0000      -1.171586       -31.8805
  23   2.0000      -1.144637       -31.1472
  24   2.0000      -1.068574       -29.0774
  25   2.0000      -1.041080       -28.3292
  26   2.0000      -1.032277       -28.0897
  27   2.0000      -1.007593       -27.4180
  28   2.0000      -0.909887       -24.7593
  29   2.0000      -0.876492       -23.8506
  30   2.0000      -0.819120       -22.2894
  31   2.0000      -0.813988       -22.1497
  32   2.0000      -0.797132       -21.6911
  33   2.0000      -0.782583       -21.2952
  34   2.0000      -0.724276       -19.7085
  35   2.0000      -0.717611       -19.5272
  36   2.0000      -0.682781       -18.5794
  37   2.0000      -0.615968       -16.7613
  38   2.0000      -0.584140       -15.8953
  39   2.0000      -0.579498       -15.7689
  40   2.0000      -0.577589       -15.7170
  41   2.0000      -0.571379       -15.5480
  42   2.0000      -0.565092       -15.3769
  43   2.0000      -0.544831       -14.8256
  44   2.0000      -0.534209       -14.5366
  45   2.0000      -0.515172       -14.0185
  46   2.0000      -0.510638       -13.8952
  47   2.0000      -0.506190       -13.7741
  48   2.0000      -0.498508       -13.5651
  49   2.0000      -0.490033       -13.3345
  50   2.0000      -0.487806       -13.2739
  51   2.0000      -0.484375       -13.1805
  52   2.0000      -0.482730       -13.1357
  53   2.0000      -0.478095       -13.0096
  54   2.0000      -0.468301       -12.7431
  55   2.0000      -0.449308       -12.2263
  56   2.0000      -0.447696       -12.1824
  57   2.0000      -0.439784       -11.9671
  58   2.0000      -0.439452       -11.9581
  59   2.0000      -0.437297       -11.8995
  60   2.0000      -0.424467       -11.5503
  61   2.0000      -0.417986       -11.3740
  62   2.0000      -0.410966       -11.1829
  63   2.0000      -0.390076       -10.6145
  64   2.0000      -0.380422       -10.3518
  65   2.0000      -0.356739        -9.7074
  66   2.0000      -0.344997        -9.3879
  67   2.0000      -0.341093        -9.2816
  68   2.0000      -0.333362        -9.0712
  69   2.0000      -0.325574        -8.8593
  70   2.0000      -0.323136        -8.7930
  71   2.0000      -0.308438        -8.3930
  72   2.0000      -0.302997        -8.2450
  73   2.0000      -0.289634        -7.8814
  74   2.0000      -0.276765        -7.5311
  75   2.0000      -0.275419        -7.4945
  76   2.0000      -0.257809        -7.0153
  77   0.0000      -0.171820        -4.6755
  78   0.0000      -0.079027        -2.1504
  79   0.0000      -0.029667        -0.8073
  80   0.0000      -0.010587        -0.2881
  81   0.0000       0.052138         1.4188

MULLIKEN ATOMIC CHARGES
-----------------------
   0 Pd:    0.431542
   1 O :   -0.542010
   2 C :    0.583806
   3 O :   -0.369241
   4 C :   -0.748063
   5 H :    0.231843
   6 H :    0.250942
   7 H :    0.247638
   8 N :   -0.464400
   9 C :   -0.516833
  10 H :    0.302267
  11 H :    0.199674
  12 H :    0.259131
  13 C :   -0.538946
  14 H :    0.288462
  15 H :    0.220486
  16 H :    0.279224
  17 C :    0.015851
  18 C :   -0.241666
  19 C :   -0.202864
  20 C :   -0.225695
  21 C :   -0.263100
  22 C :    0.034494
  23 H :    0.248096
  24 H :    0.269579
  25 H :    0.234434
  26 H :    0.241166
  27 H :    0.050749
  28 C :   -0.331368
  29 H :    0.267892
  30 H :    0.250576
  31 O :   -0.542433
  32 C :    0.533796
  33 O :   -0.424690
  34 C :   -0.742203
  35 H :    0.231343
  36 H :    0.248648
  37 H :    0.231870
Sum of atomic charges:    0.0000000

LOEWDIN ATOMIC CHARGES
----------------------
   0 Pd:   -0.278810
   1 O :   -0.224685
   2 C :    0.174491
   3 O :   -0.150302
   4 C :   -0.386413
   5 H :    0.143606
   6 H :    0.155422
   7 H :    0.143333
   8 N :   -0.086214
   9 C :   -0.238955
  10 H :    0.162831
  11 H :    0.108606
  12 H :    0.148022
  13 C :   -0.236150
  14 H :    0.158418
  15 H :    0.117542
  16 H :    0.157725
  17 C :   -0.058962
  18 C :   -0.103611
  19 C :   -0.123956
  20 C :   -0.106482
  21 C :   -0.116866
  22 C :    0.049009
  23 H :    0.149078
  24 H :    0.162987
  25 H :    0.148502
  26 H :    0.150316
  27 H :    0.055490
  28 C :   -0.099543
  29 H :    0.156470
  30 H :    0.142193
  31 O :   -0.195967
  32 C :    0.123472
  33 O :   -0.238545
  34 C :   -0.389276
  35 H :    0.139349
  36 H :    0.144243
  37 H :    0.143634

  Mayer bond orders larger than 0.100000
B(  0-Pd,  1-O ) :   0.7639 B(  0-Pd,  3-O ) :   0.1221 B(  0-Pd,  8-N ) :   0.3672
B(  0-Pd, 22-C ) :   0.1945 B(  0-Pd, 27-H ) :   0.1437 B(  0-Pd, 31-O ) :   0.6788
B(  1-O ,  2-C ) :   1.1123 B(  2-C ,  3-O ) :   1.9352 B(  2-C ,  4-C ) :   0.9277
B(  4-C ,  5-H ) :   0.9179 B(  4-C ,  6-H ) :   0.9106 B(  4-C ,  7-H ) :   0.9116
B(  8-N ,  9-C ) :   0.9272 B(  8-N , 13-C ) :   0.9232 B(  8-N , 28-C ) :   0.8867
B(  9-C , 10-H ) :   0.8787 B(  9-C , 11-H ) :   0.9050 B(  9-C , 12-H ) :   0.9125
B( 13-C , 14-H ) :   0.8910 B( 13-C , 15-H ) :   0.9056 B( 13-C , 16-H ) :   0.8967
B( 17-C , 18-C ) :   1.3630 B( 17-C , 22-C ) :   1.4059 B( 17-C , 28-C ) :   0.9438
B( 18-C , 19-C ) :   1.4593 B( 18-C , 21-C ) :   0.1011 B( 18-C , 25-H ) :   0.9049
B( 19-C , 20-C ) :   1.4131 B( 19-C , 26-H ) :   0.9096 B( 20-C , 21-C ) :   1.4039
B( 20-C , 23-H ) :   0.9021 B( 21-C , 22-C ) :   1.4461 B( 21-C , 24-H ) :   0.8979
B( 22-C , 27-H ) :   0.6338 B( 28-C , 29-H ) :   0.8991 B( 28-C , 30-H ) :   0.9101
B( 31-O , 32-C ) :   1.2318 B( 32-C , 33-O ) :   1.9534 B( 32-C , 34-C ) :   0.9172
B( 34-C , 35-H ) :   0.9227 B( 34-C , 36-H ) :   0.9108 B( 34-C , 37-H ) :   0.9176

Dispersion correction           -0.025474678
FINAL SINGLE POINT ENERGY      -988.204088532115
Dispersion correction            ... done

DIPOLE MOMENT
-------------
                                X             Y             Z
Electronic contribution:     18.32881      10.13252      -8.26690
Nuclear contribution   :    -20.81293     -10.85412       9.93161
                        -----------------------------------------
Total Dipole Moment    :     -2.48412      -0.72161       1.66471
                        -----------------------------------------
Magnitude (a.u.)       :      3.07617
Magnitude (Debye)      :      7.81900

Rotational constants in cm-1:     0.013241     0.008365     0.006355
Rotational constants in MHz :   396.945521   250.765999   190.514352

                             ****ORCA TERMINATED NORMALLY****
TOTAL RUN TIME: 0 days 0 hours 35 minutes 50 seconds 974 msec
