                         Program Version 5.0.3 -  RELEASE  -
|  1> ! EnGrad PBEh-3c
|  2> %output
|  3> xyzfile=True
|  4> end
|  5> %scf
|  6> maxiter 250
|  7> end
|  8> %output
|  9> Print[P_Hirshfeld] = 1
| 10> end
| 11> % maxcore
| 12> 4000
| 13> *xyz 0 1
| 14> Pd   0.52469276   0.40402784  -0.10103971
| 15> O    1.89643101   1.17740667   0.61109819
| 16> C    1.57027693   2.60686099   0.29947698
| 17> O    0.59383036   2.93545040  -0.19352605
| 18> C    2.76990261   3.59570095   0.63622769
| 19> H    2.29129827   4.49245723   1.04802714
| 20> H    3.22710644   3.92691570  -0.31183412
| 21> H    3.58298870   3.28611987   1.31510656
| 22> N   -1.46608051  -0.83711951  -1.10068257
| 23> C   -1.19203559  -2.03084034  -1.93690188
| 24> H   -0.54436342  -1.67222603  -2.74982852
| 25> H   -2.21550229  -2.30325741  -2.16530961
| 26> H   -0.68628075  -2.78279047  -1.31892060
| 27> C   -2.07017697   0.29311641  -1.85695613
| 28> H   -2.16077000   1.22962432  -1.24955636
| 29> H   -3.03547387  -0.09490607  -2.14530965
| 30> H   -1.41212806   0.44716427  -2.71485096
| 31> C   -1.76583108  -1.01867277   1.54559188
| 32> C   -1.62900898  -2.14582616   2.33528243
| 33> C   -1.17178655  -2.02735065   3.64490507
| 34> C   -1.13872167  -0.73955314   4.19551556
| 35> C   -1.14171900   0.39450310   3.40792875
| 36> C   -1.31083174   0.17157283   2.09046082
| 37> H   -0.81789570  -0.61230016   5.21149752
| 38> H   -1.22767033   1.37549821   3.81033029
| 39> H   -1.78085861  -3.18954273   1.92186771
| 40> H   -1.24059066  -2.87915059   4.31509045
| 41> H   -1.75495235   3.36008714   1.26582109
| 42> C   -2.26551332  -1.18422999   0.13306128
| 43> H   -3.09079421  -0.50850316   0.13963783
| 44> H   -2.62001649  -2.19491102  -0.07371722
| 45> O    1.86848918   0.29734949  -1.68570145
| 46> C    2.17188491  -0.68376832  -2.57621302
| 47> O    1.64680340  -1.75622736  -2.87469906
| 48> C    3.64685378  -0.36130888  -3.08800548
| 49> H    3.93440432  -1.34623629  -3.47459816
| 50> H    4.41686007   0.04738503  -2.38131202
| 51> H    3.59312071   0.32219266  -3.93503889
| 52> *
| 53>
| 54>                          ****END OF INPUT****

CARTESIAN COORDINATES (ANGSTROEM)
---------------------------------
  Pd     0.524693    0.404028   -0.101040
  O      1.896431    1.177407    0.611098
  C      1.570277    2.606861    0.299477
  O      0.593830    2.935450   -0.193526
  C      2.769903    3.595701    0.636228
  H      2.291298    4.492457    1.048027
  H      3.227106    3.926916   -0.311834
  H      3.582989    3.286120    1.315107
  N     -1.466081   -0.837120   -1.100683
  C     -1.192036   -2.030840   -1.936902
  H     -0.544363   -1.672226   -2.749829
  H     -2.215502   -2.303257   -2.165310
  H     -0.686281   -2.782790   -1.318921
  C     -2.070177    0.293116   -1.856956
  H     -2.160770    1.229624   -1.249556
  H     -3.035474   -0.094906   -2.145310
  H     -1.412128    0.447164   -2.714851
  C     -1.765831   -1.018673    1.545592
  C     -1.629009   -2.145826    2.335282
  C     -1.171787   -2.027351    3.644905
  C     -1.138722   -0.739553    4.195516
  C     -1.141719    0.394503    3.407929
  C     -1.310832    0.171573    2.090461
  H     -0.817896   -0.612300    5.211498
  H     -1.227670    1.375498    3.810330
  H     -1.780859   -3.189543    1.921868
  H     -1.240591   -2.879151    4.315090
  H     -1.754952    3.360087    1.265821
  C     -2.265513   -1.184230    0.133061
  H     -3.090794   -0.508503    0.139638
  H     -2.620016   -2.194911   -0.073717
  O      1.868489    0.297349   -1.685701
  C      2.171885   -0.683768   -2.576213
  O      1.646803   -1.756227   -2.874699
  C      3.646854   -0.361309   -3.088005
  H      3.934404   -1.346236   -3.474598
  H      4.416860    0.047385   -2.381312
  H      3.593121    0.322193   -3.935039

 Total Charge           Charge          ....    0
 Multiplicity           Mult            ....    1
 Number of Electrons    NEL             ....  154
 Basis Dimension        Dim             ....  339

ORBITAL ENERGIES
----------------

  NO   OCC          E(Eh)            E(eV)
   0   2.0000     -19.510330      -530.9031
   1   2.0000     -19.507233      -530.8188
   2   2.0000     -19.461110      -529.5637
   3   2.0000     -19.442108      -529.0466
   4   2.0000     -14.680639      -399.4805
   5   2.0000     -10.582895      -287.9752
   6   2.0000     -10.539303      -286.7890
   7   2.0000     -10.530564      -286.5512
   8   2.0000     -10.506107      -285.8857
   9   2.0000     -10.498641      -285.6825
  10   2.0000     -10.493260      -285.5361
  11   2.0000     -10.487587      -285.3818
  12   2.0000     -10.485384      -285.3218
  13   2.0000     -10.484748      -285.3045
  14   2.0000     -10.474823      -285.0344
  15   2.0000     -10.461372      -284.6684
  16   2.0000     -10.449327      -284.3407
  17   2.0000     -10.408691      -283.2349
  18   2.0000      -3.657233       -99.5184
  19   2.0000      -2.318723       -63.0957
  20   2.0000      -2.290460       -62.3266
  21   2.0000      -2.272100       -61.8270
  22   2.0000      -1.224782       -33.3280
  23   2.0000      -1.117874       -30.4189
  24   2.0000      -1.070299       -29.1243
  25   2.0000      -1.041734       -28.3470
  26   2.0000      -1.032896       -28.1065
  27   2.0000      -1.006398       -27.3855
  28   2.0000      -0.902241       -24.5512
  29   2.0000      -0.874206       -23.7884
  30   2.0000      -0.810972       -22.0677
  31   2.0000      -0.807124       -21.9630
  32   2.0000      -0.802678       -21.8420
  33   2.0000      -0.766054       -20.8454
  34   2.0000      -0.714212       -19.4347
  35   2.0000      -0.709285       -19.3006
  36   2.0000      -0.672916       -18.3110
  37   2.0000      -0.620825       -16.8935
  38   2.0000      -0.608879       -16.5685
  39   2.0000      -0.577966       -15.7273
  40   2.0000      -0.569912       -15.5081
  41   2.0000      -0.560870       -15.2621
  42   2.0000      -0.558064       -15.1857
  43   2.0000      -0.549292       -14.9470
  44   2.0000      -0.538499       -14.6533
  45   2.0000      -0.535199       -14.5635
  46   2.0000      -0.525861       -14.3094
  47   2.0000      -0.523040       -14.2326
  48   2.0000      -0.497135       -13.5277
  49   2.0000      -0.492526       -13.4023
  50   2.0000      -0.482087       -13.1182
  51   2.0000      -0.474418       -12.9096
  52   2.0000      -0.471437       -12.8285
  53   2.0000      -0.466473       -12.6934
  54   2.0000      -0.463904       -12.6235
  55   2.0000      -0.460463       -12.5298
  56   2.0000      -0.447606       -12.1800
  57   2.0000      -0.442253       -12.0343
  58   2.0000      -0.440367       -11.9830
  59   2.0000      -0.432805       -11.7772
  60   2.0000      -0.428589       -11.6625
  61   2.0000      -0.425826       -11.5873
  62   2.0000      -0.424225       -11.5438
  63   2.0000      -0.408230       -11.1085
  64   2.0000      -0.391369       -10.6497
  65   2.0000      -0.369475       -10.0539
  66   2.0000      -0.350807        -9.5459
  67   2.0000      -0.346515        -9.4291
  68   2.0000      -0.328752        -8.9458
  69   2.0000      -0.324912        -8.8413
  70   2.0000      -0.314375        -8.5546
  71   2.0000      -0.301273        -8.1981
  72   2.0000      -0.295886        -8.0515
  73   2.0000      -0.291333        -7.9276
  74   2.0000      -0.286362        -7.7923
  75   2.0000      -0.268703        -7.3118
  76   2.0000      -0.262042        -7.1305
  77   0.0000      -0.166219        -4.5230
  78   0.0000      -0.060231        -1.6390
  79   0.0000      -0.023785        -0.6472
  80   0.0000      -0.014061        -0.3826
  81   0.0000       0.050105         1.3634

MULLIKEN ATOMIC CHARGES
-----------------------
   0 Pd:    0.480425
   1 O :   -0.574738
   2 C :    0.577065
   3 O :   -0.301029
   4 C :   -0.752828
   5 H :    0.239954
   6 H :    0.259759
   7 H :    0.255002
   8 N :   -0.462248
   9 C :   -0.495363
  10 H :    0.291459
  11 H :    0.190784
  12 H :    0.246058
  13 C :   -0.527797
  14 H :    0.266587
  15 H :    0.216496
  16 H :    0.265699
  17 C :    0.070206
  18 C :   -0.258002
  19 C :   -0.193352
  20 C :   -0.238566
  21 C :   -0.257804
  22 C :    0.003251
  23 H :    0.242653
  24 H :    0.276075
  25 H :    0.241039
  26 H :    0.237007
  27 H :    0.014344
  28 C :   -0.309192
  29 H :    0.253790
  30 H :    0.234726
  31 O :   -0.546449
  32 C :    0.555196
  33 O :   -0.456412
  34 C :   -0.730023
  35 H :    0.225742
  36 H :    0.235257
  37 H :    0.225228
Sum of atomic charges:   -0.0000000

LOEWDIN ATOMIC CHARGES
----------------------
   0 Pd:   -0.298869
   1 O :   -0.184321
   2 C :    0.224531
   3 O :   -0.069181
   4 C :   -0.385706
   5 H :    0.146886
   6 H :    0.159936
   7 H :    0.150277
   8 N :   -0.153137
   9 C :   -0.239086
  10 H :    0.167966
  11 H :    0.107497
  12 H :    0.143272
  13 C :   -0.239594
  14 H :    0.155017
  15 H :    0.114298
  16 H :    0.152616
  17 C :   -0.049201
  18 C :   -0.106514
  19 C :   -0.116583
  20 C :   -0.116678
  21 C :   -0.121429
  22 C :    0.063639
  23 H :    0.147992
  24 H :    0.167890
  25 H :    0.150958
  26 H :    0.150080
  27 H :    0.021161
  28 C :   -0.112718
  29 H :    0.151058
  30 H :    0.138031
  31 O :   -0.233049
  32 C :    0.172402
  33 O :   -0.278775
  34 C :   -0.397177
  35 H :    0.136725
  36 H :    0.142145
  37 H :    0.137641

  Mayer bond orders larger than 0.100000
B(  0-Pd,  1-O ) :   0.8615 B(  0-Pd,  3-O ) :   0.1246 B(  0-Pd,  8-N ) :   0.2842
B(  0-Pd, 22-C ) :   0.2242 B(  0-Pd, 27-H ) :   0.1772 B(  0-Pd, 31-O ) :   0.6288
B(  1-O ,  2-C ) :   0.9678 B(  2-C ,  3-O ) :   2.0039 B(  2-C ,  4-C ) :   0.9232
B(  4-C ,  5-H ) :   0.9101 B(  4-C ,  6-H ) :   0.9049 B(  4-C ,  7-H ) :   0.9091
B(  8-N ,  9-C ) :   0.9189 B(  8-N , 13-C ) :   0.9311 B(  8-N , 28-C ) :   0.9197
B(  9-C , 10-H ) :   0.8753 B(  9-C , 11-H ) :   0.9074 B(  9-C , 12-H ) :   0.9169
B( 13-C , 14-H ) :   0.8982 B( 13-C , 15-H ) :   0.9078 B( 13-C , 16-H ) :   0.9032
B( 17-C , 18-C ) :   1.3947 B( 17-C , 22-C ) :   1.3664 B( 17-C , 28-C ) :   0.9495
B( 18-C , 19-C ) :   1.4067 B( 18-C , 25-H ) :   0.9055 B( 19-C , 20-C ) :   1.4164
B( 19-C , 26-H ) :   0.9127 B( 20-C , 21-C ) :   1.3844 B( 20-C , 23-H ) :   0.9058
B( 21-C , 22-C ) :   1.4456 B( 21-C , 24-H ) :   0.8953 B( 22-C , 27-H ) :   0.6089
B( 28-C , 29-H ) :   0.8984 B( 28-C , 30-H ) :   0.9124 B( 31-O , 32-C ) :   1.2585
B( 31-O , 33-O ) :   0.1140 B( 32-C , 33-O ) :   1.9042 B( 32-C , 34-C ) :   0.8994
B( 34-C , 35-H ) :   0.9182 B( 34-C , 36-H ) :   0.9184 B( 34-C , 37-H ) :   0.9185

Dispersion correction           -0.025326460
FINAL SINGLE POINT ENERGY      -988.120318109300
Dispersion correction            ... done

DIPOLE MOMENT
-------------
                                X             Y             Z
Electronic contribution:     22.58372      20.86589      -2.71474
Nuclear contribution   :    -24.41712     -20.95724       4.72915
                        -----------------------------------------
Total Dipole Moment    :     -1.83340      -0.09136       2.01441
                        -----------------------------------------
Magnitude (a.u.)       :      2.72536
Magnitude (Debye)      :      6.92730

Rotational constants in cm-1:     0.012992     0.008387     0.006338
Rotational constants in MHz :   389.496769   251.426601   189.996524

                             ****ORCA TERMINATED NORMALLY****
TOTAL RUN TIME: 0 days 0 hours 12 minutes 37 seconds 226 msec
