                         Program Version 5.0.3 -  RELEASE  -
|  1> ! EnGrad PBEh-3c
|  2> %output
|  3> xyzfile=True
|  4> end
|  5> %scf
|  6> maxiter 250
|  7> end
|  8> %output
|  9> Print[P_Hirshfeld] = 1
| 10> end
| 11> % maxcore
| 12> 4000
| 13> *xyz 0 1
| 14> Pd   0.48322401   0.27595306  -0.16539195
| 15> O    1.94898316   1.23787602   0.62242197
| 16> C    1.63755747   2.60816144   0.31470913
| 17> O    0.63985374   2.92495233  -0.17973922
| 18> C    2.78831490   3.61854156   0.63892684
| 19> H    2.31653593   4.51795718   1.05609712
| 20> H    3.24023640   3.93583375  -0.30672846
| 21> H    3.57571891   3.28400732   1.30762536
| 22> N   -1.42692635  -0.82268073  -1.06156937
| 23> C   -1.19251629  -2.01636022  -1.87308758
| 24> H   -0.58236485  -1.74554350  -2.71275419
| 25> H   -2.18208097  -2.33004851  -2.18147310
| 26> H   -0.70348469  -2.76837035  -1.26336560
| 27> C   -2.03589119   0.25494838  -1.86202777
| 28> H   -2.13155169   1.18973542  -1.31206815
| 29> H   -3.00844540  -0.11987362  -2.16559369
| 30> H   -1.40869671   0.39799248  -2.73918237
| 31> C   -1.68997768  -1.05097434   1.49979276
| 32> C   -1.60353297  -2.17461179   2.34360061
| 33> C   -1.24161708  -2.03224699   3.66468776
| 34> C   -1.07084684  -0.76585423   4.18304434
| 35> C   -1.15513924   0.36478368   3.37455996
| 36> C   -1.36758310   0.14748840   2.05850993
| 37> H   -0.79742290  -0.63290791   5.22415384
| 38> H   -1.17627674   1.32449332   3.82487747
| 39> H   -1.93883554  -3.15567163   2.00528757
| 40> H   -1.36874399  -2.86548718   4.35315167
| 41> H   -1.72955246   3.48321716   1.23427981
| 42> C   -2.28475408  -1.16619816   0.15083185
| 43> H   -3.12818954  -0.48334113   0.16013122
| 44> H   -2.71104569  -2.15431342  -0.02810730
| 45> O    1.76569703   0.29062493  -1.73901300
| 46> C    2.23438754  -0.66323723  -2.54068252
| 47> O    1.74746538  -1.73253382  -2.77163631
| 48> C    3.64160345  -0.32717948  -3.13692213
| 49> H    4.01251529  -1.26812399  -3.56584666
| 50> H    4.37744677   0.05965637  -2.44455194
| 51> H    3.52319450   0.35688690  -3.97083434
| 52> *
| 53>
| 54>                          ****END OF INPUT****

CARTESIAN COORDINATES (ANGSTROEM)
---------------------------------
  Pd     0.483224    0.275953   -0.165392
  O      1.948983    1.237876    0.622422
  C      1.637557    2.608161    0.314709
  O      0.639854    2.924952   -0.179739
  C      2.788315    3.618542    0.638927
  H      2.316536    4.517957    1.056097
  H      3.240236    3.935834   -0.306728
  H      3.575719    3.284007    1.307625
  N     -1.426926   -0.822681   -1.061569
  C     -1.192516   -2.016360   -1.873088
  H     -0.582365   -1.745543   -2.712754
  H     -2.182081   -2.330049   -2.181473
  H     -0.703485   -2.768370   -1.263366
  C     -2.035891    0.254948   -1.862028
  H     -2.131552    1.189735   -1.312068
  H     -3.008445   -0.119874   -2.165594
  H     -1.408697    0.397992   -2.739182
  C     -1.689978   -1.050974    1.499793
  C     -1.603533   -2.174612    2.343601
  C     -1.241617   -2.032247    3.664688
  C     -1.070847   -0.765854    4.183044
  C     -1.155139    0.364784    3.374560
  C     -1.367583    0.147488    2.058510
  H     -0.797423   -0.632908    5.224154
  H     -1.176277    1.324493    3.824877
  H     -1.938836   -3.155672    2.005288
  H     -1.368744   -2.865487    4.353152
  H     -1.729552    3.483217    1.234280
  C     -2.284754   -1.166198    0.150832
  H     -3.128190   -0.483341    0.160131
  H     -2.711046   -2.154313   -0.028107
  O      1.765697    0.290625   -1.739013
  C      2.234388   -0.663237   -2.540683
  O      1.747465   -1.732534   -2.771636
  C      3.641603   -0.327179   -3.136922
  H      4.012515   -1.268124   -3.565847
  H      4.377447    0.059656   -2.444552
  H      3.523194    0.356887   -3.970834

 Total Charge           Charge          ....    0
 Multiplicity           Mult            ....    1
 Number of Electrons    NEL             ....  154
 Basis Dimension        Dim             ....  339

ORBITAL ENERGIES
----------------

  NO   OCC          E(Eh)            E(eV)
   0   2.0000     -19.485996      -530.2409
   1   2.0000     -19.476055      -529.9704
   2   2.0000     -19.459514      -529.5203
   3   2.0000     -19.430779      -528.7384
   4   2.0000     -14.702502      -400.0754
   5   2.0000     -10.557064      -287.2723
   6   2.0000     -10.528598      -286.4977
   7   2.0000     -10.524357      -286.3823
   8   2.0000     -10.507729      -285.9299
   9   2.0000     -10.505867      -285.8792
  10   2.0000     -10.491073      -285.4766
  11   2.0000     -10.487115      -285.3689
  12   2.0000     -10.486155      -285.3428
  13   2.0000     -10.481839      -285.2253
  14   2.0000     -10.476892      -285.0907
  15   2.0000     -10.463509      -284.7265
  16   2.0000     -10.432128      -283.8726
  17   2.0000     -10.406629      -283.1788
  18   2.0000      -3.656432       -99.4966
  19   2.0000      -2.308306       -62.8122
  20   2.0000      -2.295267       -62.4574
  21   2.0000      -2.268930       -61.7407
  22   2.0000      -1.187628       -32.3170
  23   2.0000      -1.135886       -30.9090
  24   2.0000      -1.060194       -28.8493
  25   2.0000      -1.044852       -28.4319
  26   2.0000      -1.036831       -28.2136
  27   2.0000      -1.007757       -27.4225
  28   2.0000      -0.907413       -24.6920
  29   2.0000      -0.876966       -23.8635
  30   2.0000      -0.815100       -22.1800
  31   2.0000      -0.811635       -22.0857
  32   2.0000      -0.801502       -21.8100
  33   2.0000      -0.776935       -21.1415
  34   2.0000      -0.722373       -19.6568
  35   2.0000      -0.714376       -19.4392
  36   2.0000      -0.680762       -18.5245
  37   2.0000      -0.614688       -16.7265
  38   2.0000      -0.593193       -16.1416
  39   2.0000      -0.579052       -15.7568
  40   2.0000      -0.576052       -15.6752
  41   2.0000      -0.564518       -15.3613
  42   2.0000      -0.563289       -15.3279
  43   2.0000      -0.542330       -14.7576
  44   2.0000      -0.532449       -14.4887
  45   2.0000      -0.528116       -14.3708
  46   2.0000      -0.510954       -13.9038
  47   2.0000      -0.508377       -13.8337
  48   2.0000      -0.502951       -13.6860
  49   2.0000      -0.493736       -13.4352
  50   2.0000      -0.485751       -13.2180
  51   2.0000      -0.483320       -13.1518
  52   2.0000      -0.477776       -13.0010
  53   2.0000      -0.475240       -12.9319
  54   2.0000      -0.468603       -12.7513
  55   2.0000      -0.447476       -12.1764
  56   2.0000      -0.446324       -12.1451
  57   2.0000      -0.445111       -12.1121
  58   2.0000      -0.440131       -11.9766
  59   2.0000      -0.435068       -11.8388
  60   2.0000      -0.429865       -11.6972
  61   2.0000      -0.417492       -11.3605
  62   2.0000      -0.409140       -11.1333
  63   2.0000      -0.396735       -10.7957
  64   2.0000      -0.385513       -10.4903
  65   2.0000      -0.354250        -9.6396
  66   2.0000      -0.346606        -9.4316
  67   2.0000      -0.340197        -9.2572
  68   2.0000      -0.332203        -9.0397
  69   2.0000      -0.327330        -8.9071
  70   2.0000      -0.323062        -8.7910
  71   2.0000      -0.312741        -8.5101
  72   2.0000      -0.303970        -8.2714
  73   2.0000      -0.290125        -7.8947
  74   2.0000      -0.279403        -7.6029
  75   2.0000      -0.275427        -7.4948
  76   2.0000      -0.259707        -7.0670
  77   0.0000      -0.170525        -4.6402
  78   0.0000      -0.073728        -2.0062
  79   0.0000      -0.025456        -0.6927
  80   0.0000      -0.012317        -0.3352
  81   0.0000       0.052844         1.4380

MULLIKEN ATOMIC CHARGES
-----------------------
   0 Pd:    0.438010
   1 O :   -0.550983
   2 C :    0.586183
   3 O :   -0.347751
   4 C :   -0.749713
   5 H :    0.234441
   6 H :    0.253866
   7 H :    0.250064
   8 N :   -0.460283
   9 C :   -0.509118
  10 H :    0.298554
  11 H :    0.196254
  12 H :    0.254770
  13 C :   -0.535015
  14 H :    0.281565
  15 H :    0.218811
  16 H :    0.274945
  17 C :    0.046405
  18 C :   -0.251987
  19 C :   -0.193326
  20 C :   -0.235212
  21 C :   -0.257873
  22 C :    0.014891
  23 H :    0.247034
  24 H :    0.271137
  25 H :    0.238762
  26 H :    0.237687
  27 H :    0.040688
  28 C :   -0.326878
  29 H :    0.263045
  30 H :    0.246014
  31 O :   -0.542203
  32 C :    0.540884
  33 O :   -0.437440
  34 C :   -0.739903
  35 H :    0.229857
  36 H :    0.244167
  37 H :    0.229651
Sum of atomic charges:   -0.0000000

LOEWDIN ATOMIC CHARGES
----------------------
   0 Pd:   -0.287935
   1 O :   -0.212090
   2 C :    0.192577
   3 O :   -0.124985
   4 C :   -0.386211
   5 H :    0.144712
   6 H :    0.156915
   7 H :    0.145389
   8 N :   -0.106456
   9 C :   -0.237834
  10 H :    0.164043
  11 H :    0.107498
  12 H :    0.146616
  13 C :   -0.237050
  14 H :    0.157543
  15 H :    0.116189
  16 H :    0.156141
  17 C :   -0.055474
  18 C :   -0.104601
  19 C :   -0.121294
  20 C :   -0.110116
  21 C :   -0.117723
  22 C :    0.054190
  23 H :    0.148881
  24 H :    0.164248
  25 H :    0.148994
  26 H :    0.150236
  27 H :    0.046133
  28 C :   -0.103685
  29 H :    0.154821
  30 H :    0.140827
  31 O :   -0.204144
  32 C :    0.135435
  33 O :   -0.253273
  34 C :   -0.391876
  35 H :    0.138224
  36 H :    0.143453
  37 H :    0.141682

  Mayer bond orders larger than 0.100000
B(  0-Pd,  1-O ) :   0.8030 B(  0-Pd,  3-O ) :   0.1216 B(  0-Pd,  8-N ) :   0.3422
B(  0-Pd, 22-C ) :   0.2034 B(  0-Pd, 27-H ) :   0.1545 B(  0-Pd, 31-O ) :   0.6603
B(  1-O ,  2-C ) :   1.0598 B(  2-C ,  3-O ) :   1.9600 B(  2-C ,  4-C ) :   0.9271
B(  4-C ,  5-H ) :   0.9156 B(  4-C ,  6-H ) :   0.9088 B(  4-C ,  7-H ) :   0.9107
B(  8-N ,  9-C ) :   0.9256 B(  8-N , 13-C ) :   0.9260 B(  8-N , 28-C ) :   0.8965
B(  9-C , 10-H ) :   0.8781 B(  9-C , 11-H ) :   0.9055 B(  9-C , 12-H ) :   0.9142
B( 13-C , 14-H ) :   0.8934 B( 13-C , 15-H ) :   0.9064 B( 13-C , 16-H ) :   0.8988
B( 17-C , 18-C ) :   1.3780 B( 17-C , 22-C ) :   1.3932 B( 17-C , 28-C ) :   0.9457
B( 18-C , 19-C ) :   1.4440 B( 18-C , 25-H ) :   0.9035 B( 19-C , 20-C ) :   1.4150
B( 19-C , 26-H ) :   0.9119 B( 20-C , 21-C ) :   1.3988 B( 20-C , 23-H ) :   0.9028
B( 21-C , 22-C ) :   1.4482 B( 21-C , 24-H ) :   0.8976 B( 22-C , 27-H ) :   0.6296
B( 28-C , 29-H ) :   0.8993 B( 28-C , 30-H ) :   0.9110 B( 31-O , 32-C ) :   1.2479
B( 31-O , 33-O ) :   0.1015 B( 32-C , 33-O ) :   1.9378 B( 32-C , 34-C ) :   0.9104
B( 34-C , 35-H ) :   0.9213 B( 34-C , 36-H ) :   0.9136 B( 34-C , 37-H ) :   0.9181

Dispersion correction           -0.025451123
FINAL SINGLE POINT ENERGY      -988.200584764975
Dispersion correction            ... done

DIPOLE MOMENT
-------------
                                X             Y             Z
Electronic contribution:     19.66885      13.58386      -6.47001
Nuclear contribution   :    -21.97168     -14.10229       8.25901
                        -----------------------------------------
Total Dipole Moment    :     -2.30284      -0.51843       1.78900
                        -----------------------------------------
Magnitude (a.u.)       :      2.96181
Magnitude (Debye)      :      7.52833

Rotational constants in cm-1:     0.013173     0.008374     0.006352
Rotational constants in MHz :   394.931238   251.041760   190.440880

                             ****ORCA TERMINATED NORMALLY****
TOTAL RUN TIME: 0 days 0 hours 14 minutes 54 seconds 145 msec
