                         Program Version 5.0.3 -  RELEASE  -
|  1> ! EnGrad PBEh-3c
|  2> %output
|  3> xyzfile=True
|  4> end
|  5> %scf
|  6> maxiter 250
|  7> end
|  8> %output
|  9> Print[P_Hirshfeld] = 1
| 10> end
| 11> % maxcore
| 12> 4000
| 13> *xyz -1 1
| 14> Pt  -0.76211443  -0.75498980   0.43545578
| 15> Cl  -0.12085134  -0.28884590   2.64039093
| 16> Cl  -2.62326014  -2.02526640   1.12964467
| 17> Cl  -1.30080430  -1.20441945  -1.80260591
| 18> C    0.82979652   0.98161824  -0.51353714
| 19> H    1.40754989   1.60952457   0.15661950
| 20> H    1.22308565  -0.61062003   0.19064268
| 21> H    1.40351631   0.75725134  -1.41319283
| 22> H   -0.05691815   1.53574430  -0.82340391
| 23> *
| 24>
| 25>                          ****END OF INPUT****

CARTESIAN COORDINATES (ANGSTROEM)
---------------------------------
  Pt    -0.762114   -0.754990    0.435456
  Cl    -0.120851   -0.288846    2.640391
  Cl    -2.623260   -2.025266    1.129645
  Cl    -1.300804   -1.204419   -1.802606
  C      0.829797    0.981618   -0.513537
  H      1.407550    1.609525    0.156619
  H      1.223086   -0.610620    0.190643
  H      1.403516    0.757251   -1.413193
  H     -0.056918    1.535744   -0.823404

 Total Charge           Charge          ....   -1
 Multiplicity           Mult            ....    1
 Number of Electrons    NEL             ....   80
 Basis Dimension        Dim             ....  109

ORBITAL ENERGIES
----------------

  NO   OCC          E(Eh)            E(eV)
   0   2.0000    -102.094370     -2778.1290
   1   2.0000    -102.089334     -2777.9920
   2   2.0000    -102.088412     -2777.9669
   3   2.0000     -10.364626      -282.0358
   4   2.0000      -9.557673      -260.0775
   5   2.0000      -9.553254      -259.9573
   6   2.0000      -9.552204      -259.9287
   7   2.0000      -7.244321      -197.1280
   8   2.0000      -7.239409      -196.9943
   9   2.0000      -7.238490      -196.9693
  10   2.0000      -7.238316      -196.9646
  11   2.0000      -7.237895      -196.9531
  12   2.0000      -7.234201      -196.8526
  13   2.0000      -7.233901      -196.8445
  14   2.0000      -7.233202      -196.8254
  15   2.0000      -7.232905      -196.8174
  16   2.0000      -3.962970      -107.8379
  17   2.0000      -2.174020       -59.1581
  18   2.0000      -2.171624       -59.0929
  19   2.0000      -2.142171       -58.2914
  20   2.0000      -0.692554       -18.8454
  21   2.0000      -0.677364       -18.4320
  22   2.0000      -0.675171       -18.3723
  23   2.0000      -0.660184       -17.9645
  24   2.0000      -0.362642        -9.8680
  25   2.0000      -0.357644        -9.7320
  26   2.0000      -0.314220        -8.5504
  27   2.0000      -0.285783        -7.7766
  28   2.0000      -0.264883        -7.2078
  29   2.0000      -0.239899        -6.5280
  30   2.0000      -0.232703        -6.3322
  31   2.0000      -0.216015        -5.8781
  32   2.0000      -0.197578        -5.3764
  33   2.0000      -0.181101        -4.9280
  34   2.0000      -0.170377        -4.6362
  35   2.0000      -0.157429        -4.2839
  36   2.0000      -0.149112        -4.0575
  37   2.0000      -0.143283        -3.8989
  38   2.0000      -0.134112        -3.6494
  39   2.0000      -0.124608        -3.3908
  40   0.0000       0.088977         2.4212
  41   0.0000       0.091545         2.4911
  42   0.0000       0.204537         5.5657
  43   0.0000       0.235417         6.4060
  44   0.0000       0.265773         7.2321

MULLIKEN ATOMIC CHARGES
-----------------------
   0 Pt:    0.078561
   1 Cl:   -0.418166
   2 Cl:   -0.366331
   3 Cl:   -0.427173
   4 C :   -0.820218
   5 H :    0.242197
   6 H :    0.184997
   7 H :    0.244046
   8 H :    0.282087
Sum of atomic charges:   -1.0000000

LOEWDIN ATOMIC CHARGES
----------------------
   0 Pt:   -0.906608
   1 Cl:   -0.138839
   2 Cl:   -0.097386
   3 Cl:   -0.143487
   4 C :   -0.403267
   5 H :    0.137630
   6 H :    0.234033
   7 H :    0.138449
   8 H :    0.179476

  Mayer bond orders larger than 0.100000
B(  0-Pt,  1-Cl) :   0.7964 B(  0-Pt,  2-Cl) :   0.8524 B(  0-Pt,  3-Cl) :   0.7785
B(  0-Pt,  4-C ) :   0.4288 B(  0-Pt,  6-H ) :   0.4076 B(  1-Cl,  3-Cl) :   0.1238
B(  4-C ,  5-H ) :   0.8978 B(  4-C ,  6-H ) :   0.4891 B(  4-C ,  7-H ) :   0.9019
B(  4-C ,  8-H ) :   0.8873

Dispersion correction           -0.005381503
FINAL SINGLE POINT ENERGY     -1538.970845305529
Dispersion correction            ... done

DIPOLE MOMENT
-------------
                                X             Y             Z
Electronic contribution:      9.47503       1.64930      -0.27279
Nuclear contribution   :     -8.17298      -0.55527      -0.32453
                        -----------------------------------------
Total Dipole Moment    :      1.30205       1.09403      -0.59732
                        -----------------------------------------
Magnitude (a.u.)       :      1.80250
Magnitude (Debye)      :      4.58159

Rotational constants in cm-1:     0.056252     0.042416     0.024588
Rotational constants in MHz :  1686.391466  1271.613279   737.129577

                             ****ORCA TERMINATED NORMALLY****
TOTAL RUN TIME: 0 days 0 hours 0 minutes 42 seconds 486 msec
