                         Program Version 5.0.3 -  RELEASE  -
|  1> ! EnGrad PBEh-3c
|  2> %output
|  3> xyzfile=True
|  4> end
|  5> %scf
|  6> maxiter 250
|  7> end
|  8> %output
|  9> Print[P_Hirshfeld] = 1
| 10> end
| 11> % maxcore
| 12> 4000
| 13> *xyz -1 1
| 14> Pt  -0.66135612  -0.78869889   0.43982495
| 15> Cl  -0.17537680  -0.35916451   2.65705975
| 16> Cl  -2.58519289  -2.04371144   1.12056125
| 17> Cl  -1.37696822  -1.16583932  -1.75869553
| 18> C    0.90983663   0.88444021  -0.50984018
| 19> H    1.41940337   1.65376269   0.13047909
| 20> H    1.04121406  -0.34712214   0.18048074
| 21> H    1.47061934   0.72791947  -1.39930589
| 22> H   -0.04322229   1.43967046  -0.85951664
| 23> *
| 24>
| 25>                          ****END OF INPUT****

CARTESIAN COORDINATES (ANGSTROEM)
---------------------------------
  Pt    -0.661356   -0.788699    0.439825
  Cl    -0.175377   -0.359165    2.657060
  Cl    -2.585193   -2.043711    1.120561
  Cl    -1.376968   -1.165839   -1.758696
  C      0.909837    0.884440   -0.509840
  H      1.419403    1.653763    0.130479
  H      1.041214   -0.347122    0.180481
  H      1.470619    0.727919   -1.399306
  H     -0.043222    1.439670   -0.859517

 Total Charge           Charge          ....   -1
 Multiplicity           Mult            ....    1
 Number of Electrons    NEL             ....   80
 Basis Dimension        Dim             ....  109

ORBITAL ENERGIES
----------------

  NO   OCC          E(Eh)            E(eV)
   0   2.0000    -102.090530     -2778.0246
   1   2.0000    -102.089153     -2777.9871
   2   2.0000    -102.084852     -2777.8700
   3   2.0000     -10.370565      -282.1974
   4   2.0000      -9.553536      -259.9649
   5   2.0000      -9.553414      -259.9616
   6   2.0000      -9.548801      -259.8361
   7   2.0000      -7.240383      -197.0208
   8   2.0000      -7.239559      -196.9984
   9   2.0000      -7.234883      -196.8712
  10   2.0000      -7.234281      -196.8548
  11   2.0000      -7.234218      -196.8531
  12   2.0000      -7.234083      -196.8494
  13   2.0000      -7.233738      -196.8400
  14   2.0000      -7.229788      -196.7325
  15   2.0000      -7.229504      -196.7248
  16   2.0000      -3.956050      -107.6496
  17   2.0000      -2.170813       -59.0708
  18   2.0000      -2.166854       -58.9631
  19   2.0000      -2.133799       -58.0636
  20   2.0000      -0.693815       -18.8797
  21   2.0000      -0.676278       -18.4025
  22   2.0000      -0.671390       -18.2695
  23   2.0000      -0.670776       -18.2527
  24   2.0000      -0.381703       -10.3867
  25   2.0000      -0.365598        -9.9484
  26   2.0000      -0.344579        -9.3765
  27   2.0000      -0.287968        -7.8360
  28   2.0000      -0.264761        -7.2045
  29   2.0000      -0.236540        -6.4366
  30   2.0000      -0.232024        -6.3137
  31   2.0000      -0.214823        -5.8456
  32   2.0000      -0.195063        -5.3079
  33   2.0000      -0.177501        -4.8301
  34   2.0000      -0.168177        -4.5763
  35   2.0000      -0.155922        -4.2428
  36   2.0000      -0.145980        -3.9723
  37   2.0000      -0.142819        -3.8863
  38   2.0000      -0.132503        -3.6056
  39   2.0000      -0.119592        -3.2543
  40   0.0000       0.086129         2.3437
  41   0.0000       0.156884         4.2690
  42   0.0000       0.206988         5.6324
  43   0.0000       0.243065         6.6141
  44   0.0000       0.263075         7.1586

MULLIKEN ATOMIC CHARGES
-----------------------
   0 Pt:    0.060282
   1 Cl:   -0.414096
   2 Cl:   -0.346969
   3 Cl:   -0.434447
   4 C :   -0.867491
   5 H :    0.239405
   6 H :    0.217170
   7 H :    0.263366
   8 H :    0.282780
Sum of atomic charges:   -1.0000000

LOEWDIN ATOMIC CHARGES
----------------------
   0 Pt:   -0.909737
   1 Cl:   -0.121991
   2 Cl:   -0.108203
   3 Cl:   -0.148859
   4 C :   -0.411522
   5 H :    0.140633
   6 H :    0.223211
   7 H :    0.142661
   8 H :    0.193808

  Mayer bond orders larger than 0.100000
B(  0-Pt,  1-Cl) :   0.8093 B(  0-Pt,  2-Cl) :   0.8745 B(  0-Pt,  3-Cl) :   0.7703
B(  0-Pt,  4-C ) :   0.3272 B(  0-Pt,  6-H ) :   0.3023 B(  1-Cl,  3-Cl) :   0.1221
B(  4-C ,  5-H ) :   0.8999 B(  4-C ,  6-H ) :   0.5906 B(  4-C ,  7-H ) :   0.8896
B(  4-C ,  8-H ) :   0.8851

Dispersion correction           -0.005057470
FINAL SINGLE POINT ENERGY     -1539.008900129698
Dispersion correction            ... done

DIPOLE MOMENT
-------------
                                X             Y             Z
Electronic contribution:     16.56632       0.87078      -0.79031
Nuclear contribution   :    -15.09090       0.31991       0.15733
                        -----------------------------------------
Total Dipole Moment    :      1.47542       1.19069      -0.63298
                        -----------------------------------------
Magnitude (a.u.)       :      1.99882
Magnitude (Debye)      :      5.08059

Rotational constants in cm-1:     0.056595     0.043183     0.024860
Rotational constants in MHz :  1696.687783  1294.579262   745.273101

                             ****ORCA TERMINATED NORMALLY****
TOTAL RUN TIME: 0 days 0 hours 0 minutes 42 seconds 378 msec
