                         Program Version 5.0.3 -  RELEASE  -
|  1> ! EnGrad PBEh-3c
|  2> %output
|  3> xyzfile=True
|  4> end
|  5> %scf
|  6> maxiter 250
|  7> end
|  8> %output
|  9> Print[P_Hirshfeld] = 1
| 10> end
| 11> % maxcore
| 12> 4000
| 13> *xyz -1 1
| 14> Pt  -0.71968847  -0.76918357   0.43729549
| 15> Cl  -0.14381020  -0.31845472   2.64740961
| 16> Cl  -2.60723129  -2.03303299   1.12581994
| 17> Cl  -1.33287439  -1.18817464  -1.78411671
| 18> C    0.86349874   0.94069982  -0.51198048
| 19> H    1.41254099   1.62815177   0.14561265
| 20> H    1.14650559  -0.49966986   0.18636383
| 21> H    1.43177115   0.74490067  -1.40734551
| 22> H   -0.05115128   1.49529081  -0.83860978
| 23> *
| 24>
| 25>                          ****END OF INPUT****

CARTESIAN COORDINATES (ANGSTROEM)
---------------------------------
  Pt    -0.719688   -0.769184    0.437295
  Cl    -0.143810   -0.318455    2.647410
  Cl    -2.607231   -2.033033    1.125820
  Cl    -1.332874   -1.188175   -1.784117
  C      0.863499    0.940700   -0.511980
  H      1.412541    1.628152    0.145613
  H      1.146506   -0.499670    0.186364
  H      1.431771    0.744901   -1.407346
  H     -0.051151    1.495291   -0.838610

 Total Charge           Charge          ....   -1
 Multiplicity           Mult            ....    1
 Number of Electrons    NEL             ....   80
 Basis Dimension        Dim             ....  109

ORBITAL ENERGIES
----------------

  NO   OCC          E(Eh)            E(eV)
   0   2.0000    -102.092504     -2778.0783
   1   2.0000    -102.089243     -2777.9895
   2   2.0000    -102.086881     -2777.9252
   3   2.0000     -10.368057      -282.1292
   4   2.0000      -9.555683      -260.0233
   5   2.0000      -9.553322      -259.9591
   6   2.0000      -9.550761      -259.8894
   7   2.0000      -7.242414      -197.0761
   8   2.0000      -7.239465      -196.9959
   9   2.0000      -7.236852      -196.9248
  10   2.0000      -7.236441      -196.9136
  11   2.0000      -7.235904      -196.8989
  12   2.0000      -7.234236      -196.8536
  13   2.0000      -7.233985      -196.8467
  14   2.0000      -7.231759      -196.7862
  15   2.0000      -7.231463      -196.7781
  16   2.0000      -3.960088      -107.7595
  17   2.0000      -2.172581       -59.1189
  18   2.0000      -2.169589       -59.0375
  19   2.0000      -2.138638       -58.1953
  20   2.0000      -0.692843       -18.8532
  21   2.0000      -0.676165       -18.3994
  22   2.0000      -0.673798       -18.3350
  23   2.0000      -0.664443       -18.0804
  24   2.0000      -0.365103        -9.9350
  25   2.0000      -0.358758        -9.7623
  26   2.0000      -0.332885        -9.0583
  27   2.0000      -0.287183        -7.8147
  28   2.0000      -0.264810        -7.2058
  29   2.0000      -0.238703        -6.4955
  30   2.0000      -0.232402        -6.3240
  31   2.0000      -0.215804        -5.8723
  32   2.0000      -0.196748        -5.3538
  33   2.0000      -0.179467        -4.8836
  34   2.0000      -0.169631        -4.6159
  35   2.0000      -0.157656        -4.2900
  36   2.0000      -0.147136        -4.0038
  37   2.0000      -0.143150        -3.8953
  38   2.0000      -0.133886        -3.6432
  39   2.0000      -0.122387        -3.3303
  40   0.0000       0.088625         2.4116
  41   0.0000       0.120026         3.2661
  42   0.0000       0.206027         5.6063
  43   0.0000       0.237070         6.4510
  44   0.0000       0.264259         7.1909

MULLIKEN ATOMIC CHARGES
-----------------------
   0 Pt:    0.070326
   1 Cl:   -0.415850
   2 Cl:   -0.359165
   3 Cl:   -0.430034
   4 C :   -0.844021
   5 H :    0.242013
   6 H :    0.200137
   7 H :    0.252976
   8 H :    0.283618
Sum of atomic charges:   -1.0000000

LOEWDIN ATOMIC CHARGES
----------------------
   0 Pt:   -0.911038
   1 Cl:   -0.131171
   2 Cl:   -0.102808
   3 Cl:   -0.144805
   4 C :   -0.410184
   5 H :    0.138819
   6 H :    0.234667
   7 H :    0.140142
   8 H :    0.186378

  Mayer bond orders larger than 0.100000
B(  0-Pt,  1-Cl) :   0.8032 B(  0-Pt,  2-Cl) :   0.8591 B(  0-Pt,  3-Cl) :   0.7762
B(  0-Pt,  4-C ) :   0.3858 B(  0-Pt,  6-H ) :   0.3646 B(  1-Cl,  3-Cl) :   0.1231
B(  4-C ,  5-H ) :   0.8978 B(  4-C ,  6-H ) :   0.5306 B(  4-C ,  7-H ) :   0.8955
B(  4-C ,  8-H ) :   0.8860

Dispersion correction           -0.005172380
FINAL SINGLE POINT ENERGY     -1538.990340295927
Dispersion correction            ... done

DIPOLE MOMENT
-------------
                                X             Y             Z
Electronic contribution:     12.46748       1.32307      -0.49170
Nuclear contribution   :    -11.08589      -0.18676      -0.12163
                        -----------------------------------------
Total Dipole Moment    :      1.38159       1.13631      -0.61334
                        -----------------------------------------
Magnitude (a.u.)       :      1.89108
Magnitude (Debye)      :      4.80674

Rotational constants in cm-1:     0.056474     0.042767     0.024711
Rotational constants in MHz :  1693.039351  1282.112978   740.822361

                             ****ORCA TERMINATED NORMALLY****
TOTAL RUN TIME: 0 days 0 hours 0 minutes 42 seconds 317 msec
