                         Program Version 5.0.3 -  RELEASE  -
|  1> ! EnGrad PBEh-3c
|  2> %output
|  3> xyzfile=True
|  4> end
|  5> %scf
|  6> maxiter 250
|  7> end
|  8> %output
|  9> Print[P_Hirshfeld] = 1
| 10> end
| 11> % maxcore
| 12> 4000
| 13> *xyz -1 1
| 14> Pt  -0.67189056  -0.78873415   0.43875851
| 15> Cl  -0.17157737  -0.35567781   2.65772019
| 16> Cl  -2.57261404  -2.03530930   1.11771363
| 17> Cl  -1.37092982  -1.16635219  -1.75950799
| 18> C    0.89464477   0.88711724  -0.48986407
| 19> H    1.41673357   1.63899663   0.13013721
| 20> H    1.02893818  -0.32527406   0.16090242
| 21> H    1.47464399   0.72297170  -1.40633194
| 22> H   -0.02920735   1.42315077  -0.84842702
| 23> *
| 24>
| 25>                          ****END OF INPUT****

CARTESIAN COORDINATES (ANGSTROEM)
---------------------------------
  Pt    -0.671891   -0.788734    0.438759
  Cl    -0.171577   -0.355678    2.657720
  Cl    -2.572614   -2.035309    1.117714
  Cl    -1.370930   -1.166352   -1.759508
  C      0.894645    0.887117   -0.489864
  H      1.416734    1.638997    0.130137
  H      1.028938   -0.325274    0.160902
  H      1.474644    0.722972   -1.406332
  H     -0.029207    1.423151   -0.848427

 Total Charge           Charge          ....   -1
 Multiplicity           Mult            ....    1
 Number of Electrons    NEL             ....   80
 Basis Dimension        Dim             ....  109

ORBITAL ENERGIES
----------------

  NO   OCC          E(Eh)            E(eV)
   0   2.0000    -102.091555     -2778.0524
   1   2.0000    -102.088033     -2777.9566
   2   2.0000    -102.085035     -2777.8750
   3   2.0000     -10.367115      -282.1035
   4   2.0000      -9.554771      -259.9985
   5   2.0000      -9.552240      -259.9297
   6   2.0000      -9.549031      -259.8423
   7   2.0000      -7.241641      -197.0551
   8   2.0000      -7.238359      -196.9658
   9   2.0000      -7.235417      -196.8857
  10   2.0000      -7.235103      -196.8772
  11   2.0000      -7.234936      -196.8726
  12   2.0000      -7.233122      -196.8233
  13   2.0000      -7.232941      -196.8183
  14   2.0000      -7.230012      -196.7386
  15   2.0000      -7.229743      -196.7313
  16   2.0000      -3.954516      -107.6079
  17   2.0000      -2.169759       -59.0422
  18   2.0000      -2.165416       -58.9240
  19   2.0000      -2.132175       -58.0194
  20   2.0000      -0.694356       -18.8944
  21   2.0000      -0.676344       -18.4043
  22   2.0000      -0.673281       -18.3209
  23   2.0000      -0.672117       -18.2892
  24   2.0000      -0.387307       -10.5392
  25   2.0000      -0.359920        -9.7939
  26   2.0000      -0.349733        -9.5167
  27   2.0000      -0.287323        -7.8184
  28   2.0000      -0.265236        -7.2174
  29   2.0000      -0.236988        -6.4488
  30   2.0000      -0.233128        -6.3437
  31   2.0000      -0.216235        -5.8841
  32   2.0000      -0.195162        -5.3106
  33   2.0000      -0.177325        -4.8253
  34   2.0000      -0.168321        -4.5802
  35   2.0000      -0.154837        -4.2133
  36   2.0000      -0.145727        -3.9654
  37   2.0000      -0.141998        -3.8640
  38   2.0000      -0.132261        -3.5990
  39   2.0000      -0.118809        -3.2330
  40   0.0000       0.089135         2.4255
  41   0.0000       0.162137         4.4120
  42   0.0000       0.207877         5.6566
  43   0.0000       0.246694         6.7129
  44   0.0000       0.265790         7.2325

MULLIKEN ATOMIC CHARGES
-----------------------
   0 Pt:    0.054868
   1 Cl:   -0.416815
   2 Cl:   -0.342213
   3 Cl:   -0.434663
   4 C :   -0.877085
   5 H :    0.245137
   6 H :    0.225917
   7 H :    0.253370
   8 H :    0.291484
Sum of atomic charges:   -1.0000000

LOEWDIN ATOMIC CHARGES
----------------------
   0 Pt:   -0.916448
   1 Cl:   -0.126908
   2 Cl:   -0.095198
   3 Cl:   -0.146512
   4 C :   -0.415234
   5 H :    0.140765
   6 H :    0.223595
   7 H :    0.142870
   8 H :    0.193071

  Mayer bond orders larger than 0.100000
B(  0-Pt,  1-Cl) :   0.8069 B(  0-Pt,  2-Cl) :   0.8868 B(  0-Pt,  3-Cl) :   0.7714
B(  0-Pt,  4-C ) :   0.3165 B(  0-Pt,  6-H ) :   0.2860 B(  1-Cl,  3-Cl) :   0.1214
B(  4-C ,  5-H ) :   0.8971 B(  4-C ,  6-H ) :   0.6045 B(  4-C ,  7-H ) :   0.8966
B(  4-C ,  8-H ) :   0.8798

Dispersion correction           -0.005068610
FINAL SINGLE POINT ENERGY     -1539.016646934775
Dispersion correction            ... done

DIPOLE MOMENT
-------------
                                X             Y             Z
Electronic contribution:     15.65877       0.68049      -0.90292
Nuclear contribution   :    -14.21849       0.49263       0.26375
                        -----------------------------------------
Total Dipole Moment    :      1.44028       1.17312      -0.63917
                        -----------------------------------------
Magnitude (a.u.)       :      1.96447
Magnitude (Debye)      :      4.99329

Rotational constants in cm-1:     0.057364     0.043190     0.024996
Rotational constants in MHz :  1719.743541  1294.790166   749.367509

                             ****ORCA TERMINATED NORMALLY****
TOTAL RUN TIME: 0 days 0 hours 0 minutes 42 seconds 571 msec
