                         Program Version 5.0.3 -  RELEASE  -
|  1> ! EnGrad PBEh-3c
|  2> %output
|  3> xyzfile=True
|  4> end
|  5> %scf
|  6> maxiter 250
|  7> end
|  8> %output
|  9> Print[P_Hirshfeld] = 1
| 10> end
| 11> % maxcore
| 12> 4000
| 13> *xyz -1 1
| 14> Pt  -0.67217834  -0.79084023   0.43689797
| 15> Cl  -0.16972700  -0.35465437   2.65746744
| 16> Cl  -2.55744289  -2.02605763   1.11387620
| 17> Cl  -1.36634438  -1.16500682  -1.75835627
| 18> C    0.88978542   0.88072869  -0.48317436
| 19> H    1.41427573   1.62700748   0.13163708
| 20> H    1.00742219  -0.29447409   0.14555855
| 21> H    1.47421618   0.71641720  -1.40256081
| 22> H   -0.02156587   1.40758779  -0.84008903
| 23> *
| 24>
| 25>                          ****END OF INPUT****

CARTESIAN COORDINATES (ANGSTROEM)
---------------------------------
  Pt    -0.672178   -0.790840    0.436898
  Cl    -0.169727   -0.354654    2.657467
  Cl    -2.557443   -2.026058    1.113876
  Cl    -1.366344   -1.165007   -1.758356
  C      0.889785    0.880729   -0.483174
  H      1.414276    1.627007    0.131637
  H      1.007422   -0.294474    0.145559
  H      1.474216    0.716417   -1.402561
  H     -0.021566    1.407588   -0.840089

 Total Charge           Charge          ....   -1
 Multiplicity           Mult            ....    1
 Number of Electrons    NEL             ....   80
 Basis Dimension        Dim             ....  109

ORBITAL ENERGIES
----------------

  NO   OCC          E(Eh)            E(eV)
   0   2.0000    -102.092114     -2778.0677
   1   2.0000    -102.087084     -2777.9308
   2   2.0000    -102.085026     -2777.8748
   3   2.0000     -10.363288      -281.9994
   4   2.0000      -9.555523      -260.0190
   5   2.0000      -9.551268      -259.9032
   6   2.0000      -9.549077      -259.8436
   7   2.0000      -7.242417      -197.0762
   8   2.0000      -7.237366      -196.9387
   9   2.0000      -7.236132      -196.9052
  10   2.0000      -7.235653      -196.8921
  11   2.0000      -7.235142      -196.8782
  12   2.0000      -7.232157      -196.7970
  13   2.0000      -7.231994      -196.7926
  14   2.0000      -7.230049      -196.7396
  15   2.0000      -7.229794      -196.7327
  16   2.0000      -3.952941      -107.5650
  17   2.0000      -2.168847       -59.0173
  18   2.0000      -2.164028       -58.8862
  19   2.0000      -2.130457       -57.9727
  20   2.0000      -0.695578       -18.9276
  21   2.0000      -0.677989       -18.4490
  22   2.0000      -0.674899       -18.3649
  23   2.0000      -0.672870       -18.3097
  24   2.0000      -0.394012       -10.7216
  25   2.0000      -0.359982        -9.7956
  26   2.0000      -0.352390        -9.5890
  27   2.0000      -0.286938        -7.8080
  28   2.0000      -0.265824        -7.2334
  29   2.0000      -0.238419        -6.4877
  30   2.0000      -0.233050        -6.3416
  31   2.0000      -0.217361        -5.9147
  32   2.0000      -0.195102        -5.3090
  33   2.0000      -0.177008        -4.8166
  34   2.0000      -0.168334        -4.5806
  35   2.0000      -0.153572        -4.1789
  36   2.0000      -0.145383        -3.9561
  37   2.0000      -0.141077        -3.8389
  38   2.0000      -0.131831        -3.5873
  39   2.0000      -0.117880        -3.2077
  40   0.0000       0.091562         2.4915
  41   0.0000       0.168773         4.5925
  42   0.0000       0.208729         5.6798
  43   0.0000       0.250978         6.8295
  44   0.0000       0.267565         7.2808

MULLIKEN ATOMIC CHARGES
-----------------------
   0 Pt:    0.048739
   1 Cl:   -0.418835
   2 Cl:   -0.337247
   3 Cl:   -0.435141
   4 C :   -0.884640
   5 H :    0.247194
   6 H :    0.232304
   7 H :    0.251946
   8 H :    0.295681
Sum of atomic charges:   -1.0000000

LOEWDIN ATOMIC CHARGES
----------------------
   0 Pt:   -0.922459
   1 Cl:   -0.130067
   2 Cl:   -0.084407
   3 Cl:   -0.144536
   4 C :   -0.415963
   5 H :    0.141159
   6 H :    0.220294
   7 H :    0.143096
   8 H :    0.192883

  Mayer bond orders larger than 0.100000
B(  0-Pt,  1-Cl) :   0.8050 B(  0-Pt,  2-Cl) :   0.8981 B(  0-Pt,  3-Cl) :   0.7717
B(  0-Pt,  4-C ) :   0.3054 B(  0-Pt,  6-H ) :   0.2699 B(  1-Cl,  3-Cl) :   0.1208
B(  4-C ,  5-H ) :   0.8969 B(  4-C ,  6-H ) :   0.6189 B(  4-C ,  7-H ) :   0.8985
B(  4-C ,  8-H ) :   0.8773

Dispersion correction           -0.005083456
FINAL SINGLE POINT ENERGY     -1539.022629532168
Dispersion correction            ... done

DIPOLE MOMENT
-------------
                                X             Y             Z
Electronic contribution:     15.33747       0.40821      -1.00901
Nuclear contribution   :    -13.91933       0.75275       0.36134
                        -----------------------------------------
Total Dipole Moment    :      1.41814       1.16096      -0.64767
                        -----------------------------------------
Magnitude (a.u.)       :      1.94382
Magnitude (Debye)      :      4.94079

Rotational constants in cm-1:     0.058081     0.043245     0.025142
Rotational constants in MHz :  1741.212203  1296.447023   753.739135

                             ****ORCA TERMINATED NORMALLY****
TOTAL RUN TIME: 0 days 0 hours 0 minutes 42 seconds 707 msec
