                         Program Version 5.0.3 -  RELEASE  -
|  1> ! EnGrad PBEh-3c
|  2> %output
|  3> xyzfile=True
|  4> end
|  5> %scf
|  6> maxiter 250
|  7> end
|  8> %output
|  9> Print[P_Hirshfeld] = 1
| 10> end
| 11> % maxcore
| 12> 4000
| 13> *xyz -1 1
| 14> Pt  -0.67480921  -0.79189542   0.43558569
| 15> Cl  -0.16623992  -0.35153652   2.65610571
| 16> Cl  -2.54472424  -2.01695025   1.11064383
| 17> Cl  -1.35944187  -1.16489743  -1.75892763
| 18> C    0.88775262   0.87400903  -0.48040108
| 19> H    1.41201698   1.61558552   0.13524471
| 20> H    0.99278870  -0.27308993   0.13218218
| 21> H    1.46989521   0.71120712  -1.39678932
| 22> H   -0.01907390   1.39810119  -0.83223159
| 23> *
| 24>
| 25>                          ****END OF INPUT****

CARTESIAN COORDINATES (ANGSTROEM)
---------------------------------
  Pt    -0.674809   -0.791895    0.435586
  Cl    -0.166240   -0.351537    2.656106
  Cl    -2.544724   -2.016950    1.110644
  Cl    -1.359442   -1.164897   -1.758928
  C      0.887753    0.874009   -0.480401
  H      1.412017    1.615586    0.135245
  H      0.992789   -0.273090    0.132182
  H      1.469895    0.711207   -1.396789
  H     -0.019074    1.398101   -0.832232

 Total Charge           Charge          ....   -1
 Multiplicity           Mult            ....    1
 Number of Electrons    NEL             ....   80
 Basis Dimension        Dim             ....  109

ORBITAL ENERGIES
----------------

  NO   OCC          E(Eh)            E(eV)
   0   2.0000    -102.092713     -2778.0840
   1   2.0000    -102.086329     -2777.9102
   2   2.0000    -102.085004     -2777.8742
   3   2.0000     -10.359804      -281.9046
   4   2.0000      -9.556315      -260.0406
   5   2.0000      -9.550496      -259.8822
   6   2.0000      -9.549097      -259.8441
   7   2.0000      -7.243228      -197.0983
   8   2.0000      -7.236891      -196.9258
   9   2.0000      -7.236576      -196.9172
  10   2.0000      -7.236413      -196.9128
  11   2.0000      -7.235155      -196.8786
  12   2.0000      -7.231391      -196.7762
  13   2.0000      -7.231245      -196.7722
  14   2.0000      -7.230063      -196.7400
  15   2.0000      -7.229822      -196.7335
  16   2.0000      -3.951600      -107.5285
  17   2.0000      -2.168025       -58.9950
  18   2.0000      -2.162831       -58.8536
  19   2.0000      -2.129015       -57.9334
  20   2.0000      -0.696940       -18.9647
  21   2.0000      -0.679956       -18.5025
  22   2.0000      -0.675711       -18.3870
  23   2.0000      -0.673191       -18.3185
  24   2.0000      -0.398229       -10.8364
  25   2.0000      -0.360680        -9.8146
  26   2.0000      -0.354097        -9.6355
  27   2.0000      -0.286598        -7.7987
  28   2.0000      -0.266396        -7.2490
  29   2.0000      -0.240326        -6.5396
  30   2.0000      -0.232614        -6.3297
  31   2.0000      -0.218440        -5.9441
  32   2.0000      -0.195148        -5.3102
  33   2.0000      -0.176743        -4.8094
  34   2.0000      -0.168455        -4.5839
  35   2.0000      -0.152452        -4.1484
  36   2.0000      -0.145087        -3.9480
  37   2.0000      -0.140108        -3.8125
  38   2.0000      -0.131442        -3.5767
  39   2.0000      -0.117120        -3.1870
  40   0.0000       0.093812         2.5527
  41   0.0000       0.173441         4.7196
  42   0.0000       0.209374         5.6974
  43   0.0000       0.253904         6.9091
  44   0.0000       0.269015         7.3203

MULLIKEN ATOMIC CHARGES
-----------------------
   0 Pt:    0.043895
   1 Cl:   -0.420621
   2 Cl:   -0.333188
   3 Cl:   -0.435571
   4 C :   -0.890239
   5 H :    0.248145
   6 H :    0.237267
   7 H :    0.252977
   8 H :    0.297337
Sum of atomic charges:   -1.0000000

LOEWDIN ATOMIC CHARGES
----------------------
   0 Pt:   -0.928561
   1 Cl:   -0.132722
   2 Cl:   -0.074007
   3 Cl:   -0.143088
   4 C :   -0.416948
   5 H :    0.141466
   6 H :    0.217537
   7 H :    0.143313
   8 H :    0.193010

  Mayer bond orders larger than 0.100000
B(  0-Pt,  1-Cl) :   0.8034 B(  0-Pt,  2-Cl) :   0.9083 B(  0-Pt,  3-Cl) :   0.7719
B(  0-Pt,  4-C ) :   0.2967 B(  0-Pt,  6-H ) :   0.2570 B(  1-Cl,  3-Cl) :   0.1202
B(  4-C ,  5-H ) :   0.8972 B(  4-C ,  6-H ) :   0.6307 B(  4-C ,  7-H ) :   0.8986
B(  4-C ,  8-H ) :   0.8764

Dispersion correction           -0.005096208
FINAL SINGLE POINT ENERGY     -1539.026862093333
Dispersion correction            ... done

DIPOLE MOMENT
-------------
                                X             Y             Z
Electronic contribution:     14.84246       0.18819      -1.03070
Nuclear contribution   :    -13.44841       0.95934       0.37850
                        -----------------------------------------
Total Dipole Moment    :      1.39405       1.14753      -0.65220
                        -----------------------------------------
Magnitude (a.u.)       :      1.91978
Magnitude (Debye)      :      4.87969

Rotational constants in cm-1:     0.058720     0.043282     0.025265
Rotational constants in MHz :  1760.387311  1297.563862   757.417769

                             ****ORCA TERMINATED NORMALLY****
TOTAL RUN TIME: 0 days 0 hours 0 minutes 42 seconds 798 msec
