                         Program Version 5.0.3 -  RELEASE  -
|  1> ! EnGrad PBEh-3c
|  2> %output
|  3> xyzfile=True
|  4> end
|  5> %scf
|  6> maxiter 250
|  7> end
|  8> %output
|  9> Print[P_Hirshfeld] = 1
| 10> end
| 11> % maxcore
| 12> 4000
| 13> *xyz -1 1
| 14> Pt  -0.69464757  -0.79572677   0.43060799
| 15> Cl  -0.14323911  -0.33011795   2.64556530
| 16> Cl  -2.47835120  -1.96693758   1.09440129
| 17> Cl  -1.31599114  -1.16656267  -1.76634530
| 18> C    0.87937980   0.83533225  -0.46124109
| 19> H    1.40074009   1.55086812   0.16027342
| 20> H    0.91968469  -0.16009731   0.05590380
| 21> H    1.44458362   0.68136748  -1.36913368
| 22> H   -0.01564288   1.35143956  -0.78754258
| 23> *
| 24>
| 25>                          ****END OF INPUT****

CARTESIAN COORDINATES (ANGSTROEM)
---------------------------------
  Pt    -0.694648   -0.795727    0.430608
  Cl    -0.143239   -0.330118    2.645565
  Cl    -2.478351   -1.966938    1.094401
  Cl    -1.315991   -1.166563   -1.766345
  C      0.879380    0.835332   -0.461241
  H      1.400740    1.550868    0.160273
  H      0.919685   -0.160097    0.055904
  H      1.444584    0.681367   -1.369134
  H     -0.015643    1.351440   -0.787543

 Total Charge           Charge          ....   -1
 Multiplicity           Mult            ....    1
 Number of Electrons    NEL             ....   80
 Basis Dimension        Dim             ....  109

ORBITAL ENERGIES
----------------

  NO   OCC          E(Eh)            E(eV)
   0   2.0000    -102.096227     -2778.1796
   1   2.0000    -102.085186     -2777.8791
   2   2.0000    -102.083307     -2777.8280
   3   2.0000     -10.338100      -281.3140
   4   2.0000      -9.561125      -260.1714
   5   2.0000      -9.549466      -259.8542
   6   2.0000      -9.547407      -259.7981
   7   2.0000      -7.248138      -197.2319
   8   2.0000      -7.241486      -197.0508
   9   2.0000      -7.241021      -197.0382
  10   2.0000      -7.235472      -196.8872
  11   2.0000      -7.233394      -196.8306
  12   2.0000      -7.230398      -196.7491
  13   2.0000      -7.230251      -196.7451
  14   2.0000      -7.228323      -196.6927
  15   2.0000      -7.228266      -196.6911
  16   2.0000      -3.945512      -107.3628
  17   2.0000      -2.164863       -58.9089
  18   2.0000      -2.157299       -58.7031
  19   2.0000      -2.122527       -57.7569
  20   2.0000      -0.709739       -19.3130
  21   2.0000      -0.690868       -18.7995
  22   2.0000      -0.679941       -18.5021
  23   2.0000      -0.672539       -18.3007
  24   2.0000      -0.419157       -11.4058
  25   2.0000      -0.363281        -9.8854
  26   2.0000      -0.359526        -9.7832
  27   2.0000      -0.285406        -7.7663
  28   2.0000      -0.271148        -7.3783
  29   2.0000      -0.253640        -6.9019
  30   2.0000      -0.230661        -6.2766
  31   2.0000      -0.225947        -6.1483
  32   2.0000      -0.196034        -5.3344
  33   2.0000      -0.175780        -4.7832
  34   2.0000      -0.169981        -4.6254
  35   2.0000      -0.147023        -4.0007
  36   2.0000      -0.144299        -3.9266
  37   2.0000      -0.133846        -3.6421
  38   2.0000      -0.128613        -3.4997
  39   2.0000      -0.113917        -3.0998
  40   0.0000       0.105358         2.8669
  41   0.0000       0.192216         5.2305
  42   0.0000       0.212178         5.7737
  43   0.0000       0.264735         7.2038
  44   0.0000       0.274260         7.4630

MULLIKEN ATOMIC CHARGES
-----------------------
   0 Pt:    0.022386
   1 Cl:   -0.429325
   2 Cl:   -0.310354
   3 Cl:   -0.438130
   4 C :   -0.918349
   5 H :    0.251676
   6 H :    0.266431
   7 H :    0.255633
   8 H :    0.300032
Sum of atomic charges:   -1.0000000

LOEWDIN ATOMIC CHARGES
----------------------
   0 Pt:   -0.958433
   1 Cl:   -0.144756
   2 Cl:   -0.013027
   3 Cl:   -0.137061
   4 C :   -0.425678
   5 H :    0.143242
   6 H :    0.197380
   7 H :    0.144608
   8 H :    0.193724

  Mayer bond orders larger than 0.100000
B(  0-Pt,  1-Cl) :   0.7947 B(  0-Pt,  2-Cl) :   0.9679 B(  0-Pt,  3-Cl) :   0.7726
B(  0-Pt,  4-C ) :   0.2553 B(  0-Pt,  6-H ) :   0.1917 B(  1-Cl,  3-Cl) :   0.1169
B(  4-C ,  5-H ) :   0.9004 B(  4-C ,  6-H ) :   0.6871 B(  4-C ,  7-H ) :   0.9015
B(  4-C ,  8-H ) :   0.8749

Dispersion correction           -0.005164143
FINAL SINGLE POINT ENERGY     -1539.038523798400
Dispersion correction            ... done

DIPOLE MOMENT
-------------
                                X             Y             Z
Electronic contribution:     11.68927      -0.94174      -0.92642
Nuclear contribution   :    -10.44867       1.99865       0.27613
                        -----------------------------------------
Total Dipole Moment    :      1.24060       1.05691      -0.65029
                        -----------------------------------------
Magnitude (a.u.)       :      1.75471
Magnitude (Debye)      :      4.46013

Rotational constants in cm-1:     0.062324     0.043452     0.025916
Rotational constants in MHz :  1868.439687  1302.653449   776.936890

                             ****ORCA TERMINATED NORMALLY****
TOTAL RUN TIME: 0 days 0 hours 0 minutes 41 seconds 733 msec
