                         Program Version 5.0.3 -  RELEASE  -
|  1> ! EnGrad PBEh-3c
|  2> %output
|  3> xyzfile=True
|  4> end
|  5> %scf
|  6> maxiter 250
|  7> end
|  8> %output
|  9> Print[P_Hirshfeld] = 1
| 10> end
| 11> % maxcore
| 12> 4000
| 13> *xyz -1 1
| 14> Pt  -0.72420414  -0.78754911   0.43724309
| 15> Cl  -0.13207132  -0.32240059   2.64293896
| 16> Cl  -2.48278774  -1.97438535   1.10205039
| 17> Cl  -1.30281492  -1.16925188  -1.77878012
| 18> C    0.88292579   0.88076273  -0.48640404
| 19> H    1.40716995   1.53286236   0.18076321
| 20> H    0.92942513  -0.16358854   0.05042716
| 21> H    1.44624645   0.66736511  -1.37057969
| 22> H   -0.02835129   1.33541248  -0.77376082
| 23> *
| 24>
| 25>                          ****END OF INPUT****

CARTESIAN COORDINATES (ANGSTROEM)
---------------------------------
  Pt    -0.724204   -0.787549    0.437243
  Cl    -0.132071   -0.322401    2.642939
  Cl    -2.482788   -1.974385    1.102050
  Cl    -1.302815   -1.169252   -1.778780
  C      0.882926    0.880763   -0.486404
  H      1.407170    1.532862    0.180763
  H      0.929425   -0.163589    0.050427
  H      1.446246    0.667365   -1.370580
  H     -0.028351    1.335412   -0.773761

 Total Charge           Charge          ....   -1
 Multiplicity           Mult            ....    1
 Number of Electrons    NEL             ....   80
 Basis Dimension        Dim             ....  109

ORBITAL ENERGIES
----------------

  NO   OCC          E(Eh)            E(eV)
   0   2.0000    -102.097570     -2778.2161
   1   2.0000    -102.085279     -2777.8817
   2   2.0000    -102.083954     -2777.8456
   3   2.0000     -10.337454      -281.2964
   4   2.0000      -9.562601      -260.2116
   5   2.0000      -9.549422      -259.8530
   6   2.0000      -9.548030      -259.8151
   7   2.0000      -7.249614      -197.2720
   8   2.0000      -7.242942      -197.0905
   9   2.0000      -7.242481      -197.0779
  10   2.0000      -7.235391      -196.8850
  11   2.0000      -7.234010      -196.8474
  12   2.0000      -7.230378      -196.7486
  13   2.0000      -7.230262      -196.7454
  14   2.0000      -7.228943      -196.7095
  15   2.0000      -7.228903      -196.7085
  16   2.0000      -3.944937      -107.3472
  17   2.0000      -2.163925       -58.8834
  18   2.0000      -2.156588       -58.6837
  19   2.0000      -2.122035       -57.7435
  20   2.0000      -0.708010       -19.2659
  21   2.0000      -0.691348       -18.8125
  22   2.0000      -0.680291       -18.5117
  23   2.0000      -0.672689       -18.3048
  24   2.0000      -0.401594       -10.9279
  25   2.0000      -0.370896       -10.0926
  26   2.0000      -0.366658        -9.9773
  27   2.0000      -0.284455        -7.7404
  28   2.0000      -0.271590        -7.3903
  29   2.0000      -0.254392        -6.9224
  30   2.0000      -0.230033        -6.2595
  31   2.0000      -0.227055        -6.1785
  32   2.0000      -0.196957        -5.3595
  33   2.0000      -0.176222        -4.7952
  34   2.0000      -0.170394        -4.6366
  35   2.0000      -0.146695        -3.9918
  36   2.0000      -0.145702        -3.9647
  37   2.0000      -0.133201        -3.6246
  38   2.0000      -0.127576        -3.4715
  39   2.0000      -0.114366        -3.1121
  40   0.0000       0.103702         2.8219
  41   0.0000       0.191042         5.1985
  42   0.0000       0.210300         5.7225
  43   0.0000       0.266369         7.2483
  44   0.0000       0.274107         7.4588

MULLIKEN ATOMIC CHARGES
-----------------------
   0 Pt:    0.019909
   1 Cl:   -0.430527
   2 Cl:   -0.312101
   3 Cl:   -0.440149
   4 C :   -0.901132
   5 H :    0.253475
   6 H :    0.251525
   7 H :    0.256632
   8 H :    0.302368
Sum of atomic charges:   -1.0000000

LOEWDIN ATOMIC CHARGES
----------------------
   0 Pt:   -0.961529
   1 Cl:   -0.145444
   2 Cl:   -0.005223
   3 Cl:   -0.142818
   4 C :   -0.422845
   5 H :    0.143357
   6 H :    0.199047
   7 H :    0.144787
   8 H :    0.190669

  Mayer bond orders larger than 0.100000
B(  0-Pt,  1-Cl) :   0.7957 B(  0-Pt,  2-Cl) :   0.9679 B(  0-Pt,  3-Cl) :   0.7710
B(  0-Pt,  4-C ) :   0.2517 B(  0-Pt,  6-H ) :   0.1952 B(  1-Cl,  3-Cl) :   0.1159
B(  4-C ,  5-H ) :   0.8991 B(  4-C ,  6-H ) :   0.6925 B(  4-C ,  7-H ) :   0.9014
B(  4-C ,  8-H ) :   0.8734

Dispersion correction           -0.005171063
FINAL SINGLE POINT ENERGY     -1539.040098310526
Dispersion correction            ... done

DIPOLE MOMENT
-------------
                                X             Y             Z
Electronic contribution:      9.61902      -0.63859      -0.28918
Nuclear contribution   :     -8.40760       1.67483      -0.32586
                        -----------------------------------------
Total Dipole Moment    :      1.21142       1.03625      -0.61505
                        -----------------------------------------
Magnitude (a.u.)       :      1.70869
Magnitude (Debye)      :      4.34314

Rotational constants in cm-1:     0.061727     0.043270     0.025728
Rotational constants in MHz :  1850.514187  1297.202877   771.302704

                             ****ORCA TERMINATED NORMALLY****
TOTAL RUN TIME: 0 days 0 hours 0 minutes 38 seconds 225 msec
