                         Program Version 5.0.3 -  RELEASE  -
|  1> ! EnGrad PBEh-3c
|  2> %output
|  3> xyzfile=True
|  4> end
|  5> %scf
|  6> maxiter 250
|  7> end
|  8> %output
|  9> Print[P_Hirshfeld] = 1
| 10> end
| 11> % maxcore
| 12> 4000
| 13> *xyz 1 1
| 14> Ir   0.47802420  -0.74307468   0.81941848
| 15> C   -0.08779005  -2.75904278   1.52589259
| 16> C    0.63497153  -2.08532134   2.55799363
| 17> C    1.96778409  -2.21383242   0.67194155
| 18> C    0.72845801  -2.84727817   0.38196619
| 19> C    1.90774838  -1.81793230   2.03681529
| 20> N   -1.00888080  -0.00589191  -0.42418121
| 21> C   -2.42251530   0.02236323   0.00652522
| 22> C   -2.89144170   1.40092069   0.42857685
| 23> H   -3.91833083   1.39835235   0.79413136
| 24> H   -2.81533074   2.11869799  -0.38868857
| 25> H   -2.33058187   1.78114057   1.27669485
| 26> C   -3.42360090  -0.55054528  -0.98341828
| 27> H   -2.47242008  -0.60117670   0.89848058
| 28> H   -4.40081867  -0.67188463  -0.52205210
| 29> H   -3.57777961   0.08949958  -1.85456363
| 30> H   -3.11233192  -1.53575426  -1.33454240
| 31> C   -0.74030715   0.26768017  -1.64572845
| 32> C    0.54509223   0.23286401  -2.27097413
| 33> H   -1.54605728   0.55876622  -2.31517533
| 34> C    1.75099792  -0.02084905  -1.67957579
| 35> C    2.83977050  -0.01260394  -2.57303155
| 36> S    0.74035422   0.15904638  -3.98067199
| 37> C    2.41890721  -0.00839577  -3.87093330
| 38> H    2.25552986   1.10390123  -0.80663075
| 39> H    3.89224417  -0.03646768  -2.32748033
| 40> H    3.03238656  -0.11660664  -4.75234559
| 41> H   -0.92472757  -3.41984887   1.70847967
| 42> H    0.29784343  -1.99448715   3.57884861
| 43> H    2.75080597  -1.44316799   2.59800776
| 44> O    1.80323128   1.81567829   0.66448597
| 45> O    0.15371741   1.09425076   1.81168722
| 46> C    0.86747013   2.05361076   1.48442339
| 47> C    0.80444935   3.40469929   2.08976860
| 48> H    0.84045869   4.16415356   1.31037848
| 49> H    1.65962921   3.57846570   2.74425922
| 50> H   -0.10486616   3.50875434   2.67336426
| 51> H    2.88935206  -2.39318687   0.13935112
| 52> H    0.51855617  -3.47547863  -0.47149197
| 53> *
| 54>
| 55>                          ****END OF INPUT****

CARTESIAN COORDINATES (ANGSTROEM)
---------------------------------
  Ir     0.478024   -0.743075    0.819418
  C     -0.087790   -2.759043    1.525893
  C      0.634972   -2.085321    2.557994
  C      1.967784   -2.213832    0.671942
  C      0.728458   -2.847278    0.381966
  C      1.907748   -1.817932    2.036815
  N     -1.008881   -0.005892   -0.424181
  C     -2.422515    0.022363    0.006525
  C     -2.891442    1.400921    0.428577
  H     -3.918331    1.398352    0.794131
  H     -2.815331    2.118698   -0.388689
  H     -2.330582    1.781141    1.276695
  C     -3.423601   -0.550545   -0.983418
  H     -2.472420   -0.601177    0.898481
  H     -4.400819   -0.671885   -0.522052
  H     -3.577780    0.089500   -1.854564
  H     -3.112332   -1.535754   -1.334542
  C     -0.740307    0.267680   -1.645728
  C      0.545092    0.232864   -2.270974
  H     -1.546057    0.558766   -2.315175
  C      1.750998   -0.020849   -1.679576
  C      2.839771   -0.012604   -2.573032
  S      0.740354    0.159046   -3.980672
  C      2.418907   -0.008396   -3.870933
  H      2.255530    1.103901   -0.806631
  H      3.892244   -0.036468   -2.327480
  H      3.032387   -0.116607   -4.752346
  H     -0.924728   -3.419849    1.708480
  H      0.297843   -1.994487    3.578849
  H      2.750806   -1.443168    2.598008
  O      1.803231    1.815678    0.664486
  O      0.153717    1.094251    1.811687
  C      0.867470    2.053611    1.484423
  C      0.804449    3.404699    2.089769
  H      0.840459    4.164154    1.310378
  H      1.659629    3.578466    2.744259
  H     -0.104866    3.508754    2.673364
  H      2.889352   -2.393187    0.139351
  H      0.518556   -3.475479   -0.471492

 Total Charge           Charge          ....    1
 Multiplicity           Mult            ....    1
 Number of Electrons    NEL             ....  164
 Basis Dimension        Dim             ....  358

ORBITAL ENERGIES
----------------

  NO   OCC          E(Eh)            E(eV)
   0   2.0000     -89.755414     -2442.3690
   1   2.0000     -19.612702      -533.6888
   2   2.0000     -19.558357      -532.2100
   3   2.0000     -14.831620      -403.5889
   4   2.0000     -10.665555      -290.2245
   5   2.0000     -10.654953      -289.9360
   6   2.0000     -10.642559      -289.5987
   7   2.0000     -10.640842      -289.5520
   8   2.0000     -10.636902      -289.4448
   9   2.0000     -10.621426      -289.0237
  10   2.0000     -10.617237      -288.9097
  11   2.0000     -10.616679      -288.8945
  12   2.0000     -10.609709      -288.7049
  13   2.0000     -10.604104      -288.5523
  14   2.0000     -10.585613      -288.0492
  15   2.0000     -10.579202      -287.8747
  16   2.0000     -10.548299      -287.0338
  17   2.0000     -10.536323      -286.7079
  18   2.0000     -10.530723      -286.5555
  19   2.0000      -8.395045      -228.4408
  20   2.0000      -6.284774      -171.0174
  21   2.0000      -6.281355      -170.9243
  22   2.0000      -6.280177      -170.8923
  23   2.0000      -4.033469      -109.7563
  24   2.0000      -2.354146       -64.0596
  25   2.0000      -2.315806       -63.0163
  26   2.0000      -2.315732       -63.0143
  27   2.0000      -1.302028       -35.4300
  28   2.0000      -1.201656       -32.6987
  29   2.0000      -1.179527       -32.0965
  30   2.0000      -1.170935       -31.8627
  31   2.0000      -1.124452       -30.5979
  32   2.0000      -1.015978       -27.6462
  33   2.0000      -0.986238       -26.8369
  34   2.0000      -0.982438       -26.7335
  35   2.0000      -0.964934       -26.2572
  36   2.0000      -0.948324       -25.8052
  37   2.0000      -0.926018       -25.1982
  38   2.0000      -0.890374       -24.2283
  39   2.0000      -0.867772       -23.6133
  40   2.0000      -0.795931       -21.6584
  41   2.0000      -0.788468       -21.4553
  42   2.0000      -0.786762       -21.4089
  43   2.0000      -0.778230       -21.1767
  44   2.0000      -0.771544       -20.9948
  45   2.0000      -0.734262       -19.9803
  46   2.0000      -0.728701       -19.8290
  47   2.0000      -0.696332       -18.9482
  48   2.0000      -0.681320       -18.5397
  49   2.0000      -0.661911       -18.0115
  50   2.0000      -0.656703       -17.8698
  51   2.0000      -0.649707       -17.6794
  52   2.0000      -0.644405       -17.5352
  53   2.0000      -0.639149       -17.3921
  54   2.0000      -0.636624       -17.3234
  55   2.0000      -0.629927       -17.1412
  56   2.0000      -0.618799       -16.8384
  57   2.0000      -0.609259       -16.5788
  58   2.0000      -0.607762       -16.5381
  59   2.0000      -0.605013       -16.4632
  60   2.0000      -0.591958       -16.1080
  61   2.0000      -0.583827       -15.8867
  62   2.0000      -0.569897       -15.5077
  63   2.0000      -0.557789       -15.1782
  64   2.0000      -0.552701       -15.0397
  65   2.0000      -0.548564       -14.9272
  66   2.0000      -0.541104       -14.7242
  67   2.0000      -0.536597       -14.6015
  68   2.0000      -0.531723       -14.4689
  69   2.0000      -0.518315       -14.1041
  70   2.0000      -0.511133       -13.9086
  71   2.0000      -0.507371       -13.8063
  72   2.0000      -0.502966       -13.6864
  73   2.0000      -0.489484       -13.3195
  74   2.0000      -0.471836       -12.8393
  75   2.0000      -0.465325       -12.6622
  76   2.0000      -0.452324       -12.3084
  77   2.0000      -0.444982       -12.1086
  78   2.0000      -0.424134       -11.5413
  79   2.0000      -0.413989       -11.2652
  80   2.0000      -0.405668       -11.0388
  81   2.0000      -0.392540       -10.6815
  82   0.0000      -0.222632        -6.0581
  83   0.0000      -0.185293        -5.0421
  84   0.0000      -0.153516        -4.1774
  85   0.0000      -0.084523        -2.3000
  86   0.0000      -0.080958        -2.2030

MULLIKEN ATOMIC CHARGES
-----------------------
   0 Ir:    0.655647
   1 C :   -0.263858
   2 C :   -0.202504
   3 C :   -0.251678
   4 C :   -0.217973
   5 C :   -0.181207
   6 N :   -0.490620
   7 C :   -0.129988
   8 C :   -0.639291
   9 H :    0.250511
  10 H :    0.222865
  11 H :    0.268093
  12 C :   -0.670264
  13 H :    0.258303
  14 H :    0.269024
  15 H :    0.227736
  16 H :    0.241924
  17 C :    0.110696
  18 C :   -0.143666
  19 H :    0.270521
  20 C :   -0.348808
  21 C :   -0.150067
  22 S :    0.323806
  23 C :   -0.419605
  24 H :    0.364485
  25 H :    0.272494
  26 H :    0.298646
  27 H :    0.289532
  28 H :    0.297926
  29 H :    0.292481
  30 O :   -0.550743
  31 O :   -0.499716
  32 C :    0.631212
  33 C :   -0.748142
  34 H :    0.267622
  35 H :    0.276436
  36 H :    0.244397
  37 H :    0.289135
  38 H :    0.284636
Sum of atomic charges:    1.0000000

LOEWDIN ATOMIC CHARGES
----------------------
   0 Ir:   -0.151712
   1 C :   -0.022778
   2 C :   -0.008687
   3 C :   -0.005022
   4 C :   -0.080089
   5 C :   -0.074819
   6 N :   -0.032745
   7 C :   -0.064190
   8 C :   -0.354800
   9 H :    0.147692
  10 H :    0.134473
  11 H :    0.147665
  12 C :   -0.359308
  13 H :    0.145667
  14 H :    0.156121
  15 H :    0.133220
  16 H :    0.136513
  17 C :    0.038766
  18 C :   -0.222866
  19 H :    0.154061
  20 C :   -0.202834
  21 C :   -0.165555
  22 S :    0.484721
  23 C :   -0.261791
  24 H :    0.334637
  25 H :    0.159704
  26 H :    0.169227
  27 H :    0.185718
  28 H :    0.191434
  29 H :    0.185873
  30 O :   -0.339567
  31 O :   -0.181366
  32 C :    0.138356
  33 C :   -0.372934
  34 H :    0.165687
  35 H :    0.171954
  36 H :    0.146506
  37 H :    0.190579
  38 H :    0.182489

  Mayer bond orders larger than 0.100000
B(  0-Ir,  1-C ) :   0.5067 B(  0-Ir,  2-C ) :   0.4665 B(  0-Ir,  3-C ) :   0.5466
B(  0-Ir,  4-C ) :   0.4484 B(  0-Ir,  5-C ) :   0.4466 B(  0-Ir,  6-N ) :   0.4833
B(  0-Ir, 20-C ) :   0.1691 B(  0-Ir, 30-O ) :   0.1528 B(  0-Ir, 31-O ) :   0.5421
B(  1-C ,  2-C ) :   1.1380 B(  1-C ,  4-C ) :   1.1722 B(  1-C , 27-H ) :   0.9178
B(  2-C ,  5-C ) :   1.1843 B(  2-C , 28-H ) :   0.9091 B(  3-C ,  4-C ) :   1.1427
B(  3-C ,  5-C ) :   1.1275 B(  3-C , 37-H ) :   0.9200 B(  4-C , 38-H ) :   0.9149
B(  5-C , 29-H ) :   0.9091 B(  6-N ,  7-C ) :   0.8896 B(  6-N , 17-C ) :   1.6173
B(  7-C ,  8-C ) :   0.9767 B(  7-C , 12-C ) :   0.9879 B(  7-C , 13-H ) :   0.8930
B(  8-C ,  9-H ) :   0.9069 B(  8-C , 10-H ) :   0.9189 B(  8-C , 11-H ) :   0.9018
B( 12-C , 14-H ) :   0.9041 B( 12-C , 15-H ) :   0.9131 B( 12-C , 16-H ) :   0.9173
B( 17-C , 18-C ) :   1.1129 B( 17-C , 19-H ) :   0.8797 B( 18-C , 20-C ) :   1.2921
B( 18-C , 22-S ) :   1.1792 B( 20-C , 21-C ) :   1.3040 B( 20-C , 24-H ) :   0.6307
B( 21-C , 23-C ) :   1.4736 B( 21-C , 25-H ) :   0.8982 B( 22-S , 23-C ) :   1.2776
B( 23-C , 26-H ) :   0.8875 B( 24-H , 30-O ) :   0.1093 B( 30-O , 32-C ) :   1.5806
B( 31-O , 32-C ) :   1.3730 B( 32-C , 33-C ) :   0.9500 B( 33-C , 34-H ) :   0.9033
B( 33-C , 35-H ) :   0.8973 B( 33-C , 36-H ) :   0.9102

Dispersion correction           -0.029839325
FINAL SINGLE POINT ENERGY     -1288.269326830126
Dispersion correction            ... done

DIPOLE MOMENT
-------------
                                X             Y             Z
Electronic contribution:     25.99891     -73.44946     106.60305
Nuclear contribution   :    -26.33857      72.04285    -107.00378
                        -----------------------------------------
Total Dipole Moment    :     -0.33966      -1.40661      -0.40073
                        -----------------------------------------
Magnitude (a.u.)       :      1.50150
Magnitude (Debye)      :      3.81652

Rotational constants in cm-1:     0.010687     0.007803     0.007227
Rotational constants in MHz :   320.390248   233.930835   216.667540

                             ****ORCA TERMINATED NORMALLY****
TOTAL RUN TIME: 0 days 0 hours 24 minutes 59 seconds 906 msec
