                         Program Version 5.0.3 -  RELEASE  -
|  1> ! EnGrad PBEh-3c
|  2> %output
|  3> xyzfile=True
|  4> end
|  5> %scf
|  6> maxiter 250
|  7> end
|  8> %output
|  9> Print[P_Hirshfeld] = 1
| 10> end
| 11> % maxcore
| 12> 4000
| 13> *xyz 1 1
| 14> Ir   0.48662782  -0.70871397   0.83270960
| 15> C   -0.08495960  -2.77366367   1.52525712
| 16> C    0.62590587  -2.10183557   2.53765550
| 17> C    1.97115913  -2.26844115   0.71092371
| 18> C    0.74684844  -2.86452758   0.35967562
| 19> C    1.94388580  -1.79532608   2.06467387
| 20> N   -1.01087872  -0.02594916  -0.44498539
| 21> C   -2.45391239   0.02177291   0.03483095
| 22> C   -2.87892720   1.41902895   0.44987915
| 23> H   -3.92128955   1.38327673   0.78887607
| 24> H   -2.81590184   2.11862313  -0.37827049
| 25> H   -2.31754535   1.77298179   1.28306806
| 26> C   -3.41329915  -0.56104908  -1.00611079
| 27> H   -2.46859100  -0.61203089   0.89487232
| 28> H   -4.40076836  -0.66752049  -0.51598616
| 29> H   -3.58001071   0.09581456  -1.85150260
| 30> H   -3.11796989  -1.53225998  -1.34359249
| 31> C   -0.75276155   0.28667617  -1.67350239
| 32> C    0.54030779   0.19581120  -2.28635903
| 33> H   -1.55568819   0.55820821  -2.31131372
| 34> C    1.84256946   0.13769576  -1.55645394
| 35> C    2.83125535  -0.05289253  -2.59306902
| 36> S    0.71880351   0.16130157  -3.99703207
| 37> C    2.41884270  -0.00898627  -3.87858208
| 38> H    2.17451405   0.99416184  -0.82456747
| 39> H    3.88516894  -0.04371690  -2.31420324
| 40> H    3.02963750  -0.10721844  -4.75395985
| 41> H   -0.94619606  -3.39730259   1.68568240
| 42> H    0.27968809  -1.97908727   3.57224523
| 43> H    2.73596579  -1.42966524   2.61081355
| 44> O    1.79385287   1.85247777   0.66883522
| 45> O    0.07219585   1.03671039   1.84909632
| 46> C    1.01666704   2.03964067   1.38906202
| 47> C    0.77755800   3.41312498   2.09828578
| 48> H    0.84011773   4.16596342   1.30751586
| 49> H    1.66320409   3.57496634   2.73677899
| 50> H   -0.10272777   3.51892709   2.67348666
| 51> H    2.89464033  -2.35632581   0.13646174
| 52> H    0.53162396  -3.46194223  -0.48203168
| 53> *
| 54>
| 55>                          ****END OF INPUT****

CARTESIAN COORDINATES (ANGSTROEM)
---------------------------------
  Ir     0.486628   -0.708714    0.832710
  C     -0.084960   -2.773664    1.525257
  C      0.625906   -2.101836    2.537655
  C      1.971159   -2.268441    0.710924
  C      0.746848   -2.864528    0.359676
  C      1.943886   -1.795326    2.064674
  N     -1.010879   -0.025949   -0.444985
  C     -2.453912    0.021773    0.034831
  C     -2.878927    1.419029    0.449879
  H     -3.921290    1.383277    0.788876
  H     -2.815902    2.118623   -0.378270
  H     -2.317545    1.772982    1.283068
  C     -3.413299   -0.561049   -1.006111
  H     -2.468591   -0.612031    0.894872
  H     -4.400768   -0.667520   -0.515986
  H     -3.580011    0.095815   -1.851503
  H     -3.117970   -1.532260   -1.343592
  C     -0.752762    0.286676   -1.673502
  C      0.540308    0.195811   -2.286359
  H     -1.555688    0.558208   -2.311314
  C      1.842569    0.137696   -1.556454
  C      2.831255   -0.052893   -2.593069
  S      0.718804    0.161302   -3.997032
  C      2.418843   -0.008986   -3.878582
  H      2.174514    0.994162   -0.824567
  H      3.885169   -0.043717   -2.314203
  H      3.029638   -0.107218   -4.753960
  H     -0.946196   -3.397303    1.685682
  H      0.279688   -1.979087    3.572245
  H      2.735966   -1.429665    2.610814
  O      1.793853    1.852478    0.668835
  O      0.072196    1.036710    1.849096
  C      1.016667    2.039641    1.389062
  C      0.777558    3.413125    2.098286
  H      0.840118    4.165963    1.307516
  H      1.663204    3.574966    2.736779
  H     -0.102728    3.518927    2.673487
  H      2.894640   -2.356326    0.136462
  H      0.531624   -3.461942   -0.482032

 Total Charge           Charge          ....    1
 Multiplicity           Mult            ....    1
 Number of Electrons    NEL             ....  164
 Basis Dimension        Dim             ....  358

ORBITAL ENERGIES
----------------

  NO   OCC          E(Eh)            E(eV)
   0   2.0000     -89.765910     -2442.6546
   1   2.0000     -19.612032      -533.6705
   2   2.0000     -19.592452      -533.1377
   3   2.0000     -14.830991      -403.5718
   4   2.0000     -10.672821      -290.4222
   5   2.0000     -10.651015      -289.8288
   6   2.0000     -10.642003      -289.5836
   7   2.0000     -10.636387      -289.4308
   8   2.0000     -10.635326      -289.4019
   9   2.0000     -10.632375      -289.3216
  10   2.0000     -10.615225      -288.8550
  11   2.0000     -10.612140      -288.7710
  12   2.0000     -10.609064      -288.6873
  13   2.0000     -10.608284      -288.6661
  14   2.0000     -10.600172      -288.4454
  15   2.0000     -10.584513      -288.0192
  16   2.0000     -10.547509      -287.0123
  17   2.0000     -10.532145      -286.5942
  18   2.0000     -10.529850      -286.5318
  19   2.0000      -8.404715      -228.7039
  20   2.0000      -6.294633      -171.2857
  21   2.0000      -6.291183      -171.1918
  22   2.0000      -6.289566      -171.1478
  23   2.0000      -4.023252      -109.4783
  24   2.0000      -2.342251       -63.7359
  25   2.0000      -2.307131       -62.7802
  26   2.0000      -2.304593       -62.7112
  27   2.0000      -1.373137       -37.3650
  28   2.0000      -1.188566       -32.3425
  29   2.0000      -1.169035       -31.8111
  30   2.0000      -1.153418       -31.3861
  31   2.0000      -1.114138       -30.3172
  32   2.0000      -1.011458       -27.5232
  33   2.0000      -0.977677       -26.6039
  34   2.0000      -0.974797       -26.5256
  35   2.0000      -0.966131       -26.2898
  36   2.0000      -0.948263       -25.8035
  37   2.0000      -0.910348       -24.7718
  38   2.0000      -0.889872       -24.2147
  39   2.0000      -0.864552       -23.5257
  40   2.0000      -0.793406       -21.5897
  41   2.0000      -0.786497       -21.4017
  42   2.0000      -0.781917       -21.2770
  43   2.0000      -0.772692       -21.0260
  44   2.0000      -0.768036       -20.8993
  45   2.0000      -0.745372       -20.2826
  46   2.0000      -0.723786       -19.6952
  47   2.0000      -0.700940       -19.0735
  48   2.0000      -0.679767       -18.4974
  49   2.0000      -0.672238       -18.2925
  50   2.0000      -0.657476       -17.8908
  51   2.0000      -0.653042       -17.7702
  52   2.0000      -0.649031       -17.6610
  53   2.0000      -0.642944       -17.4954
  54   2.0000      -0.637417       -17.3450
  55   2.0000      -0.630009       -17.1434
  56   2.0000      -0.618641       -16.8341
  57   2.0000      -0.604437       -16.4476
  58   2.0000      -0.603903       -16.4330
  59   2.0000      -0.600923       -16.3519
  60   2.0000      -0.591531       -16.0964
  61   2.0000      -0.586326       -15.9547
  62   2.0000      -0.566336       -15.4108
  63   2.0000      -0.561499       -15.2792
  64   2.0000      -0.553259       -15.0549
  65   2.0000      -0.552502       -15.0343
  66   2.0000      -0.540874       -14.7179
  67   2.0000      -0.538219       -14.6457
  68   2.0000      -0.532117       -14.4797
  69   2.0000      -0.525943       -14.3116
  70   2.0000      -0.518499       -14.1091
  71   2.0000      -0.513575       -13.9751
  72   2.0000      -0.509857       -13.8739
  73   2.0000      -0.496798       -13.5185
  74   2.0000      -0.484381       -13.1807
  75   2.0000      -0.468046       -12.7362
  76   2.0000      -0.459565       -12.5054
  77   2.0000      -0.433676       -11.8009
  78   2.0000      -0.428479       -11.6595
  79   2.0000      -0.418589       -11.3904
  80   2.0000      -0.413140       -11.2421
  81   2.0000      -0.393462       -10.7067
  82   0.0000      -0.227142        -6.1808
  83   0.0000      -0.187985        -5.1153
  84   0.0000      -0.138062        -3.7569
  85   0.0000      -0.083373        -2.2687
  86   0.0000      -0.079494        -2.1631

MULLIKEN ATOMIC CHARGES
-----------------------
   0 Ir:    0.635068
   1 C :   -0.232075
   2 C :   -0.215167
   3 C :   -0.244397
   4 C :   -0.227494
   5 C :   -0.195732
   6 N :   -0.479141
   7 C :   -0.122788
   8 C :   -0.636674
   9 H :    0.242108
  10 H :    0.219779
  11 H :    0.285872
  12 C :   -0.675423
  13 H :    0.263768
  14 H :    0.261229
  15 H :    0.231014
  16 H :    0.250483
  17 C :    0.105355
  18 C :   -0.245337
  19 H :    0.271048
  20 C :   -0.316536
  21 C :   -0.160493
  22 S :    0.341970
  23 C :   -0.397361
  24 H :    0.365443
  25 H :    0.264602
  26 H :    0.298754
  27 H :    0.288076
  28 H :    0.297395
  29 H :    0.283966
  30 O :   -0.284609
  31 O :   -0.605473
  32 C :    0.541604
  33 C :   -0.747936
  34 H :    0.248891
  35 H :    0.255939
  36 H :    0.269459
  37 H :    0.285431
  38 H :    0.279383
Sum of atomic charges:    1.0000000

LOEWDIN ATOMIC CHARGES
----------------------
   0 Ir:   -0.173109
   1 C :   -0.009200
   2 C :   -0.014464
   3 C :   -0.011948
   4 C :   -0.094155
   5 C :   -0.084292
   6 N :   -0.032239
   7 C :   -0.049787
   8 C :   -0.352930
   9 H :    0.145817
  10 H :    0.133890
  11 H :    0.155045
  12 C :   -0.361831
  13 H :    0.146472
  14 H :    0.155095
  15 H :    0.134187
  16 H :    0.138893
  17 C :    0.018378
  18 C :   -0.199065
  19 H :    0.152496
  20 C :   -0.181348
  21 C :   -0.147112
  22 S :    0.492274
  23 C :   -0.263509
  24 H :    0.249622
  25 H :    0.157408
  26 H :    0.170750
  27 H :    0.184283
  28 H :    0.191073
  29 H :    0.180071
  30 O :   -0.069805
  31 O :   -0.330532
  32 C :    0.126305
  33 C :   -0.386445
  34 H :    0.154184
  35 H :    0.161171
  36 H :    0.151352
  37 H :    0.183819
  38 H :    0.179187

  Mayer bond orders larger than 0.100000
B(  0-Ir,  1-C ) :   0.5008 B(  0-Ir,  2-C ) :   0.4525 B(  0-Ir,  3-C ) :   0.4978
B(  0-Ir,  4-C ) :   0.3842 B(  0-Ir,  5-C ) :   0.4579 B(  0-Ir,  6-N ) :   0.4881
B(  0-Ir, 20-C ) :   0.1263 B(  0-Ir, 31-O ) :   0.7234 B(  1-C ,  2-C ) :   1.1426
B(  1-C ,  4-C ) :   1.1721 B(  1-C , 27-H ) :   0.9176 B(  2-C ,  5-C ) :   1.1967
B(  2-C , 28-H ) :   0.9084 B(  3-C ,  4-C ) :   1.1960 B(  3-C ,  5-C ) :   1.1185
B(  3-C , 37-H ) :   0.9149 B(  4-C , 38-H ) :   0.9200 B(  5-C , 29-H ) :   0.9174
B(  6-N ,  7-C ) :   0.8628 B(  6-N , 17-C ) :   1.6309 B(  7-C ,  8-C ) :   0.9826
B(  7-C , 12-C ) :   0.9878 B(  7-C , 13-H ) :   0.8922 B(  8-C ,  9-H ) :   0.9076
B(  8-C , 10-H ) :   0.9203 B(  8-C , 11-H ) :   0.8912 B( 12-C , 14-H ) :   0.9071
B( 12-C , 15-H ) :   0.9123 B( 12-C , 16-H ) :   0.9135 B( 17-C , 18-C ) :   1.1202
B( 17-C , 19-H ) :   0.8813 B( 18-C , 20-C ) :   1.3075 B( 18-C , 22-S ) :   1.2303
B( 20-C , 21-C ) :   1.2859 B( 20-C , 24-H ) :   0.7567 B( 21-C , 23-C ) :   1.5330
B( 21-C , 25-H ) :   0.9019 B( 22-S , 23-C ) :   1.2147 B( 23-C , 26-H ) :   0.8901
B( 30-O , 32-C ) :   2.0020 B( 31-O , 32-C ) :   1.0267 B( 32-C , 33-C ) :   0.9267
B( 33-C , 34-H ) :   0.9088 B( 33-C , 35-H ) :   0.9060 B( 33-C , 36-H ) :   0.9061

Dispersion correction           -0.029281909
FINAL SINGLE POINT ENERGY     -1288.277424513321
Dispersion correction            ... done

DIPOLE MOMENT
-------------
                                X             Y             Z
Electronic contribution:     27.04306     -69.85906     107.47125
Nuclear contribution   :    -27.14551      68.65727    -108.30229
                        -----------------------------------------
Total Dipole Moment    :     -0.10245      -1.20179      -0.83103
                        -----------------------------------------
Magnitude (a.u.)       :      1.46472
Magnitude (Debye)      :      3.72303

Rotational constants in cm-1:     0.010638     0.007764     0.007198
Rotational constants in MHz :   318.921347   232.760006   215.791947

                             ****ORCA TERMINATED NORMALLY****
TOTAL RUN TIME: 0 days 0 hours 18 minutes 59 seconds 489 msec
