                         Program Version 5.0.3 -  RELEASE  -
|  1> ! EnGrad PBEh-3c
|  2> %output
|  3> xyzfile=True
|  4> end
|  5> %scf
|  6> maxiter 250
|  7> end
|  8> %output
|  9> Print[P_Hirshfeld] = 1
| 10> end
| 11> % maxcore
| 12> 4000
| 13> *xyz 1 1
| 14> Ir   0.48245694  -0.71542594   0.83613672
| 15> C   -0.08229231  -2.77349565   1.51849187
| 16> C    0.63210187  -2.09690261   2.54504991
| 17> C    1.97766579  -2.26570159   0.70812703
| 18> C    0.74533349  -2.86188627   0.36954093
| 19> C    1.92630192  -1.80290325   2.05594612
| 20> N   -1.01175427  -0.02383061  -0.44636311
| 21> C   -2.44835077   0.02376496   0.02708823
| 22> C   -2.88321969   1.41531251   0.44741986
| 23> H   -3.92027701   1.38424025   0.78853019
| 24> H   -2.81562079   2.11928460  -0.37888579
| 25> H   -2.31529927   1.77488967   1.28554341
| 26> C   -3.41799534  -0.55734718  -0.99918394
| 27> H   -2.46895064  -0.61379310   0.89815939
| 28> H   -4.39825331  -0.66778004  -0.51798552
| 29> H   -3.57966760   0.09621807  -1.85277653
| 30> H   -3.11645848  -1.53560924  -1.34476683
| 31> C   -0.74959905   0.28228650  -1.66687246
| 32> C    0.55274418   0.20078396  -2.27419623
| 33> H   -1.55946063   0.55998820  -2.31449621
| 34> C    1.82653957   0.13511021  -1.58271051
| 35> C    2.83545480  -0.04749374  -2.58210353
| 36> S    0.72160859   0.15884933  -3.99209676
| 37> C    2.41509860  -0.01084230  -3.87787747
| 38> H    2.17541668   0.99049337  -0.82621746
| 39> H    3.88454217  -0.04409868  -2.31669228
| 40> H    3.03032974  -0.10755655  -4.75513352
| 41> H   -0.94831981  -3.39622682   1.68603567
| 42> H    0.28052038  -1.97896835   3.56898403
| 43> H    2.74496760  -1.42559317   2.61633241
| 44> O    1.85898727   1.83572854   0.61095522
| 45> O    0.09415787   1.04924356   1.83604198
| 46> C    0.92560742   2.05178172   1.46715285
| 47> C    0.79004646   3.40738373   2.09097013
| 48> H    0.83924431   4.16638679   1.30875904
| 49> H    1.66084909   3.57554593   2.73653654
| 50> H   -0.10764507   3.51746406   2.67570843
| 51> H    2.89228447  -2.35618000   0.13667766
| 52> H    0.53051584  -3.46428842  -0.48667423
| 53> *
| 54>
| 55>                          ****END OF INPUT****

CARTESIAN COORDINATES (ANGSTROEM)
---------------------------------
  Ir     0.482457   -0.715426    0.836137
  C     -0.082292   -2.773496    1.518492
  C      0.632102   -2.096903    2.545050
  C      1.977666   -2.265702    0.708127
  C      0.745333   -2.861886    0.369541
  C      1.926302   -1.802903    2.055946
  N     -1.011754   -0.023831   -0.446363
  C     -2.448351    0.023765    0.027088
  C     -2.883220    1.415313    0.447420
  H     -3.920277    1.384240    0.788530
  H     -2.815621    2.119285   -0.378886
  H     -2.315299    1.774890    1.285543
  C     -3.417995   -0.557347   -0.999184
  H     -2.468951   -0.613793    0.898159
  H     -4.398253   -0.667780   -0.517986
  H     -3.579668    0.096218   -1.852777
  H     -3.116458   -1.535609   -1.344767
  C     -0.749599    0.282286   -1.666872
  C      0.552744    0.200784   -2.274196
  H     -1.559461    0.559988   -2.314496
  C      1.826540    0.135110   -1.582711
  C      2.835455   -0.047494   -2.582104
  S      0.721609    0.158849   -3.992097
  C      2.415099   -0.010842   -3.877877
  H      2.175417    0.990493   -0.826217
  H      3.884542   -0.044099   -2.316692
  H      3.030330   -0.107557   -4.755134
  H     -0.948320   -3.396227    1.686036
  H      0.280520   -1.978968    3.568984
  H      2.744968   -1.425593    2.616332
  O      1.858987    1.835729    0.610955
  O      0.094158    1.049244    1.836042
  C      0.925607    2.051782    1.467153
  C      0.790046    3.407384    2.090970
  H      0.839244    4.166387    1.308759
  H      1.660849    3.575546    2.736537
  H     -0.107645    3.517464    2.675708
  H      2.892284   -2.356180    0.136678
  H      0.530516   -3.464288   -0.486674

 Total Charge           Charge          ....    1
 Multiplicity           Mult            ....    1
 Number of Electrons    NEL             ....  164
 Basis Dimension        Dim             ....  358

ORBITAL ENERGIES
----------------

  NO   OCC          E(Eh)            E(eV)
   0   2.0000     -89.758425     -2442.4509
   1   2.0000     -19.620183      -533.8923
   2   2.0000     -19.578586      -532.7604
   3   2.0000     -14.829520      -403.5318
   4   2.0000     -10.685097      -290.7563
   5   2.0000     -10.651598      -289.8447
   6   2.0000     -10.645608      -289.6817
   7   2.0000     -10.640985      -289.5559
   8   2.0000     -10.637988      -289.4744
   9   2.0000     -10.625393      -289.1317
  10   2.0000     -10.621989      -289.0390
  11   2.0000     -10.617306      -288.9116
  12   2.0000     -10.611139      -288.7438
  13   2.0000     -10.603978      -288.5489
  14   2.0000     -10.584976      -288.0318
  15   2.0000     -10.576907      -287.8123
  16   2.0000     -10.548736      -287.0457
  17   2.0000     -10.537359      -286.7361
  18   2.0000     -10.535900      -286.6964
  19   2.0000      -8.397389      -228.5046
  20   2.0000      -6.287326      -171.0868
  21   2.0000      -6.283868      -170.9928
  22   2.0000      -6.282223      -170.9480
  23   2.0000      -4.030324      -109.6707
  24   2.0000      -2.349881       -63.9435
  25   2.0000      -2.313022       -62.9405
  26   2.0000      -2.312347       -62.9222
  27   2.0000      -1.263373       -34.3781
  28   2.0000      -1.191822       -32.4311
  29   2.0000      -1.177062       -32.0295
  30   2.0000      -1.168818       -31.8051
  31   2.0000      -1.110988       -30.2315
  32   2.0000      -1.011975       -27.5372
  33   2.0000      -0.983331       -26.7578
  34   2.0000      -0.981559       -26.7096
  35   2.0000      -0.960416       -26.1342
  36   2.0000      -0.946308       -25.7503
  37   2.0000      -0.927938       -25.2505
  38   2.0000      -0.891110       -24.2483
  39   2.0000      -0.861907       -23.4537
  40   2.0000      -0.791995       -21.5513
  41   2.0000      -0.788135       -21.4462
  42   2.0000      -0.786796       -21.4098
  43   2.0000      -0.777427       -21.1549
  44   2.0000      -0.767323       -20.8799
  45   2.0000      -0.735370       -20.0104
  46   2.0000      -0.728353       -19.8195
  47   2.0000      -0.703974       -19.1561
  48   2.0000      -0.681116       -18.5341
  49   2.0000      -0.657465       -17.8905
  50   2.0000      -0.653247       -17.7758
  51   2.0000      -0.647060       -17.6074
  52   2.0000      -0.640390       -17.4259
  53   2.0000      -0.636661       -17.3244
  54   2.0000      -0.627359       -17.0713
  55   2.0000      -0.621884       -16.9223
  56   2.0000      -0.610429       -16.6106
  57   2.0000      -0.609323       -16.5805
  58   2.0000      -0.607258       -16.5243
  59   2.0000      -0.600072       -16.3288
  60   2.0000      -0.589902       -16.0520
  61   2.0000      -0.584566       -15.9069
  62   2.0000      -0.564832       -15.3699
  63   2.0000      -0.558988       -15.2108
  64   2.0000      -0.553269       -15.0552
  65   2.0000      -0.546586       -14.8734
  66   2.0000      -0.544669       -14.8212
  67   2.0000      -0.540443       -14.7062
  68   2.0000      -0.530447       -14.4342
  69   2.0000      -0.523466       -14.2442
  70   2.0000      -0.518117       -14.0987
  71   2.0000      -0.511879       -13.9289
  72   2.0000      -0.504879       -13.7385
  73   2.0000      -0.503430       -13.6990
  74   2.0000      -0.474451       -12.9105
  75   2.0000      -0.470768       -12.8102
  76   2.0000      -0.456846       -12.4314
  77   2.0000      -0.446585       -12.1522
  78   2.0000      -0.426653       -11.6098
  79   2.0000      -0.418760       -11.3950
  80   2.0000      -0.412057       -11.2126
  81   2.0000      -0.392651       -10.6846
  82   0.0000      -0.226804        -6.1717
  83   0.0000      -0.182609        -4.9690
  84   0.0000      -0.147904        -4.0247
  85   0.0000      -0.081193        -2.2094
  86   0.0000      -0.080475        -2.1898

MULLIKEN ATOMIC CHARGES
-----------------------
   0 Ir:    0.669120
   1 C :   -0.243868
   2 C :   -0.208474
   3 C :   -0.228455
   4 C :   -0.225656
   5 C :   -0.204199
   6 N :   -0.483929
   7 C :   -0.125159
   8 C :   -0.634529
   9 H :    0.245820
  10 H :    0.222978
  11 H :    0.274287
  12 C :   -0.672907
  13 H :    0.259188
  14 H :    0.263853
  15 H :    0.230420
  16 H :    0.247478
  17 C :    0.107124
  18 C :   -0.237570
  19 H :    0.270882
  20 C :   -0.321902
  21 C :   -0.163266
  22 S :    0.330443
  23 C :   -0.400294
  24 H :    0.388012
  25 H :    0.264857
  26 H :    0.296460
  27 H :    0.290198
  28 H :    0.299280
  29 H :    0.291522
  30 O :   -0.517953
  31 O :   -0.560654
  32 C :    0.643330
  33 C :   -0.745786
  34 H :    0.271416
  35 H :    0.274486
  36 H :    0.257918
  37 H :    0.291062
  38 H :    0.284469
Sum of atomic charges:    1.0000000

LOEWDIN ATOMIC CHARGES
----------------------
   0 Ir:   -0.143189
   1 C :   -0.014440
   2 C :   -0.012354
   3 C :   -0.002135
   4 C :   -0.087039
   5 C :   -0.082635
   6 N :   -0.038911
   7 C :   -0.053580
   8 C :   -0.352958
   9 H :    0.146834
  10 H :    0.135245
  11 H :    0.150838
  12 C :   -0.361012
  13 H :    0.144905
  14 H :    0.154980
  15 H :    0.134220
  16 H :    0.138679
  17 C :    0.026902
  18 C :   -0.206234
  19 H :    0.153002
  20 C :   -0.187047
  21 C :   -0.150887
  22 S :    0.482196
  23 C :   -0.262518
  24 H :    0.268027
  25 H :    0.156696
  26 H :    0.169280
  27 H :    0.185398
  28 H :    0.191564
  29 H :    0.185892
  30 O :   -0.318578
  31 O :   -0.252352
  32 C :    0.215012
  33 C :   -0.375828
  34 H :    0.167879
  35 H :    0.172769
  36 H :    0.151290
  37 H :    0.187533
  38 H :    0.182554

  Mayer bond orders larger than 0.100000
B(  0-Ir,  1-C ) :   0.5065 B(  0-Ir,  2-C ) :   0.4630 B(  0-Ir,  3-C ) :   0.5051
B(  0-Ir,  4-C ) :   0.4085 B(  0-Ir,  5-C ) :   0.4503 B(  0-Ir,  6-N ) :   0.4903
B(  0-Ir, 20-C ) :   0.1127 B(  0-Ir, 30-O ) :   0.1323 B(  0-Ir, 31-O ) :   0.6151
B(  1-C ,  2-C ) :   1.1382 B(  1-C ,  4-C ) :   1.1695 B(  1-C , 27-H ) :   0.9168
B(  2-C ,  5-C ) :   1.1924 B(  2-C , 28-H ) :   0.9075 B(  3-C ,  4-C ) :   1.1824
B(  3-C ,  5-C ) :   1.1271 B(  3-C , 37-H ) :   0.9142 B(  4-C , 38-H ) :   0.9171
B(  5-C , 29-H ) :   0.9130 B(  6-N ,  7-C ) :   0.8687 B(  6-N , 17-C ) :   1.6271
B(  7-C ,  8-C ) :   0.9813 B(  7-C , 12-C ) :   0.9881 B(  7-C , 13-H ) :   0.8933
B(  8-C ,  9-H ) :   0.9069 B(  8-C , 10-H ) :   0.9191 B(  8-C , 11-H ) :   0.8979
B( 12-C , 14-H ) :   0.9057 B( 12-C , 15-H ) :   0.9123 B( 12-C , 16-H ) :   0.9151
B( 17-C , 18-C ) :   1.1169 B( 17-C , 19-H ) :   0.8808 B( 18-C , 20-C ) :   1.3253
B( 18-C , 22-S ) :   1.2078 B( 20-C , 21-C ) :   1.2889 B( 20-C , 24-H ) :   0.7209
B( 21-C , 23-C ) :   1.5168 B( 21-C , 25-H ) :   0.9026 B( 22-S , 23-C ) :   1.2304
B( 23-C , 26-H ) :   0.8909 B( 30-O , 32-C ) :   1.6702 B( 31-O , 32-C ) :   1.2165
B( 32-C , 33-C ) :   0.9553 B( 33-C , 34-H ) :   0.8996 B( 33-C , 35-H ) :   0.8948
B( 33-C , 36-H ) :   0.9051

Dispersion correction           -0.029263231
FINAL SINGLE POINT ENERGY     -1288.332842853956
Dispersion correction            ... done

DIPOLE MOMENT
-------------
                                X             Y             Z
Electronic contribution:     26.18997     -70.67888     108.29159
Nuclear contribution   :    -26.62124      69.30709    -108.68019
                        -----------------------------------------
Total Dipole Moment    :     -0.43127      -1.37179      -0.38860
                        -----------------------------------------
Magnitude (a.u.)       :      1.48956
Magnitude (Debye)      :      3.78617

Rotational constants in cm-1:     0.010637     0.007764     0.007197
Rotational constants in MHz :   318.886112   232.763673   215.752148

                             ****ORCA TERMINATED NORMALLY****
TOTAL RUN TIME: 0 days 0 hours 23 minutes 35 seconds 881 msec
