                         Program Version 5.0.3 -  RELEASE  -
|  1> ! EnGrad PBEh-3c
|  2> %output
|  3> xyzfile=True
|  4> end
|  5> %scf
|  6> maxiter 250
|  7> end
|  8> %output
|  9> Print[P_Hirshfeld] = 1
| 10> end
| 11> % maxcore
| 12> 4000
| 13> *xyz 1 1
| 14> Ir   0.48152933  -0.71646459   0.84064401
| 15> C   -0.07988143  -2.77578718   1.51310961
| 16> C    0.63273786  -2.09668135   2.54616409
| 17> C    1.98415478  -2.27310255   0.71440662
| 18> C    0.74935855  -2.86365930   0.37218390
| 19> C    1.92148196  -1.80338373   2.05726552
| 20> N   -1.01419616  -0.02622215  -0.44994415
| 21> C   -2.44844054   0.02419578   0.02541375
| 22> C   -2.88401129   1.41460255   0.45038409
| 23> H   -3.92012348   1.38151602   0.78824523
| 24> H   -2.81522691   2.11986760  -0.37571259
| 25> H   -2.31058795   1.77365982   1.29021568
| 26> C   -3.42044307  -0.55586662  -0.99769164
| 27> H   -2.46873699  -0.61826301   0.89959851
| 28> H   -4.39656692  -0.66700107  -0.51868816
| 29> H   -3.58018631   0.09875018  -1.85300786
| 30> H   -3.11686099  -1.53692173  -1.34838233
| 31> C   -0.74804903   0.28192639  -1.66800428
| 32> C    0.56339070   0.19914459  -2.26429197
| 33> H   -1.56472048   0.56135148  -2.31674423
| 34> C    1.82762665   0.16411944  -1.58732559
| 35> C    2.83603409  -0.04961095  -2.57737043
| 36> S    0.72058355   0.15663373  -3.98909819
| 37> C    2.41221806  -0.01345172  -3.87638324
| 38> H    2.15847921   0.96381620  -0.83055082
| 39> H    3.88306905  -0.04668571  -2.31570479
| 40> H    3.03026179  -0.10569889  -4.75600501
| 41> H   -0.95440594  -3.39055827   1.67927921
| 42> H    0.27519300  -1.97558553   3.56391776
| 43> H    2.74604814  -1.41967047   2.62418054
| 44> O    1.85763667   1.84185460   0.61419201
| 45> O    0.10448665   1.05966836   1.82943191
| 46> C    0.92762969   2.03622747   1.46289580
| 47> C    0.79287811   3.40515168   2.08843478
| 48> H    0.83871945   4.16698145   1.30840956
| 49> H    1.66020529   3.57558097   2.73401874
| 50> H   -0.10962415   3.51848903   2.67649199
| 51> H    2.89302263  -2.34734849   0.13789397
| 52> H    0.53479503  -3.46279766  -0.49294485
| 53> *
| 54>
| 55>                          ****END OF INPUT****

CARTESIAN COORDINATES (ANGSTROEM)
---------------------------------
  Ir     0.481529   -0.716465    0.840644
  C     -0.079881   -2.775787    1.513110
  C      0.632738   -2.096681    2.546164
  C      1.984155   -2.273103    0.714407
  C      0.749359   -2.863659    0.372184
  C      1.921482   -1.803384    2.057266
  N     -1.014196   -0.026222   -0.449944
  C     -2.448441    0.024196    0.025414
  C     -2.884011    1.414603    0.450384
  H     -3.920123    1.381516    0.788245
  H     -2.815227    2.119868   -0.375713
  H     -2.310588    1.773660    1.290216
  C     -3.420443   -0.555867   -0.997692
  H     -2.468737   -0.618263    0.899599
  H     -4.396567   -0.667001   -0.518688
  H     -3.580186    0.098750   -1.853008
  H     -3.116861   -1.536922   -1.348382
  C     -0.748049    0.281926   -1.668004
  C      0.563391    0.199145   -2.264292
  H     -1.564720    0.561351   -2.316744
  C      1.827627    0.164119   -1.587326
  C      2.836034   -0.049611   -2.577370
  S      0.720584    0.156634   -3.989098
  C      2.412218   -0.013452   -3.876383
  H      2.158479    0.963816   -0.830551
  H      3.883069   -0.046686   -2.315705
  H      3.030262   -0.105699   -4.756005
  H     -0.954406   -3.390558    1.679279
  H      0.275193   -1.975586    3.563918
  H      2.746048   -1.419670    2.624181
  O      1.857637    1.841855    0.614192
  O      0.104487    1.059668    1.829432
  C      0.927630    2.036227    1.462896
  C      0.792878    3.405152    2.088435
  H      0.838719    4.166981    1.308410
  H      1.660205    3.575581    2.734019
  H     -0.109624    3.518489    2.676492
  H      2.893023   -2.347348    0.137894
  H      0.534795   -3.462798   -0.492945

 Total Charge           Charge          ....    1
 Multiplicity           Mult            ....    1
 Number of Electrons    NEL             ....  164
 Basis Dimension        Dim             ....  358

ORBITAL ENERGIES
----------------

  NO   OCC          E(Eh)            E(eV)
   0   2.0000     -89.757118     -2442.4154
   1   2.0000     -19.621419      -533.9259
   2   2.0000     -19.575108      -532.6658
   3   2.0000     -14.830005      -403.5450
   4   2.0000     -10.680460      -290.6301
   5   2.0000     -10.653081      -289.8851
   6   2.0000     -10.647720      -289.7392
   7   2.0000     -10.642681      -289.6021
   8   2.0000     -10.640669      -289.5473
   9   2.0000     -10.624586      -289.1097
  10   2.0000     -10.624452      -289.1060
  11   2.0000     -10.619844      -288.9806
  12   2.0000     -10.612190      -288.7724
  13   2.0000     -10.604498      -288.5631
  14   2.0000     -10.582176      -287.9556
  15   2.0000     -10.576192      -287.7928
  16   2.0000     -10.549442      -287.0649
  17   2.0000     -10.536796      -286.7208
  18   2.0000     -10.534203      -286.6502
  19   2.0000      -8.396118      -228.4700
  20   2.0000      -6.286101      -171.0535
  21   2.0000      -6.282632      -170.9591
  22   2.0000      -6.280860      -170.9109
  23   2.0000      -4.032108      -109.7192
  24   2.0000      -2.351800       -63.9957
  25   2.0000      -2.314729       -62.9870
  26   2.0000      -2.314115       -62.9703
  27   2.0000      -1.271864       -34.6092
  28   2.0000      -1.192995       -32.4630
  29   2.0000      -1.180310       -32.1179
  30   2.0000      -1.174347       -31.9556
  31   2.0000      -1.111565       -30.2472
  32   2.0000      -1.012302       -27.5461
  33   2.0000      -0.985816       -26.8254
  34   2.0000      -0.983884       -26.7729
  35   2.0000      -0.959524       -26.1100
  36   2.0000      -0.948726       -25.8161
  37   2.0000      -0.921079       -25.0638
  38   2.0000      -0.891352       -24.2549
  39   2.0000      -0.861929       -23.4543
  40   2.0000      -0.792081       -21.5536
  41   2.0000      -0.790109       -21.5000
  42   2.0000      -0.788386       -21.4531
  43   2.0000      -0.778879       -21.1944
  44   2.0000      -0.767884       -20.8952
  45   2.0000      -0.736255       -20.0345
  46   2.0000      -0.729720       -19.8567
  47   2.0000      -0.707176       -19.2432
  48   2.0000      -0.681623       -18.5479
  49   2.0000      -0.656848       -17.8737
  50   2.0000      -0.653654       -17.7868
  51   2.0000      -0.648773       -17.6540
  52   2.0000      -0.641447       -17.4547
  53   2.0000      -0.637771       -17.3546
  54   2.0000      -0.628371       -17.0989
  55   2.0000      -0.623173       -16.9574
  56   2.0000      -0.612325       -16.6622
  57   2.0000      -0.611065       -16.6279
  58   2.0000      -0.608225       -16.5506
  59   2.0000      -0.600218       -16.3328
  60   2.0000      -0.589830       -16.0501
  61   2.0000      -0.585627       -15.9357
  62   2.0000      -0.565293       -15.3824
  63   2.0000      -0.559394       -15.2219
  64   2.0000      -0.554140       -15.0789
  65   2.0000      -0.547705       -14.9038
  66   2.0000      -0.544805       -14.8249
  67   2.0000      -0.541219       -14.7273
  68   2.0000      -0.530923       -14.4471
  69   2.0000      -0.523176       -14.2363
  70   2.0000      -0.520694       -14.1688
  71   2.0000      -0.512691       -13.9510
  72   2.0000      -0.505435       -13.7536
  73   2.0000      -0.504561       -13.7298
  74   2.0000      -0.476181       -12.9576
  75   2.0000      -0.471853       -12.8398
  76   2.0000      -0.457699       -12.4546
  77   2.0000      -0.448082       -12.1929
  78   2.0000      -0.428119       -11.6497
  79   2.0000      -0.419172       -11.4062
  80   2.0000      -0.411979       -11.2105
  81   2.0000      -0.393840       -10.7169
  82   0.0000      -0.228338        -6.2134
  83   0.0000      -0.181436        -4.9371
  84   0.0000      -0.150175        -4.0865
  85   0.0000      -0.082208        -2.2370
  86   0.0000      -0.081917        -2.2291

MULLIKEN ATOMIC CHARGES
-----------------------
   0 Ir:    0.660602
   1 C :   -0.242920
   2 C :   -0.205221
   3 C :   -0.218114
   4 C :   -0.228447
   5 C :   -0.213049
   6 N :   -0.481652
   7 C :   -0.125685
   8 C :   -0.633309
   9 H :    0.246534
  10 H :    0.223268
  11 H :    0.273659
  12 C :   -0.672079
  13 H :    0.257376
  14 H :    0.265258
  15 H :    0.229953
  16 H :    0.246125
  17 C :    0.103173
  18 C :   -0.244077
  19 H :    0.271950
  20 C :   -0.312965
  21 C :   -0.166911
  22 S :    0.326450
  23 C :   -0.399917
  24 H :    0.393441
  25 H :    0.264380
  26 H :    0.296544
  27 H :    0.291298
  28 H :    0.300550
  29 H :    0.293606
  30 O :   -0.512291
  31 O :   -0.550343
  32 C :    0.634904
  33 C :   -0.744821
  34 H :    0.269126
  35 H :    0.271895
  36 H :    0.252547
  37 H :    0.292966
  38 H :    0.286200
Sum of atomic charges:    1.0000000

LOEWDIN ATOMIC CHARGES
----------------------
   0 Ir:   -0.139241
   1 C :   -0.013513
   2 C :   -0.011356
   3 C :    0.001269
   4 C :   -0.086654
   5 C :   -0.083388
   6 N :   -0.040750
   7 C :   -0.054390
   8 C :   -0.352643
   9 H :    0.147029
  10 H :    0.135475
  11 H :    0.151186
  12 C :   -0.360865
  13 H :    0.144350
  14 H :    0.155012
  15 H :    0.134117
  16 H :    0.138591
  17 C :    0.028256
  18 C :   -0.205672
  19 H :    0.153752
  20 C :   -0.178640
  21 C :   -0.151467
  22 S :    0.477121
  23 C :   -0.260703
  24 H :    0.255514
  25 H :    0.156415
  26 H :    0.169423
  27 H :    0.186053
  28 H :    0.191950
  29 H :    0.187753
  30 O :   -0.311776
  31 O :   -0.236810
  32 C :    0.196172
  33 C :   -0.377350
  34 H :    0.165590
  35 H :    0.169948
  36 H :    0.148526
  37 H :    0.187921
  38 H :    0.183798

  Mayer bond orders larger than 0.100000
B(  0-Ir,  1-C ) :   0.5081 B(  0-Ir,  2-C ) :   0.4678 B(  0-Ir,  3-C ) :   0.5035
B(  0-Ir,  4-C ) :   0.4071 B(  0-Ir,  5-C ) :   0.4492 B(  0-Ir,  6-N ) :   0.4899
B(  0-Ir, 20-C ) :   0.1026 B(  0-Ir, 30-O ) :   0.1376 B(  0-Ir, 31-O ) :   0.6108
B(  1-C ,  2-C ) :   1.1342 B(  1-C ,  4-C ) :   1.1709 B(  1-C , 27-H ) :   0.9161
B(  2-C ,  5-C ) :   1.1929 B(  2-C , 28-H ) :   0.9070 B(  3-C ,  4-C ) :   1.1834
B(  3-C ,  5-C ) :   1.1284 B(  3-C , 37-H ) :   0.9125 B(  4-C , 38-H ) :   0.9160
B(  5-C , 29-H ) :   0.9118 B(  6-N ,  7-C ) :   0.8691 B(  6-N , 17-C ) :   1.6317
B(  7-C ,  8-C ) :   0.9807 B(  7-C , 12-C ) :   0.9873 B(  7-C , 13-H ) :   0.8936
B(  8-C ,  9-H ) :   0.9064 B(  8-C , 10-H ) :   0.9188 B(  8-C , 11-H ) :   0.8984
B( 12-C , 14-H ) :   0.9050 B( 12-C , 15-H ) :   0.9122 B( 12-C , 16-H ) :   0.9158
B( 17-C , 18-C ) :   1.1114 B( 17-C , 19-H ) :   0.8800 B( 18-C , 20-C ) :   1.3492
B( 18-C , 22-S ) :   1.1995 B( 20-C , 21-C ) :   1.2892 B( 20-C , 24-H ) :   0.7274
B( 21-C , 23-C ) :   1.5179 B( 21-C , 25-H ) :   0.9033 B( 22-S , 23-C ) :   1.2318
B( 23-C , 26-H ) :   0.8910 B( 30-O , 32-C ) :   1.6777 B( 31-O , 32-C ) :   1.2356
B( 32-C , 33-C ) :   0.9492 B( 33-C , 34-H ) :   0.9017 B( 33-C , 35-H ) :   0.8972
B( 33-C , 36-H ) :   0.9076

Dispersion correction           -0.029254547
FINAL SINGLE POINT ENERGY     -1288.345100814608
Dispersion correction            ... done

DIPOLE MOMENT
-------------
                                X             Y             Z
Electronic contribution:     26.01554     -70.93329     108.71291
Nuclear contribution   :    -26.47128      69.42517    -109.08754
                        -----------------------------------------
Total Dipole Moment    :     -0.45574      -1.50812      -0.37463
                        -----------------------------------------
Magnitude (a.u.)       :      1.61940
Magnitude (Debye)      :      4.11620

Rotational constants in cm-1:     0.010633     0.007764     0.007198
Rotational constants in MHz :   318.774144   232.767011   215.804694

                             ****ORCA TERMINATED NORMALLY****
TOTAL RUN TIME: 0 days 0 hours 23 minutes 37 seconds 808 msec
