                         Program Version 5.0.3 -  RELEASE  -
|  1> ! EnGrad PBEh-3c
|  2> %output
|  3> xyzfile=True
|  4> end
|  5> %scf
|  6> maxiter 250
|  7> end
|  8> %output
|  9> Print[P_Hirshfeld] = 1
| 10> end
| 11> % maxcore
| 12> 4000
| 13> *xyz 1 1
| 14> Ir   0.47287794  -0.72691915   0.86637894
| 15> C   -0.07241504  -2.78672835   1.49383143
| 16> C    0.62528815  -2.09977235   2.54347055
| 17> C    2.01259498  -2.30968127   0.74999117
| 18> C    0.77769154  -2.88119818   0.37222454
| 19> C    1.91996284  -1.79717837   2.07947834
| 20> N   -1.02692721  -0.03967356  -0.46561326
| 21> C   -2.44883661   0.01983659   0.02278186
| 22> C   -2.88097730   1.41146476   0.46967312
| 23> H   -3.92122556   1.36551238   0.78888041
| 24> H   -2.81285247   2.12303971  -0.35495633
| 25> H   -2.28696892   1.76392262   1.31397023
| 26> C   -3.42765686  -0.55118973  -0.99761312
| 27> H   -2.46752068  -0.64027606   0.90143240
| 28> H   -4.39256829  -0.66287862  -0.52019369
| 29> H   -3.58375171   0.11289588  -1.85227416
| 30> H   -3.12168911  -1.53786447  -1.36758076
| 31> C   -0.74043312   0.28159323  -1.67720035
| 32> C    0.60058819   0.20006851  -2.21804184
| 33> H   -1.58602061   0.56666940  -2.32682267
| 34> C    1.83393848   0.29590232  -1.63352098
| 35> C    2.83528248  -0.05205663  -2.56276379
| 36> S    0.71579789   0.14144269  -3.96587645
| 37> C    2.40383522  -0.03177648  -3.86256140
| 38> H    2.07012577   0.83135211  -0.83418530
| 39> H    3.87895318  -0.06220739  -2.30810592
| 40> H    3.02663128  -0.09564959  -4.75611575
| 41> H   -0.98698659  -3.35525417   1.63638372
| 42> H    0.24142306  -1.95513563   3.53839315
| 43> H    2.73753124  -1.39057243   2.66215087
| 44> O    1.86793467   1.86171879   0.61400895
| 45> O    0.14886004   1.08820016   1.79479667
| 46> C    0.93867563   2.00573974   1.45574412
| 47> C    0.79919919   3.38325828   2.07380224
| 48> H    0.83584547   4.16860442   1.30529102
| 49> H    1.65929321   3.57568008   2.72040954
| 50> H   -0.11310622   3.52275498   2.67566805
| 51> H    2.90321874  -2.29657494   0.14482786
| 52> H    0.56341010  -3.44886048  -0.52285018
| 53> *
| 54>
| 55>                          ****END OF INPUT****

CARTESIAN COORDINATES (ANGSTROEM)
---------------------------------
  Ir     0.472878   -0.726919    0.866379
  C     -0.072415   -2.786728    1.493831
  C      0.625288   -2.099772    2.543471
  C      2.012595   -2.309681    0.749991
  C      0.777692   -2.881198    0.372225
  C      1.919963   -1.797178    2.079478
  N     -1.026927   -0.039674   -0.465613
  C     -2.448837    0.019837    0.022782
  C     -2.880977    1.411465    0.469673
  H     -3.921226    1.365512    0.788880
  H     -2.812852    2.123040   -0.354956
  H     -2.286969    1.763923    1.313970
  C     -3.427657   -0.551190   -0.997613
  H     -2.467521   -0.640276    0.901432
  H     -4.392568   -0.662879   -0.520194
  H     -3.583752    0.112896   -1.852274
  H     -3.121689   -1.537864   -1.367581
  C     -0.740433    0.281593   -1.677200
  C      0.600588    0.200069   -2.218042
  H     -1.586021    0.566669   -2.326823
  C      1.833938    0.295902   -1.633521
  C      2.835282   -0.052057   -2.562764
  S      0.715798    0.141443   -3.965876
  C      2.403835   -0.031776   -3.862561
  H      2.070126    0.831352   -0.834185
  H      3.878953   -0.062207   -2.308106
  H      3.026631   -0.095650   -4.756116
  H     -0.986987   -3.355254    1.636384
  H      0.241423   -1.955136    3.538393
  H      2.737531   -1.390572    2.662151
  O      1.867935    1.861719    0.614009
  O      0.148860    1.088200    1.794797
  C      0.938676    2.005740    1.455744
  C      0.799199    3.383258    2.073802
  H      0.835845    4.168604    1.305291
  H      1.659293    3.575680    2.720410
  H     -0.113106    3.522755    2.675668
  H      2.903219   -2.296575    0.144828
  H      0.563410   -3.448860   -0.522850

 Total Charge           Charge          ....    1
 Multiplicity           Mult            ....    1
 Number of Electrons    NEL             ....  164
 Basis Dimension        Dim             ....  358

ORBITAL ENERGIES
----------------

  NO   OCC          E(Eh)            E(eV)
   0   2.0000     -89.747305     -2442.1483
   1   2.0000     -19.626885      -534.0747
   2   2.0000     -19.563153      -532.3405
   3   2.0000     -14.830577      -403.5605
   4   2.0000     -10.669059      -290.3198
   5   2.0000     -10.658092      -290.0214
   6   2.0000     -10.655502      -289.9509
   7   2.0000     -10.652614      -289.8724
   8   2.0000     -10.649006      -289.7742
   9   2.0000     -10.635157      -289.3973
  10   2.0000     -10.630104      -289.2598
  11   2.0000     -10.615615      -288.8656
  12   2.0000     -10.615539      -288.8635
  13   2.0000     -10.603675      -288.5407
  14   2.0000     -10.570225      -287.6304
  15   2.0000     -10.567747      -287.5630
  16   2.0000     -10.551747      -287.1276
  17   2.0000     -10.540980      -286.8346
  18   2.0000     -10.528143      -286.4853
  19   2.0000      -8.386618      -228.2115
  20   2.0000      -6.276762      -170.7994
  21   2.0000      -6.273281      -170.7046
  22   2.0000      -6.270999      -170.6425
  23   2.0000      -4.038879      -109.9035
  24   2.0000      -2.358773       -64.1855
  25   2.0000      -2.321220       -63.1636
  26   2.0000      -2.320853       -63.1536
  27   2.0000      -1.299467       -35.3603
  28   2.0000      -1.194739       -32.5105
  29   2.0000      -1.186407       -32.2838
  30   2.0000      -1.182648       -32.1815
  31   2.0000      -1.115263       -30.3479
  32   2.0000      -1.013004       -27.5652
  33   2.0000      -0.994521       -27.0623
  34   2.0000      -0.990350       -26.9488
  35   2.0000      -0.958587       -26.0845
  36   2.0000      -0.954293       -25.9676
  37   2.0000      -0.910574       -24.7780
  38   2.0000      -0.891923       -24.2705
  39   2.0000      -0.862621       -23.4731
  40   2.0000      -0.798279       -21.7223
  41   2.0000      -0.796825       -21.6827
  42   2.0000      -0.789845       -21.4928
  43   2.0000      -0.784292       -21.3417
  44   2.0000      -0.767810       -20.8932
  45   2.0000      -0.745082       -20.2747
  46   2.0000      -0.736942       -20.0532
  47   2.0000      -0.720677       -19.6106
  48   2.0000      -0.682821       -18.5805
  49   2.0000      -0.658661       -17.9231
  50   2.0000      -0.656123       -17.8540
  51   2.0000      -0.653145       -17.7730
  52   2.0000      -0.642616       -17.4865
  53   2.0000      -0.640614       -17.4320
  54   2.0000      -0.633490       -17.2381
  55   2.0000      -0.628767       -17.1096
  56   2.0000      -0.619958       -16.8699
  57   2.0000      -0.617825       -16.8119
  58   2.0000      -0.613077       -16.6827
  59   2.0000      -0.602590       -16.3973
  60   2.0000      -0.591575       -16.0976
  61   2.0000      -0.588280       -16.0079
  62   2.0000      -0.569415       -15.4946
  63   2.0000      -0.565815       -15.3966
  64   2.0000      -0.558187       -15.1890
  65   2.0000      -0.545284       -14.8379
  66   2.0000      -0.542894       -14.7729
  67   2.0000      -0.541406       -14.7324
  68   2.0000      -0.531758       -14.4699
  69   2.0000      -0.525168       -14.2905
  70   2.0000      -0.522035       -14.2053
  71   2.0000      -0.517702       -14.0874
  72   2.0000      -0.508506       -13.8372
  73   2.0000      -0.504838       -13.7373
  74   2.0000      -0.479349       -13.0438
  75   2.0000      -0.473876       -12.8948
  76   2.0000      -0.459375       -12.5002
  77   2.0000      -0.454514       -12.3680
  78   2.0000      -0.431327       -11.7370
  79   2.0000      -0.417198       -11.3525
  80   2.0000      -0.410125       -11.1601
  81   2.0000      -0.396849       -10.7988
  82   0.0000      -0.233743        -6.3605
  83   0.0000      -0.175064        -4.7637
  84   0.0000      -0.155991        -4.2447
  85   0.0000      -0.087915        -2.3923
  86   0.0000      -0.086883        -2.3642

MULLIKEN ATOMIC CHARGES
-----------------------
   0 Ir:    0.628995
   1 C :   -0.238674
   2 C :   -0.202278
   3 C :   -0.178681
   4 C :   -0.237125
   5 C :   -0.239674
   6 N :   -0.471880
   7 C :   -0.127164
   8 C :   -0.627880
   9 H :    0.247110
  10 H :    0.224893
  11 H :    0.270272
  12 C :   -0.669968
  13 H :    0.251049
  14 H :    0.267834
  15 H :    0.229262
  16 H :    0.243090
  17 C :    0.072885
  18 C :   -0.273746
  19 H :    0.276306
  20 C :   -0.259988
  21 C :   -0.174428
  22 S :    0.301848
  23 C :   -0.406824
  24 H :    0.422841
  25 H :    0.262161
  26 H :    0.296628
  27 H :    0.295648
  28 H :    0.305261
  29 H :    0.300144
  30 O :   -0.506517
  31 O :   -0.513645
  32 C :    0.614120
  33 C :   -0.751862
  34 H :    0.266705
  35 H :    0.268258
  36 H :    0.239938
  37 H :    0.301635
  38 H :    0.293451
Sum of atomic charges:    1.0000000

LOEWDIN ATOMIC CHARGES
----------------------
   0 Ir:   -0.121327
   1 C :   -0.011787
   2 C :   -0.010256
   3 C :    0.015847
   4 C :   -0.083546
   5 C :   -0.082473
   6 N :   -0.050334
   7 C :   -0.057806
   8 C :   -0.351010
   9 H :    0.147310
  10 H :    0.136357
  11 H :    0.151750
  12 C :   -0.360690
  13 H :    0.142060
  14 H :    0.154549
  15 H :    0.134118
  16 H :    0.138627
  17 C :    0.033520
  18 C :   -0.208893
  19 H :    0.157592
  20 C :   -0.134386
  21 C :   -0.160418
  22 S :    0.450052
  23 C :   -0.249673
  24 H :    0.200600
  25 H :    0.156007
  26 H :    0.169640
  27 H :    0.188385
  28 H :    0.192818
  29 H :    0.192729
  30 O :   -0.307134
  31 O :   -0.183516
  32 C :    0.144233
  33 C :   -0.381654
  34 H :    0.163085
  35 H :    0.165821
  36 H :    0.142228
  37 H :    0.189418
  38 H :    0.188156

  Mayer bond orders larger than 0.100000
B(  0-Ir,  1-C ) :   0.5166 B(  0-Ir,  2-C ) :   0.4953 B(  0-Ir,  3-C ) :   0.4889
B(  0-Ir,  4-C ) :   0.4035 B(  0-Ir,  5-C ) :   0.4509 B(  0-Ir,  6-N ) :   0.4882
B(  0-Ir, 30-O ) :   0.1593 B(  0-Ir, 31-O ) :   0.5952 B(  1-C ,  2-C ) :   1.1183
B(  1-C ,  4-C ) :   1.1714 B(  1-C , 27-H ) :   0.9131 B(  2-C ,  5-C ) :   1.1873
B(  2-C , 28-H ) :   0.9043 B(  3-C ,  4-C ) :   1.1892 B(  3-C ,  5-C ) :   1.1347
B(  3-C , 37-H ) :   0.9022 B(  4-C , 38-H ) :   0.9119 B(  5-C , 29-H ) :   0.9093
B(  6-N ,  7-C ) :   0.8718 B(  6-N , 17-C ) :   1.6490 B(  7-C ,  8-C ) :   0.9781
B(  7-C , 12-C ) :   0.9848 B(  7-C , 13-H ) :   0.8944 B(  8-C ,  9-H ) :   0.9055
B(  8-C , 10-H ) :   0.9174 B(  8-C , 11-H ) :   0.9003 B( 12-C , 14-H ) :   0.9036
B( 12-C , 15-H ) :   0.9118 B( 12-C , 16-H ) :   0.9173 B( 17-C , 18-C ) :   1.0970
B( 17-C , 19-H ) :   0.8771 B( 18-C , 20-C ) :   1.4358 B( 18-C , 22-S ) :   1.1618
B( 20-C , 21-C ) :   1.2993 B( 20-C , 24-H ) :   0.7199 B( 21-C , 23-C ) :   1.5092
B( 21-C , 25-H ) :   0.9055 B( 22-S , 23-C ) :   1.2435 B( 23-C , 26-H ) :   0.8916
B( 24-H , 30-O ) :   0.1032 B( 30-O , 32-C ) :   1.6815 B( 31-O , 32-C ) :   1.3034
B( 32-C , 33-C ) :   0.9368 B( 33-C , 34-H ) :   0.9047 B( 33-C , 35-H ) :   0.8999
B( 33-C , 36-H ) :   0.9124

Dispersion correction           -0.029221138
FINAL SINGLE POINT ENERGY     -1288.354773609833
Dispersion correction            ... done

DIPOLE MOMENT
-------------
                                X             Y             Z
Electronic contribution:     24.73216     -72.29017     111.27134
Nuclear contribution   :    -25.29164      70.42847    -111.44832
                        -----------------------------------------
Total Dipole Moment    :     -0.55948      -1.86170      -0.17697
                        -----------------------------------------
Magnitude (a.u.)       :      1.95199
Magnitude (Debye)      :      4.96157

Rotational constants in cm-1:     0.010607     0.007756     0.007203
Rotational constants in MHz :   317.987055   232.522922   215.926134

                             ****ORCA TERMINATED NORMALLY****
TOTAL RUN TIME: 0 days 0 hours 24 minutes 32 seconds 607 msec
