                         Program Version 5.0.3 -  RELEASE  -
|  1> ! EnGrad PBEh-3c
|  2> %output
|  3> xyzfile=True
|  4> end
|  5> %scf
|  6> maxiter 250
|  7> end
|  8> %output
|  9> Print[P_Hirshfeld] = 1
| 10> end
| 11> % maxcore
| 12> 4000
| 13> *xyz 1 1
| 14> Ir   0.46544733  -0.74451233   0.87788098
| 15> C   -0.07030633  -2.78882785   1.48343366
| 16> C    0.62295928  -2.09826274   2.54340410
| 17> C    2.02865836  -2.31314030   0.76207024
| 18> C    0.79126000  -2.88889927   0.37870180
| 19> C    1.91333992  -1.80096097   2.08687594
| 20> N   -1.03092145  -0.04373208  -0.46733928
| 21> C   -2.44208401   0.01405002   0.01753803
| 22> C   -2.87771536   1.40496893   0.47688402
| 23> H   -3.92071704   1.35948913   0.79119115
| 24> H   -2.81094800   2.12490235  -0.34331247
| 25> H   -2.27787016   1.75931662   1.32407237
| 26> C   -3.43021488  -0.54800323  -0.99700880
| 27> H   -2.46748383  -0.64868614   0.89978503
| 28> H   -4.39341459  -0.66190343  -0.52099010
| 29> H   -3.58533282   0.11914211  -1.85129116
| 30> H   -3.12449114  -1.53556248  -1.37603863
| 31> C   -0.73773901   0.27899351  -1.67168018
| 32> C    0.59659090   0.21684249  -2.20858323
| 33> H   -1.58740676   0.56786764  -2.33154572
| 34> C    1.81435646   0.29367942  -1.72992833
| 35> C    2.84270520  -0.03403155  -2.55895338
| 36> S    0.71783088   0.12773696  -3.94649580
| 37> C    2.40221698  -0.04532951  -3.85733901
| 38> H    2.05054329   0.80924124  -0.77099153
| 39> H    3.87999776  -0.06995393  -2.30526000
| 40> H    3.02122752  -0.09339161  -4.75116330
| 41> H   -1.00261912  -3.33410124   1.61323318
| 42> H    0.22326304  -1.94417175   3.52697405
| 43> H    2.73386047  -1.37514005   2.68107309
| 44> O    1.84521729   1.86680576   0.64304488
| 45> O    0.16948357   1.08939505   1.77868846
| 46> C    0.96955147   2.01100428   1.42806779
| 47> C    0.80027207   3.37774961   2.07015547
| 48> H    0.83398683   4.16356770   1.30532505
| 49> H    1.65773311   3.57482535   2.71338635
| 50> H   -0.11008298   3.52095917   2.67139472
| 51> H    2.90885127  -2.27278862   0.14917234
| 52> H    0.57891262  -3.44098178  -0.53847872
| 53> *
| 54>
| 55>                          ****END OF INPUT****

CARTESIAN COORDINATES (ANGSTROEM)
---------------------------------
  Ir     0.465447   -0.744512    0.877881
  C     -0.070306   -2.788828    1.483434
  C      0.622959   -2.098263    2.543404
  C      2.028658   -2.313140    0.762070
  C      0.791260   -2.888899    0.378702
  C      1.913340   -1.800961    2.086876
  N     -1.030921   -0.043732   -0.467339
  C     -2.442084    0.014050    0.017538
  C     -2.877715    1.404969    0.476884
  H     -3.920717    1.359489    0.791191
  H     -2.810948    2.124902   -0.343312
  H     -2.277870    1.759317    1.324072
  C     -3.430215   -0.548003   -0.997009
  H     -2.467484   -0.648686    0.899785
  H     -4.393415   -0.661903   -0.520990
  H     -3.585333    0.119142   -1.851291
  H     -3.124491   -1.535562   -1.376039
  C     -0.737739    0.278994   -1.671680
  C      0.596591    0.216842   -2.208583
  H     -1.587407    0.567868   -2.331546
  C      1.814356    0.293679   -1.729928
  C      2.842705   -0.034032   -2.558953
  S      0.717831    0.127737   -3.946496
  C      2.402217   -0.045330   -3.857339
  H      2.050543    0.809241   -0.770992
  H      3.879998   -0.069954   -2.305260
  H      3.021228   -0.093392   -4.751163
  H     -1.002619   -3.334101    1.613233
  H      0.223263   -1.944172    3.526974
  H      2.733860   -1.375140    2.681073
  O      1.845217    1.866806    0.643045
  O      0.169484    1.089395    1.778688
  C      0.969551    2.011004    1.428068
  C      0.800272    3.377750    2.070155
  H      0.833987    4.163568    1.305325
  H      1.657733    3.574825    2.713386
  H     -0.110083    3.520959    2.671395
  H      2.908851   -2.272789    0.149172
  H      0.578913   -3.440982   -0.538479

 Total Charge           Charge          ....    1
 Multiplicity           Mult            ....    1
 Number of Electrons    NEL             ....  164
 Basis Dimension        Dim             ....  358

ORBITAL ENERGIES
----------------

  NO   OCC          E(Eh)            E(eV)
   0   2.0000     -89.741281     -2441.9844
   1   2.0000     -19.616849      -533.8016
   2   2.0000     -19.568744      -532.4926
   3   2.0000     -14.830581      -403.5606
   4   2.0000     -10.661529      -290.1150
   5   2.0000     -10.660013      -290.0737
   6   2.0000     -10.656030      -289.9653
   7   2.0000     -10.655698      -289.9563
   8   2.0000     -10.649404      -289.7850
   9   2.0000     -10.637197      -289.4528
  10   2.0000     -10.633152      -289.3428
  11   2.0000     -10.615499      -288.8624
  12   2.0000     -10.605863      -288.6002
  13   2.0000     -10.602287      -288.5029
  14   2.0000     -10.565909      -287.5130
  15   2.0000     -10.565064      -287.4900
  16   2.0000     -10.551810      -287.1293
  17   2.0000     -10.541341      -286.8445
  18   2.0000     -10.524133      -286.3762
  19   2.0000      -8.381165      -228.0631
  20   2.0000      -6.271215      -170.6484
  21   2.0000      -6.267831      -170.5563
  22   2.0000      -6.265585      -170.4952
  23   2.0000      -4.040011      -109.9343
  24   2.0000      -2.360309       -64.2273
  25   2.0000      -2.322488       -63.1981
  26   2.0000      -2.321732       -63.1775
  27   2.0000      -1.311883       -35.6982
  28   2.0000      -1.208045       -32.8726
  29   2.0000      -1.197325       -32.5809
  30   2.0000      -1.188446       -32.3393
  31   2.0000      -1.126365       -30.6500
  32   2.0000      -1.014306       -27.6007
  33   2.0000      -0.996917       -27.1275
  34   2.0000      -0.992461       -27.0062
  35   2.0000      -0.960236       -26.1294
  36   2.0000      -0.954758       -25.9803
  37   2.0000      -0.908643       -24.7254
  38   2.0000      -0.890917       -24.2431
  39   2.0000      -0.865434       -23.5496
  40   2.0000      -0.800459       -21.7816
  41   2.0000      -0.798099       -21.7174
  42   2.0000      -0.790037       -21.4980
  43   2.0000      -0.784029       -21.3345
  44   2.0000      -0.771425       -20.9915
  45   2.0000      -0.736540       -20.0423
  46   2.0000      -0.733556       -19.9611
  47   2.0000      -0.717730       -19.5304
  48   2.0000      -0.683970       -18.6118
  49   2.0000      -0.660271       -17.9669
  50   2.0000      -0.659462       -17.9449
  51   2.0000      -0.656315       -17.8592
  52   2.0000      -0.647449       -17.6180
  53   2.0000      -0.642201       -17.4752
  54   2.0000      -0.637185       -17.3387
  55   2.0000      -0.631772       -17.1914
  56   2.0000      -0.621924       -16.9234
  57   2.0000      -0.620152       -16.8752
  58   2.0000      -0.617979       -16.8161
  59   2.0000      -0.609684       -16.5903
  60   2.0000      -0.589402       -16.0384
  61   2.0000      -0.585447       -15.9308
  62   2.0000      -0.573186       -15.5972
  63   2.0000      -0.561295       -15.2736
  64   2.0000      -0.556513       -15.1435
  65   2.0000      -0.545295       -14.8382
  66   2.0000      -0.543917       -14.8007
  67   2.0000      -0.540384       -14.7046
  68   2.0000      -0.531192       -14.4545
  69   2.0000      -0.525689       -14.3047
  70   2.0000      -0.519942       -14.1483
  71   2.0000      -0.515217       -14.0198
  72   2.0000      -0.509525       -13.8649
  73   2.0000      -0.504103       -13.7173
  74   2.0000      -0.482162       -13.1203
  75   2.0000      -0.479396       -13.0450
  76   2.0000      -0.461225       -12.5506
  77   2.0000      -0.454746       -12.3743
  78   2.0000      -0.433987       -11.8094
  79   2.0000      -0.420856       -11.4521
  80   2.0000      -0.413230       -11.2446
  81   2.0000      -0.399625       -10.8743
  82   0.0000      -0.233154        -6.3444
  83   0.0000      -0.171523        -4.6674
  84   0.0000      -0.154002        -4.1906
  85   0.0000      -0.087965        -2.3937
  86   0.0000      -0.087097        -2.3700

MULLIKEN ATOMIC CHARGES
-----------------------
   0 Ir:    0.617692
   1 C :   -0.239904
   2 C :   -0.200302
   3 C :   -0.168552
   4 C :   -0.241093
   5 C :   -0.244961
   6 N :   -0.466834
   7 C :   -0.128441
   8 C :   -0.627877
   9 H :    0.246593
  10 H :    0.224043
  11 H :    0.271514
  12 C :   -0.669344
  13 H :    0.249034
  14 H :    0.268803
  15 H :    0.228984
  16 H :    0.241443
  17 C :    0.051038
  18 C :   -0.210167
  19 H :    0.276899
  20 C :   -0.277159
  21 C :   -0.146731
  22 S :    0.287881
  23 C :   -0.427783
  24 H :    0.388411
  25 H :    0.265445
  26 H :    0.296296
  27 H :    0.296791
  28 H :    0.307054
  29 H :    0.302334
  30 O :   -0.441181
  31 O :   -0.535006
  32 C :    0.595574
  33 C :   -0.758499
  34 H :    0.261171
  35 H :    0.264938
  36 H :    0.242540
  37 H :    0.303247
  38 H :    0.296110
Sum of atomic charges:    1.0000000

LOEWDIN ATOMIC CHARGES
----------------------
   0 Ir:   -0.121966
   1 C :   -0.011868
   2 C :   -0.009375
   3 C :    0.020514
   4 C :   -0.083669
   5 C :   -0.081298
   6 N :   -0.049278
   7 C :   -0.060572
   8 C :   -0.351120
   9 H :    0.146908
  10 H :    0.135711
  11 H :    0.152794
  12 C :   -0.360442
  13 H :    0.141646
  14 H :    0.154670
  15 H :    0.134050
  16 H :    0.138124
  17 C :    0.036554
  18 C :   -0.223931
  19 H :    0.159160
  20 C :   -0.146292
  21 C :   -0.169251
  22 S :    0.445456
  23 C :   -0.242332
  24 H :    0.217095
  25 H :    0.158369
  26 H :    0.168076
  27 H :    0.189328
  28 H :    0.193619
  29 H :    0.194957
  30 O :   -0.233685
  31 O :   -0.204506
  32 C :    0.102620
  33 C :   -0.385106
  34 H :    0.159625
  35 H :    0.163175
  36 H :    0.142574
  37 H :    0.189933
  38 H :    0.189733

  Mayer bond orders larger than 0.100000
B(  0-Ir,  1-C ) :   0.5254 B(  0-Ir,  2-C ) :   0.5133 B(  0-Ir,  3-C ) :   0.4949
B(  0-Ir,  4-C ) :   0.4008 B(  0-Ir,  5-C ) :   0.4502 B(  0-Ir,  6-N ) :   0.4842
B(  0-Ir, 30-O ) :   0.1281 B(  0-Ir, 31-O ) :   0.6256 B(  1-C ,  2-C ) :   1.1058
B(  1-C ,  4-C ) :   1.1784 B(  1-C , 27-H ) :   0.9116 B(  2-C ,  5-C ) :   1.1864
B(  2-C , 28-H ) :   0.9031 B(  3-C ,  4-C ) :   1.1854 B(  3-C ,  5-C ) :   1.1351
B(  3-C , 37-H ) :   0.8997 B(  4-C , 38-H ) :   0.9088 B(  5-C , 29-H ) :   0.9066
B(  6-N ,  7-C ) :   0.8779 B(  6-N , 17-C ) :   1.6578 B(  7-C ,  8-C ) :   0.9759
B(  7-C , 12-C ) :   0.9839 B(  7-C , 13-H ) :   0.8946 B(  8-C ,  9-H ) :   0.9056
B(  8-C , 10-H ) :   0.9174 B(  8-C , 11-H ) :   0.8997 B( 12-C , 14-H ) :   0.9034
B( 12-C , 15-H ) :   0.9117 B( 12-C , 16-H ) :   0.9179 B( 17-C , 18-C ) :   1.0959
B( 17-C , 19-H ) :   0.8762 B( 18-C , 20-C ) :   1.4200 B( 18-C , 22-S ) :   1.1418
B( 20-C , 21-C ) :   1.3287 B( 20-C , 24-H ) :   0.7293 B( 21-C , 23-C ) :   1.4681
B( 21-C , 25-H ) :   0.9047 B( 22-S , 23-C ) :   1.2782 B( 23-C , 26-H ) :   0.8914
B( 24-H , 30-O ) :   0.1016 B( 30-O , 32-C ) :   1.7864 B( 31-O , 32-C ) :   1.2487
B( 32-C , 33-C ) :   0.9301 B( 33-C , 34-H ) :   0.9071 B( 33-C , 35-H ) :   0.9022
B( 33-C , 36-H ) :   0.9138

Dispersion correction           -0.029088761
FINAL SINGLE POINT ENERGY     -1288.358705509255
Dispersion correction            ... done

DIPOLE MOMENT
-------------
                                X             Y             Z
Electronic contribution:     24.04280     -73.88311     112.42687
Nuclear contribution   :    -24.47404      72.01566    -112.55863
                        -----------------------------------------
Total Dipole Moment    :     -0.43124      -1.86745      -0.13176
                        -----------------------------------------
Magnitude (a.u.)       :      1.92112
Magnitude (Debye)      :      4.88309

Rotational constants in cm-1:     0.010604     0.007750     0.007202
Rotational constants in MHz :   317.891830   232.332386   215.918505

                             ****ORCA TERMINATED NORMALLY****
TOTAL RUN TIME: 0 days 0 hours 24 minutes 39 seconds 13 msec
