                         Program Version 5.0.3 -  RELEASE  -
|  1> ! EnGrad PBEh-3c
|  2> %output
|  3> xyzfile=True
|  4> end
|  5> %scf
|  6> maxiter 250
|  7> end
|  8> %output
|  9> Print[P_Hirshfeld] = 1
| 10> end
| 11> % maxcore
| 12> 4000
| 13> *xyz 1 1
| 14> Ir   0.45708910  -0.75477517   0.89316388
| 15> C   -0.06882833  -2.79244840   1.47578436
| 16> C    0.61899340  -2.10092069   2.53956874
| 17> C    2.04066930  -2.32500459   0.77856488
| 18> C    0.80722669  -2.90132595   0.37853528
| 19> C    1.91986348  -1.79980978   2.10029200
| 20> N   -1.03242525  -0.05210774  -0.46991237
| 21> C   -2.44269940   0.00834280   0.01977784
| 22> C   -2.87070682   1.40314938   0.48662346
| 23> H   -3.92008145   1.35174809   0.79144337
| 24> H   -2.80931542   2.12656129  -0.33151647
| 25> H   -2.26796992   1.75461970   1.33190745
| 26> C   -3.42877131  -0.54829893  -1.00235357
| 27> H   -2.46633781  -0.65659145   0.89658895
| 28> H   -4.39464995  -0.66058831  -0.51993730
| 29> H   -3.58669240   0.12476438  -1.84965166
| 30> H   -3.12794539  -1.53215436  -1.38437495
| 31> C   -0.74077059   0.28222947  -1.67059948
| 32> C    0.57013356   0.22546717  -2.22239325
| 33> H   -1.58585091   0.56805732  -2.33372388
| 34> C    1.83331726   0.33862983  -1.74058699
| 35> C    2.85581790  -0.02485765  -2.57571487
| 36> S    0.71379074   0.11223569  -3.93729780
| 37> C    2.40160423  -0.05896355  -3.85815101
| 38> H    2.01202108   0.75268216  -0.73408410
| 39> H    3.88180004  -0.07690954  -2.29917979
| 40> H    3.01425796  -0.09108748  -4.74727291
| 41> H   -1.02205233  -3.30641156   1.58833248
| 42> H    0.20489064  -1.92944597   3.51707952
| 43> H    2.72736855  -1.35887136   2.69756098
| 44> O    1.86617636   1.86955863   0.63334255
| 45> O    0.16830226   1.07070914   1.77358516
| 46> C    0.98549106   2.02637304   1.42386216
| 47> C    0.79575040   3.37601816   2.06875734
| 48> H    0.83158865   4.15777935   1.30582306
| 49> H    1.65640025   3.57270826   2.70672988
| 50> H   -0.10717364   3.51955817   2.66733251
| 51> H    2.91459553  -2.24353839   0.14955922
| 52> H    0.59393618  -3.42912898  -0.55330464
| 53> *
| 54>
| 55>                          ****END OF INPUT****

CARTESIAN COORDINATES (ANGSTROEM)
---------------------------------
  Ir     0.457089   -0.754775    0.893164
  C     -0.068828   -2.792448    1.475784
  C      0.618993   -2.100921    2.539569
  C      2.040669   -2.325005    0.778565
  C      0.807227   -2.901326    0.378535
  C      1.919863   -1.799810    2.100292
  N     -1.032425   -0.052108   -0.469912
  C     -2.442699    0.008343    0.019778
  C     -2.870707    1.403149    0.486623
  H     -3.920081    1.351748    0.791443
  H     -2.809315    2.126561   -0.331516
  H     -2.267970    1.754620    1.331907
  C     -3.428771   -0.548299   -1.002354
  H     -2.466338   -0.656591    0.896589
  H     -4.394650   -0.660588   -0.519937
  H     -3.586692    0.124764   -1.849652
  H     -3.127945   -1.532154   -1.384375
  C     -0.740771    0.282229   -1.670599
  C      0.570134    0.225467   -2.222393
  H     -1.585851    0.568057   -2.333724
  C      1.833317    0.338630   -1.740587
  C      2.855818   -0.024858   -2.575715
  S      0.713791    0.112236   -3.937298
  C      2.401604   -0.058964   -3.858151
  H      2.012021    0.752682   -0.734084
  H      3.881800   -0.076910   -2.299180
  H      3.014258   -0.091087   -4.747273
  H     -1.022052   -3.306412    1.588332
  H      0.204891   -1.929446    3.517080
  H      2.727369   -1.358871    2.697561
  O      1.866176    1.869559    0.633343
  O      0.168302    1.070709    1.773585
  C      0.985491    2.026373    1.423862
  C      0.795750    3.376018    2.068757
  H      0.831589    4.157779    1.305823
  H      1.656400    3.572708    2.706730
  H     -0.107174    3.519558    2.667333
  H      2.914596   -2.243538    0.149559
  H      0.593936   -3.429129   -0.553305

 Total Charge           Charge          ....    1
 Multiplicity           Mult            ....    1
 Number of Electrons    NEL             ....  164
 Basis Dimension        Dim             ....  358

ORBITAL ENERGIES
----------------

  NO   OCC          E(Eh)            E(eV)
   0   2.0000     -89.741073     -2441.9787
   1   2.0000     -19.616794      -533.8001
   2   2.0000     -19.573104      -532.6112
   3   2.0000     -14.828521      -403.5046
   4   2.0000     -10.667567      -290.2793
   5   2.0000     -10.657751      -290.0121
   6   2.0000     -10.657426      -290.0033
   7   2.0000     -10.655575      -289.9529
   8   2.0000     -10.648641      -289.7643
   9   2.0000     -10.638207      -289.4803
  10   2.0000     -10.634559      -289.3811
  11   2.0000     -10.614907      -288.8463
  12   2.0000     -10.605418      -288.5881
  13   2.0000     -10.601082      -288.4701
  14   2.0000     -10.570381      -287.6347
  15   2.0000     -10.565369      -287.4983
  16   2.0000     -10.551302      -287.1155
  17   2.0000     -10.541473      -286.8481
  18   2.0000     -10.527176      -286.4590
  19   2.0000      -8.381081      -228.0608
  20   2.0000      -6.271096      -170.6452
  21   2.0000      -6.267726      -170.5535
  22   2.0000      -6.265592      -170.4954
  23   2.0000      -4.039420      -109.9182
  24   2.0000      -2.359832       -64.2143
  25   2.0000      -2.321905       -63.1822
  26   2.0000      -2.321108       -63.1606
  27   2.0000      -1.302131       -35.4328
  28   2.0000      -1.201583       -32.6967
  29   2.0000      -1.194518       -32.5045
  30   2.0000      -1.186674       -32.2910
  31   2.0000      -1.123637       -30.5757
  32   2.0000      -1.014014       -27.5927
  33   2.0000      -0.996375       -27.1127
  34   2.0000      -0.991752       -26.9869
  35   2.0000      -0.963333       -26.2136
  36   2.0000      -0.948518       -25.8105
  37   2.0000      -0.916001       -24.9256
  38   2.0000      -0.890118       -24.2214
  39   2.0000      -0.865557       -23.5530
  40   2.0000      -0.799435       -21.7537
  41   2.0000      -0.797792       -21.7090
  42   2.0000      -0.791153       -21.5284
  43   2.0000      -0.783366       -21.3165
  44   2.0000      -0.769738       -20.9456
  45   2.0000      -0.736777       -20.0487
  46   2.0000      -0.732826       -19.9412
  47   2.0000      -0.716149       -19.4874
  48   2.0000      -0.683705       -18.6046
  49   2.0000      -0.660318       -17.9682
  50   2.0000      -0.659188       -17.9374
  51   2.0000      -0.656320       -17.8594
  52   2.0000      -0.645741       -17.5715
  53   2.0000      -0.639895       -17.4124
  54   2.0000      -0.634314       -17.2606
  55   2.0000      -0.629413       -17.1272
  56   2.0000      -0.621690       -16.9170
  57   2.0000      -0.619250       -16.8506
  58   2.0000      -0.617910       -16.8142
  59   2.0000      -0.608322       -16.5533
  60   2.0000      -0.589781       -16.0488
  61   2.0000      -0.581765       -15.8306
  62   2.0000      -0.572174       -15.5697
  63   2.0000      -0.561974       -15.2921
  64   2.0000      -0.559467       -15.2239
  65   2.0000      -0.546698       -14.8764
  66   2.0000      -0.544998       -14.8302
  67   2.0000      -0.542518       -14.7627
  68   2.0000      -0.531612       -14.4659
  69   2.0000      -0.526082       -14.3154
  70   2.0000      -0.521102       -14.1799
  71   2.0000      -0.515103       -14.0167
  72   2.0000      -0.510444       -13.8899
  73   2.0000      -0.503477       -13.7003
  74   2.0000      -0.482998       -13.1430
  75   2.0000      -0.478560       -13.0223
  76   2.0000      -0.461142       -12.5483
  77   2.0000      -0.455561       -12.3964
  78   2.0000      -0.431143       -11.7320
  79   2.0000      -0.421725       -11.4757
  80   2.0000      -0.414805       -11.2874
  81   2.0000      -0.397493       -10.8163
  82   0.0000      -0.232106        -6.3159
  83   0.0000      -0.171899        -4.6776
  84   0.0000      -0.150252        -4.0886
  85   0.0000      -0.087640        -2.3848
  86   0.0000      -0.085528        -2.3273

MULLIKEN ATOMIC CHARGES
-----------------------
   0 Ir:    0.613653
   1 C :   -0.239609
   2 C :   -0.206591
   3 C :   -0.161975
   4 C :   -0.240776
   5 C :   -0.247046
   6 N :   -0.464826
   7 C :   -0.127954
   8 C :   -0.627528
   9 H :    0.244687
  10 H :    0.224281
  11 H :    0.271600
  12 C :   -0.669826
  13 H :    0.248647
  14 H :    0.266631
  15 H :    0.230074
  16 H :    0.242674
  17 C :    0.054832
  18 C :   -0.205192
  19 H :    0.274332
  20 C :   -0.278930
  21 C :   -0.133055
  22 S :    0.295325
  23 C :   -0.430580
  24 H :    0.364123
  25 H :    0.265483
  26 H :    0.296357
  27 H :    0.297530
  28 H :    0.308505
  29 H :    0.303547
  30 O :   -0.437943
  31 O :   -0.560046
  32 C :    0.603159
  33 C :   -0.759040
  34 H :    0.265170
  35 H :    0.267678
  36 H :    0.249667
  37 H :    0.304946
  38 H :    0.298018
Sum of atomic charges:    1.0000000

LOEWDIN ATOMIC CHARGES
----------------------
   0 Ir:   -0.123417
   1 C :   -0.013400
   2 C :   -0.012209
   3 C :    0.022861
   4 C :   -0.083146
   5 C :   -0.079840
   6 N :   -0.051629
   7 C :   -0.059919
   8 C :   -0.351081
   9 H :    0.146377
  10 H :    0.135561
  11 H :    0.152916
  12 C :   -0.360855
  13 H :    0.141311
  14 H :    0.154258
  15 H :    0.134463
  16 H :    0.138448
  17 C :    0.033117
  18 C :   -0.237031
  19 H :    0.158005
  20 C :   -0.130504
  21 C :   -0.170427
  22 S :    0.453944
  23 C :   -0.242434
  24 H :    0.204019
  25 H :    0.158570
  26 H :    0.167834
  27 H :    0.189736
  28 H :    0.193973
  29 H :    0.195828
  30 O :   -0.235549
  31 O :   -0.229745
  32 C :    0.128776
  33 C :   -0.383733
  34 H :    0.162194
  35 H :    0.165802
  36 H :    0.145966
  37 H :    0.190387
  38 H :    0.190572

  Mayer bond orders larger than 0.100000
B(  0-Ir,  1-C ) :   0.5319 B(  0-Ir,  2-C ) :   0.5255 B(  0-Ir,  3-C ) :   0.4872
B(  0-Ir,  4-C ) :   0.3961 B(  0-Ir,  5-C ) :   0.4512 B(  0-Ir,  6-N ) :   0.4836
B(  0-Ir, 30-O ) :   0.1113 B(  0-Ir, 31-O ) :   0.6456 B(  1-C ,  2-C ) :   1.0978
B(  1-C ,  4-C ) :   1.1802 B(  1-C , 27-H ) :   0.9098 B(  2-C ,  5-C ) :   1.1848
B(  2-C , 28-H ) :   0.9013 B(  3-C ,  4-C ) :   1.1895 B(  3-C ,  5-C ) :   1.1361
B(  3-C , 37-H ) :   0.8957 B(  4-C , 38-H ) :   0.9067 B(  5-C , 29-H ) :   0.9059
B(  6-N ,  7-C ) :   0.8785 B(  6-N , 17-C ) :   1.6547 B(  7-C ,  8-C ) :   0.9755
B(  7-C , 12-C ) :   0.9839 B(  7-C , 13-H ) :   0.8949 B(  8-C ,  9-H ) :   0.9061
B(  8-C , 10-H ) :   0.9173 B(  8-C , 11-H ) :   0.8993 B( 12-C , 14-H ) :   0.9044
B( 12-C , 15-H ) :   0.9116 B( 12-C , 16-H ) :   0.9173 B( 17-C , 18-C ) :   1.1032
B( 17-C , 19-H ) :   0.8770 B( 18-C , 20-C ) :   1.3899 B( 18-C , 22-S ) :   1.1439
B( 20-C , 21-C ) :   1.3368 B( 20-C , 24-H ) :   0.7506 B( 21-C , 23-C ) :   1.4486
B( 21-C , 25-H ) :   0.9050 B( 22-S , 23-C ) :   1.2845 B( 23-C , 26-H ) :   0.8921
B( 24-H , 30-O ) :   0.1011 B( 30-O , 32-C ) :   1.8092 B( 31-O , 32-C ) :   1.1995
B( 32-C , 33-C ) :   0.9387 B( 33-C , 34-H ) :   0.9042 B( 33-C , 35-H ) :   0.8997
B( 33-C , 36-H ) :   0.9110

Dispersion correction           -0.029084390
FINAL SINGLE POINT ENERGY     -1288.368279125419
Dispersion correction            ... done

DIPOLE MOMENT
-------------
                                X             Y             Z
Electronic contribution:     23.12297     -74.64004     113.97563
Nuclear contribution   :    -23.52217      72.87504    -114.06985
                        -----------------------------------------
Total Dipole Moment    :     -0.39920      -1.76500      -0.09423
                        -----------------------------------------
Magnitude (a.u.)       :      1.81204
Magnitude (Debye)      :      4.60583

Rotational constants in cm-1:     0.010576     0.007719     0.007183
Rotational constants in MHz :   317.054220   231.418122   215.334209

                             ****ORCA TERMINATED NORMALLY****
TOTAL RUN TIME: 0 days 0 hours 25 minutes 1 seconds 492 msec
