                         Program Version 5.0.3 -  RELEASE  -
|  1> ! EnGrad PBEh-3c
|  2> %output
|  3> xyzfile=True
|  4> end
|  5> %scf
|  6> maxiter 250
|  7> end
|  8> %output
|  9> Print[P_Hirshfeld] = 1
| 10> end
| 11> % maxcore
| 12> 4000
| 13> *xyz 1 1
| 14> Ir   0.43666630  -0.78615275   0.92109137
| 15> C   -0.06828149  -2.79834730   1.46036354
| 16> C    0.60496879  -2.10665531   2.53418440
| 17> C    2.06642172  -2.33572618   0.80590064
| 18> C    0.84407863  -2.93010944   0.37681217
| 19> C    1.93789053  -1.79862004   2.13505182
| 20> N   -1.03256978  -0.07105777  -0.46242529
| 21> C   -2.43971523  -0.00553310   0.02268064
| 22> C   -2.85514900   1.39383117   0.50624087
| 23> H   -3.91463292   1.33568684   0.79515026
| 24> H   -2.80404027   2.12942105  -0.30231163
| 25> H   -2.24924011   1.74180361   1.34791730
| 26> C   -3.42799790  -0.54761413  -1.01175461
| 27> H   -2.46456460  -0.67316458   0.88656803
| 28> H   -4.39757636  -0.65831318  -0.51908452
| 29> H   -3.58967228   0.13766829  -1.84544580
| 30> H   -3.13628300  -1.52210482  -1.40317178
| 31> C   -0.76208755   0.28880473  -1.66719030
| 32> C    0.55765980   0.25983629  -2.25399664
| 33> H   -1.57588687   0.56685550  -2.33529447
| 34> C    1.82725257   0.40305932  -1.75557447
| 35> C    2.87728293   0.01250082  -2.60699919
| 36> S    0.70462985   0.07183327  -3.93108945
| 37> C    2.39533027  -0.08990364  -3.86805784
| 38> H    1.93788386   0.63687220  -0.65299593
| 39> H    3.89629824  -0.09190381  -2.28588337
| 40> H    2.99799040  -0.09093084  -4.74280765
| 41> H   -1.06232518  -3.24061656   1.52850783
| 42> H    0.16139933  -1.89613290   3.49516418
| 43> H    2.70493092  -1.32496842   2.73103313
| 44> O    1.89991396   1.87908737   0.63105273
| 45> O    0.19152672   1.05109453   1.75231859
| 46> C    1.00822653   2.03595772   1.40883813
| 47> C    0.78863704   3.37423178   2.06575873
| 48> H    0.82572124   4.14483761   1.30482934
| 49> H    1.65455037   3.56866318   2.69327826
| 50> H   -0.10060324   3.51175123   2.65678511
| 51> H    2.92742113  -2.17942219   0.15547097
| 52> H    0.63274658  -3.39893240  -0.58156417
| 53> *
| 54>
| 55>                          ****END OF INPUT****

CARTESIAN COORDINATES (ANGSTROEM)
---------------------------------
  Ir     0.436666   -0.786153    0.921091
  C     -0.068281   -2.798347    1.460364
  C      0.604969   -2.106655    2.534184
  C      2.066422   -2.335726    0.805901
  C      0.844079   -2.930109    0.376812
  C      1.937891   -1.798620    2.135052
  N     -1.032570   -0.071058   -0.462425
  C     -2.439715   -0.005533    0.022681
  C     -2.855149    1.393831    0.506241
  H     -3.914633    1.335687    0.795150
  H     -2.804040    2.129421   -0.302312
  H     -2.249240    1.741804    1.347917
  C     -3.427998   -0.547614   -1.011755
  H     -2.464565   -0.673165    0.886568
  H     -4.397576   -0.658313   -0.519085
  H     -3.589672    0.137668   -1.845446
  H     -3.136283   -1.522105   -1.403172
  C     -0.762088    0.288805   -1.667190
  C      0.557660    0.259836   -2.253997
  H     -1.575887    0.566855   -2.335294
  C      1.827253    0.403059   -1.755574
  C      2.877283    0.012501   -2.606999
  S      0.704630    0.071833   -3.931089
  C      2.395330   -0.089904   -3.868058
  H      1.937884    0.636872   -0.652996
  H      3.896298   -0.091904   -2.285883
  H      2.997990   -0.090931   -4.742808
  H     -1.062325   -3.240617    1.528508
  H      0.161399   -1.896133    3.495164
  H      2.704931   -1.324968    2.731033
  O      1.899914    1.879087    0.631053
  O      0.191527    1.051095    1.752319
  C      1.008227    2.035958    1.408838
  C      0.788637    3.374232    2.065759
  H      0.825721    4.144838    1.304829
  H      1.654550    3.568663    2.693278
  H     -0.100603    3.511751    2.656785
  H      2.927421   -2.179422    0.155471
  H      0.632747   -3.398932   -0.581564

 Total Charge           Charge          ....    1
 Multiplicity           Mult            ....    1
 Number of Electrons    NEL             ....  164
 Basis Dimension        Dim             ....  358

ORBITAL ENERGIES
----------------

  NO   OCC          E(Eh)            E(eV)
   0   2.0000     -89.738253     -2441.9020
   1   2.0000     -19.616915      -533.8034
   2   2.0000     -19.573641      -532.6259
   3   2.0000     -14.832035      -403.6002
   4   2.0000     -10.670104      -290.3483
   5   2.0000     -10.665280      -290.2170
   6   2.0000     -10.659783      -290.0675
   7   2.0000     -10.656820      -289.9868
   8   2.0000     -10.650666      -289.8194
   9   2.0000     -10.644290      -289.6459
  10   2.0000     -10.641144      -289.5603
  11   2.0000     -10.616188      -288.8812
  12   2.0000     -10.604224      -288.5556
  13   2.0000     -10.595208      -288.3103
  14   2.0000     -10.574672      -287.7515
  15   2.0000     -10.568165      -287.5744
  16   2.0000     -10.552826      -287.1570
  17   2.0000     -10.543883      -286.9136
  18   2.0000     -10.527122      -286.4575
  19   2.0000      -8.378790      -227.9985
  20   2.0000      -6.268809      -170.5830
  21   2.0000      -6.265359      -170.4891
  22   2.0000      -6.263381      -170.4353
  23   2.0000      -4.042218      -109.9943
  24   2.0000      -2.362943       -64.2989
  25   2.0000      -2.324776       -63.2604
  26   2.0000      -2.324002       -63.2393
  27   2.0000      -1.298347       -35.3298
  28   2.0000      -1.199583       -32.6423
  29   2.0000      -1.192980       -32.4626
  30   2.0000      -1.183738       -32.2111
  31   2.0000      -1.120450       -30.4890
  32   2.0000      -1.012580       -27.5537
  33   2.0000      -0.997159       -27.1341
  34   2.0000      -0.993261       -27.0280
  35   2.0000      -0.962614       -26.1941
  36   2.0000      -0.940973       -25.6052
  37   2.0000      -0.920486       -25.0477
  38   2.0000      -0.891667       -24.2635
  39   2.0000      -0.867617       -23.6090
  40   2.0000      -0.801692       -21.8151
  41   2.0000      -0.799875       -21.7657
  42   2.0000      -0.792610       -21.5680
  43   2.0000      -0.784686       -21.3524
  44   2.0000      -0.766795       -20.8656
  45   2.0000      -0.737521       -20.0690
  46   2.0000      -0.733846       -19.9690
  47   2.0000      -0.710597       -19.3363
  48   2.0000      -0.685204       -18.6453
  49   2.0000      -0.663299       -18.0493
  50   2.0000      -0.660864       -17.9830
  51   2.0000      -0.656082       -17.8529
  52   2.0000      -0.646231       -17.5848
  53   2.0000      -0.637778       -17.3548
  54   2.0000      -0.634184       -17.2570
  55   2.0000      -0.626661       -17.0523
  56   2.0000      -0.623197       -16.9580
  57   2.0000      -0.620404       -16.8820
  58   2.0000      -0.618105       -16.8195
  59   2.0000      -0.606377       -16.5004
  60   2.0000      -0.592166       -16.1137
  61   2.0000      -0.577634       -15.7182
  62   2.0000      -0.570810       -15.5325
  63   2.0000      -0.565944       -15.4001
  64   2.0000      -0.559231       -15.2175
  65   2.0000      -0.549530       -14.9535
  66   2.0000      -0.546734       -14.8774
  67   2.0000      -0.544557       -14.8182
  68   2.0000      -0.533475       -14.5166
  69   2.0000      -0.527648       -14.3580
  70   2.0000      -0.526814       -14.3353
  71   2.0000      -0.513739       -13.9795
  72   2.0000      -0.512357       -13.9419
  73   2.0000      -0.503765       -13.7082
  74   2.0000      -0.483418       -13.1545
  75   2.0000      -0.478702       -13.0261
  76   2.0000      -0.465924       -12.6784
  77   2.0000      -0.454015       -12.3544
  78   2.0000      -0.429164       -11.6781
  79   2.0000      -0.422147       -11.4872
  80   2.0000      -0.412787       -11.2325
  81   2.0000      -0.398181       -10.8350
  82   0.0000      -0.232143        -6.3169
  83   0.0000      -0.172025        -4.6810
  84   0.0000      -0.148773        -4.0483
  85   0.0000      -0.090870        -2.4727
  86   0.0000      -0.086309        -2.3486

MULLIKEN ATOMIC CHARGES
-----------------------
   0 Ir:    0.601250
   1 C :   -0.245888
   2 C :   -0.222062
   3 C :   -0.166550
   4 C :   -0.226379
   5 C :   -0.231957
   6 N :   -0.463515
   7 C :   -0.130691
   8 C :   -0.627954
   9 H :    0.243326
  10 H :    0.226207
  11 H :    0.272633
  12 C :   -0.671402
  13 H :    0.248311
  14 H :    0.264605
  15 H :    0.232551
  16 H :    0.245348
  17 C :    0.070807
  18 C :   -0.200720
  19 H :    0.277488
  20 C :   -0.241467
  21 C :   -0.142435
  22 S :    0.294688
  23 C :   -0.425032
  24 H :    0.301819
  25 H :    0.264766
  26 H :    0.292895
  27 H :    0.301079
  28 H :    0.313181
  29 H :    0.307590
  30 O :   -0.427983
  31 O :   -0.578507
  32 C :    0.595910
  33 C :   -0.757145
  34 H :    0.268002
  35 H :    0.268863
  36 H :    0.254748
  37 H :    0.309898
  38 H :    0.303721
Sum of atomic charges:    1.0000000

LOEWDIN ATOMIC CHARGES
----------------------
   0 Ir:   -0.130449
   1 C :   -0.020080
   2 C :   -0.016220
   3 C :    0.027353
   4 C :   -0.076052
   5 C :   -0.070425
   6 N :   -0.051227
   7 C :   -0.061456
   8 C :   -0.350802
   9 H :    0.146348
  10 H :    0.135950
  11 H :    0.153349
  12 C :   -0.361175
  13 H :    0.140590
  14 H :    0.154274
  15 H :    0.135535
  16 H :    0.139072
  17 C :    0.040368
  18 C :   -0.251336
  19 H :    0.157477
  20 C :   -0.123013
  21 C :   -0.168932
  22 S :    0.457341
  23 C :   -0.251538
  24 H :    0.194978
  25 H :    0.158953
  26 H :    0.165941
  27 H :    0.191242
  28 H :    0.195239
  29 H :    0.196980
  30 O :   -0.230445
  31 O :   -0.245044
  32 C :    0.138099
  33 C :   -0.383617
  34 H :    0.163354
  35 H :    0.167249
  36 H :    0.146945
  37 H :    0.192608
  38 H :    0.192568

  Mayer bond orders larger than 0.100000
B(  0-Ir,  1-C ) :   0.5434 B(  0-Ir,  2-C ) :   0.5544 B(  0-Ir,  3-C ) :   0.4819
B(  0-Ir,  4-C ) :   0.3971 B(  0-Ir,  5-C ) :   0.4526 B(  0-Ir,  6-N ) :   0.4728
B(  0-Ir, 31-O ) :   0.6641 B(  1-C ,  2-C ) :   1.0806 B(  1-C ,  4-C ) :   1.1847
B(  1-C , 27-H ) :   0.9041 B(  2-C ,  5-C ) :   1.1780 B(  2-C , 28-H ) :   0.8960
B(  3-C ,  4-C ) :   1.1872 B(  3-C ,  5-C ) :   1.1392 B(  3-C , 37-H ) :   0.8887
B(  4-C , 38-H ) :   0.9012 B(  5-C , 29-H ) :   0.9038 B(  6-N ,  7-C ) :   0.8806
B(  6-N , 17-C ) :   1.6695 B(  7-C ,  8-C ) :   0.9747 B(  7-C , 12-C ) :   0.9842
B(  7-C , 13-H ) :   0.8950 B(  8-C ,  9-H ) :   0.9065 B(  8-C , 10-H ) :   0.9164
B(  8-C , 11-H ) :   0.8986 B( 12-C , 14-H ) :   0.9055 B( 12-C , 15-H ) :   0.9114
B( 12-C , 16-H ) :   0.9159 B( 17-C , 18-C ) :   1.0912 B( 17-C , 19-H ) :   0.8749
B( 18-C , 20-C ) :   1.3809 B( 18-C , 22-S ) :   1.1482 B( 20-C , 21-C ) :   1.3190
B( 20-C , 24-H ) :   0.7998 B( 21-C , 23-C ) :   1.4667 B( 21-C , 25-H ) :   0.9048
B( 22-S , 23-C ) :   1.2718 B( 23-C , 26-H ) :   0.8947 B( 30-O , 32-C ) :   1.8517
B( 31-O , 32-C ) :   1.1561 B( 32-C , 33-C ) :   0.9439 B( 33-C , 34-H ) :   0.9025
B( 33-C , 35-H ) :   0.8993 B( 33-C , 36-H ) :   0.9083

Dispersion correction           -0.029095942
FINAL SINGLE POINT ENERGY     -1288.365978831966
Dispersion correction            ... done

DIPOLE MOMENT
-------------
                                X             Y             Z
Electronic contribution:     20.78222     -77.33853     116.89511
Nuclear contribution   :    -21.26555      75.61402    -116.89241
                        -----------------------------------------
Total Dipole Moment    :     -0.48333      -1.72451       0.00271
                        -----------------------------------------
Magnitude (a.u.)       :      1.79096
Magnitude (Debye)      :      4.55227

Rotational constants in cm-1:     0.010527     0.007647     0.007140
Rotational constants in MHz :   315.588668   229.261506   214.066226

                             ****ORCA TERMINATED NORMALLY****
TOTAL RUN TIME: 0 days 0 hours 26 minutes 22 seconds 435 msec
