                         Program Version 5.0.3 -  RELEASE  -
|  1> ! EnGrad PBEh-3c
|  2> %output
|  3> xyzfile=True
|  4> end
|  5> %scf
|  6> maxiter 250
|  7> end
|  8> %output
|  9> Print[P_Hirshfeld] = 1
| 10> end
| 11> % maxcore
| 12> 4000
| 13> *xyz 1 1
| 14> Ir   0.45190856  -0.76273455   0.90024810
| 15> C   -0.06868961  -2.79394474   1.47187265
| 16> C    0.61543585  -2.10237536   2.53820292
| 17> C    2.04720178  -2.32772428   0.78549900
| 18> C    0.81657472  -2.90862731   0.37809819
| 19> C    1.92443630  -1.79950799   2.10910934
| 20> N   -1.03246191  -0.05691469  -0.46801316
| 21> C   -2.44194242   0.00482297   0.02051418
| 22> C   -2.86676035   1.40078568   0.49159970
| 23> H   -3.91869935   1.34767392   0.79238368
| 24> H   -2.80797730   2.12728671  -0.32410824
| 25> H   -2.26321883   1.75136871   1.33596859
| 26> C   -3.42857513  -0.54812522  -1.00473828
| 27> H   -2.46588801  -0.66079547   0.89404700
| 28> H   -4.39539228  -0.66001119  -0.51972098
| 29> H   -3.58744829   0.12803765  -1.84858478
| 30> H   -3.13006034  -1.52960515  -1.38914304
| 31> C   -0.74617795   0.28389738  -1.66973469
| 32> C    0.56696941   0.23418540  -2.23040991
| 33> H   -1.58332338   0.56775246  -2.33412228
| 34> C    1.83177886   0.35497331  -1.74438878
| 35> C    2.86126282  -0.01538112  -2.58365060
| 36> S    0.71146694   0.10198702  -3.93572296
| 37> C    2.40001275  -0.06681195  -3.86066402
| 38> H    1.99321509   0.72330527  -0.71351490
| 39> H    3.88547772  -0.08071306  -2.29580696
| 40> H    3.01013145  -0.09104775  -4.74614023
| 41> H   -1.03226813  -3.28972169   1.57315708
| 42> H    0.19385843  -1.92099563   3.51152037
| 43> H    2.72167692  -1.35027138   2.70605168
| 44> O    1.87473439   1.87197573   0.63276170
| 45> O    0.17419348   1.06573360   1.76819058
| 46> C    0.99125825   2.02880434   1.42005110
| 47> C    0.79394599   3.37556502   2.06799670
| 48> H    0.83010030   4.15449648   1.30557098
| 49> H    1.65593100   3.57168216   2.70331768
| 50> H   -0.10550697   3.51757783   2.66465701
| 51> H    2.91784893  -2.22727438   0.15105882
| 52> H    0.60378101  -3.42146918  -0.56047309
| 53> *
| 54>
| 55>                          ****END OF INPUT****

CARTESIAN COORDINATES (ANGSTROEM)
---------------------------------
  Ir     0.451909   -0.762735    0.900248
  C     -0.068690   -2.793945    1.471873
  C      0.615436   -2.102375    2.538203
  C      2.047202   -2.327724    0.785499
  C      0.816575   -2.908627    0.378098
  C      1.924436   -1.799508    2.109109
  N     -1.032462   -0.056915   -0.468013
  C     -2.441942    0.004823    0.020514
  C     -2.866760    1.400786    0.491600
  H     -3.918699    1.347674    0.792384
  H     -2.807977    2.127287   -0.324108
  H     -2.263219    1.751369    1.335969
  C     -3.428575   -0.548125   -1.004738
  H     -2.465888   -0.660795    0.894047
  H     -4.395392   -0.660011   -0.519721
  H     -3.587448    0.128038   -1.848585
  H     -3.130060   -1.529605   -1.389143
  C     -0.746178    0.283897   -1.669735
  C      0.566969    0.234185   -2.230410
  H     -1.583323    0.567752   -2.334122
  C      1.831779    0.354973   -1.744389
  C      2.861263   -0.015381   -2.583651
  S      0.711467    0.101987   -3.935723
  C      2.400013   -0.066812   -3.860664
  H      1.993215    0.723305   -0.713515
  H      3.885478   -0.080713   -2.295807
  H      3.010131   -0.091048   -4.746140
  H     -1.032268   -3.289722    1.573157
  H      0.193858   -1.920996    3.511520
  H      2.721677   -1.350271    2.706052
  O      1.874734    1.871976    0.632762
  O      0.174193    1.065734    1.768191
  C      0.991258    2.028804    1.420051
  C      0.793946    3.375565    2.067997
  H      0.830100    4.154496    1.305571
  H      1.655931    3.571682    2.703318
  H     -0.105507    3.517578    2.664657
  H      2.917849   -2.227274    0.151059
  H      0.603781   -3.421469   -0.560473

 Total Charge           Charge          ....    1
 Multiplicity           Mult            ....    1
 Number of Electrons    NEL             ....  164
 Basis Dimension        Dim             ....  358

ORBITAL ENERGIES
----------------

  NO   OCC          E(Eh)            E(eV)
   0   2.0000     -89.740219     -2441.9555
   1   2.0000     -19.616867      -533.8021
   2   2.0000     -19.573219      -532.6144
   3   2.0000     -14.829399      -403.5285
   4   2.0000     -10.668230      -290.2973
   5   2.0000     -10.659656      -290.0640
   6   2.0000     -10.658001      -290.0190
   7   2.0000     -10.655936      -289.9627
   8   2.0000     -10.649206      -289.7796
   9   2.0000     -10.639698      -289.5209
  10   2.0000     -10.636235      -289.4267
  11   2.0000     -10.615219      -288.8548
  12   2.0000     -10.604970      -288.5759
  13   2.0000     -10.599468      -288.4262
  14   2.0000     -10.571126      -287.6550
  15   2.0000     -10.565894      -287.5126
  16   2.0000     -10.551676      -287.1257
  17   2.0000     -10.542068      -286.8643
  18   2.0000     -10.527167      -286.4588
  19   2.0000      -8.380359      -228.0412
  20   2.0000      -6.270377      -170.6256
  21   2.0000      -6.266987      -170.5334
  22   2.0000      -6.264890      -170.4763
  23   2.0000      -4.040191      -109.9392
  24   2.0000      -2.360681       -64.2374
  25   2.0000      -2.322684       -63.2034
  26   2.0000      -2.321893       -63.1819
  27   2.0000      -1.301185       -35.4070
  28   2.0000      -1.201030       -32.6817
  29   2.0000      -1.194193       -32.4957
  30   2.0000      -1.186037       -32.2737
  31   2.0000      -1.122766       -30.5520
  32   2.0000      -1.013644       -27.5826
  33   2.0000      -0.996660       -27.1205
  34   2.0000      -0.992218       -26.9996
  35   2.0000      -0.963073       -26.2065
  36   2.0000      -0.946673       -25.7603
  37   2.0000      -0.917168       -24.9574
  38   2.0000      -0.890504       -24.2318
  39   2.0000      -0.866064       -23.5668
  40   2.0000      -0.799991       -21.7689
  41   2.0000      -0.798478       -21.7277
  42   2.0000      -0.791507       -21.5380
  43   2.0000      -0.783933       -21.3319
  44   2.0000      -0.768964       -20.9246
  45   2.0000      -0.736978       -20.0542
  46   2.0000      -0.733242       -19.9525
  47   2.0000      -0.715157       -19.4604
  48   2.0000      -0.684078       -18.6147
  49   2.0000      -0.661054       -17.9882
  50   2.0000      -0.659726       -17.9521
  51   2.0000      -0.656230       -17.8569
  52   2.0000      -0.645720       -17.5709
  53   2.0000      -0.639458       -17.4005
  54   2.0000      -0.634267       -17.2593
  55   2.0000      -0.628685       -17.1074
  56   2.0000      -0.622236       -16.9319
  57   2.0000      -0.619281       -16.8515
  58   2.0000      -0.618602       -16.8330
  59   2.0000      -0.607768       -16.5382
  60   2.0000      -0.590352       -16.0643
  61   2.0000      -0.580364       -15.7925
  62   2.0000      -0.572115       -15.5680
  63   2.0000      -0.563216       -15.3259
  64   2.0000      -0.559568       -15.2266
  65   2.0000      -0.547477       -14.8976
  66   2.0000      -0.545457       -14.8426
  67   2.0000      -0.543150       -14.7799
  68   2.0000      -0.532039       -14.4775
  69   2.0000      -0.526382       -14.3236
  70   2.0000      -0.522703       -14.2235
  71   2.0000      -0.514518       -14.0008
  72   2.0000      -0.511391       -13.9156
  73   2.0000      -0.503638       -13.7047
  74   2.0000      -0.483197       -13.1485
  75   2.0000      -0.478650       -13.0247
  76   2.0000      -0.462310       -12.5801
  77   2.0000      -0.455434       -12.3930
  78   2.0000      -0.430665       -11.7190
  79   2.0000      -0.421825       -11.4784
  80   2.0000      -0.414418       -11.2769
  81   2.0000      -0.397726       -10.8227
  82   0.0000      -0.232118        -6.3163
  83   0.0000      -0.171726        -4.6729
  84   0.0000      -0.149620        -4.0714
  85   0.0000      -0.088193        -2.3998
  86   0.0000      -0.085582        -2.3288

MULLIKEN ATOMIC CHARGES
-----------------------
   0 Ir:    0.610392
   1 C :   -0.240853
   2 C :   -0.210282
   3 C :   -0.162643
   4 C :   -0.237272
   5 C :   -0.243469
   6 N :   -0.464485
   7 C :   -0.128638
   8 C :   -0.627628
   9 H :    0.244330
  10 H :    0.224773
  11 H :    0.271846
  12 C :   -0.670221
  13 H :    0.248561
  14 H :    0.266107
  15 H :    0.230717
  16 H :    0.243345
  17 C :    0.057837
  18 C :   -0.202452
  19 H :    0.275067
  20 C :   -0.271979
  21 C :   -0.133745
  22 S :    0.295421
  23 C :   -0.430030
  24 H :    0.349032
  25 H :    0.265269
  26 H :    0.295470
  27 H :    0.298288
  28 H :    0.309656
  29 H :    0.304616
  30 O :   -0.435368
  31 O :   -0.564862
  32 C :    0.601184
  33 C :   -0.758579
  34 H :    0.265923
  35 H :    0.267994
  36 H :    0.251004
  37 H :    0.306234
  38 H :    0.299439
Sum of atomic charges:    1.0000000

LOEWDIN ATOMIC CHARGES
----------------------
   0 Ir:   -0.124450
   1 C :   -0.014817
   2 C :   -0.013136
   3 C :    0.024226
   4 C :   -0.081445
   5 C :   -0.077481
   6 N :   -0.051617
   7 C :   -0.060300
   8 C :   -0.351008
   9 H :    0.146361
  10 H :    0.135655
  11 H :    0.153016
  12 C :   -0.360941
  13 H :    0.141131
  14 H :    0.154262
  15 H :    0.134740
  16 H :    0.138607
  17 C :    0.035033
  18 C :   -0.240813
  19 H :    0.157852
  20 C :   -0.128302
  21 C :   -0.170124
  22 S :    0.454648
  23 C :   -0.244558
  24 H :    0.200948
  25 H :    0.158582
  26 H :    0.167315
  27 H :    0.190016
  28 H :    0.194266
  29 H :    0.196152
  30 O :   -0.234418
  31 O :   -0.233674
  32 C :    0.131128
  33 C :   -0.383697
  34 H :    0.162506
  35 H :    0.166173
  36 H :    0.146248
  37 H :    0.190872
  38 H :    0.191045

  Mayer bond orders larger than 0.100000
B(  0-Ir,  1-C ) :   0.5352 B(  0-Ir,  2-C ) :   0.5331 B(  0-Ir,  3-C ) :   0.4861
B(  0-Ir,  4-C ) :   0.3962 B(  0-Ir,  5-C ) :   0.4516 B(  0-Ir,  6-N ) :   0.4809
B(  0-Ir, 30-O ) :   0.1042 B(  0-Ir, 31-O ) :   0.6503 B(  1-C ,  2-C ) :   1.0932
B(  1-C ,  4-C ) :   1.1813 B(  1-C , 27-H ) :   0.9086 B(  2-C ,  5-C ) :   1.1831
B(  2-C , 28-H ) :   0.9000 B(  3-C ,  4-C ) :   1.1889 B(  3-C ,  5-C ) :   1.1368
B(  3-C , 37-H ) :   0.8940 B(  4-C , 38-H ) :   0.9054 B(  5-C , 29-H ) :   0.9054
B(  6-N ,  7-C ) :   0.8790 B(  6-N , 17-C ) :   1.6585 B(  7-C ,  8-C ) :   0.9753
B(  7-C , 12-C ) :   0.9840 B(  7-C , 13-H ) :   0.8949 B(  8-C ,  9-H ) :   0.9062
B(  8-C , 10-H ) :   0.9171 B(  8-C , 11-H ) :   0.8991 B( 12-C , 14-H ) :   0.9047
B( 12-C , 15-H ) :   0.9116 B( 12-C , 16-H ) :   0.9170 B( 17-C , 18-C ) :   1.1005
B( 17-C , 19-H ) :   0.8765 B( 18-C , 20-C ) :   1.3863 B( 18-C , 22-S ) :   1.1451
B( 20-C , 21-C ) :   1.3325 B( 20-C , 24-H ) :   0.7630 B( 21-C , 23-C ) :   1.4524
B( 21-C , 25-H ) :   0.9050 B( 22-S , 23-C ) :   1.2816 B( 23-C , 26-H ) :   0.8929
B( 30-O , 32-C ) :   1.8206 B( 31-O , 32-C ) :   1.1885 B( 32-C , 33-C ) :   0.9401
B( 33-C , 34-H ) :   0.9038 B( 33-C , 35-H ) :   0.8996 B( 33-C , 36-H ) :   0.9103

Dispersion correction           -0.029086599
FINAL SINGLE POINT ENERGY     -1288.370057644805
Dispersion correction            ... done

DIPOLE MOMENT
-------------
                                X             Y             Z
Electronic contribution:     22.52873     -75.32677     114.72004
Nuclear contribution   :    -22.94974      73.56982    -114.78584
                        -----------------------------------------
Total Dipole Moment    :     -0.42102      -1.75695      -0.06579
                        -----------------------------------------
Magnitude (a.u.)       :      1.80789
Magnitude (Debye)      :      4.59529

Rotational constants in cm-1:     0.010564     0.007701     0.007172
Rotational constants in MHz :   316.693362   230.877800   215.018351

                             ****ORCA TERMINATED NORMALLY****
TOTAL RUN TIME: 0 days 0 hours 24 minutes 59 seconds 725 msec
