                         Program Version 5.0.3 -  RELEASE  -
|  1> ! EnGrad PBEh-3c
|  2> %output
|  3> xyzfile=True
|  4> end
|  5> %scf
|  6> maxiter 250
|  7> end
|  8> %output
|  9> Print[P_Hirshfeld] = 1
| 10> end
| 11> % maxcore
| 12> 4000
| 13> *xyz 1 1
| 14> Sc   1.60574807  -1.41561281  -1.56890463
| 15> C    0.46648987  -0.71294544   0.23838021
| 16> N   -0.46503236  -1.40397812   0.92126985
| 17> C   -0.88476654  -0.70291865   2.01694599
| 18> C   -0.22460354   0.47882787   1.99394283
| 19> N    0.62158714   0.43952887   0.92106402
| 20> C    1.51011255   1.53322474   0.57011781
| 21> H    1.86291989   2.06280256   1.45228575
| 22> H    1.00375071   2.24893453  -0.07305535
| 23> H    2.38961637   1.15342805   0.05499632
| 24> C   -0.98343084  -2.72150230   0.58951818
| 25> H   -0.42800857  -3.14704335  -0.24246168
| 26> H   -2.03165624  -2.65493782   0.30692765
| 27> H   -0.87775395  -3.38566595   1.44421796
| 28> H   -1.61028682  -1.08364311   2.71586988
| 29> H   -0.29053298   1.31085328   2.67419499
| 30> C   -0.36351303   1.62601225  -2.77635276
| 31> H   -0.92392319   1.18950470  -3.60204983
| 32> H   -0.53184253   2.70614790  -2.81000364
| 33> H   -0.80104919   1.25308402  -1.84889738
| 34> H    0.95619710   1.22591493  -2.97801423
| 35> *
| 36>
| 37>                          ****END OF INPUT****

CARTESIAN COORDINATES (ANGSTROEM)
---------------------------------
  Sc     1.605748   -1.415613   -1.568905
  C      0.466490   -0.712945    0.238380
  N     -0.465032   -1.403978    0.921270
  C     -0.884767   -0.702919    2.016946
  C     -0.224604    0.478828    1.993943
  N      0.621587    0.439529    0.921064
  C      1.510113    1.533225    0.570118
  H      1.862920    2.062803    1.452286
  H      1.003751    2.248935   -0.073055
  H      2.389616    1.153428    0.054996
  C     -0.983431   -2.721502    0.589518
  H     -0.428009   -3.147043   -0.242462
  H     -2.031656   -2.654938    0.306928
  H     -0.877754   -3.385666    1.444218
  H     -1.610287   -1.083643    2.715870
  H     -0.290533    1.310853    2.674195
  C     -0.363513    1.626012   -2.776353
  H     -0.923923    1.189505   -3.602050
  H     -0.531843    2.706148   -2.810004
  H     -0.801049    1.253084   -1.848897
  H      0.956197    1.225915   -2.978014

 Total Charge           Charge          ....    1
 Multiplicity           Mult            ....    1
 Number of Electrons    NEL             ....   82
 Basis Dimension        Dim             ....  175

ORBITAL ENERGIES
----------------

  NO   OCC          E(Eh)            E(eV)
   0   2.0000    -162.907821     -4432.9472
   1   2.0000     -18.218279      -495.7446
   2   2.0000     -15.059384      -409.7867
   3   2.0000     -15.057167      -409.7263
   4   2.0000     -15.042726      -409.3334
   5   2.0000     -14.870685      -404.6519
   6   2.0000     -14.870583      -404.6491
   7   2.0000     -10.651804      -289.8503
   8   2.0000     -10.633097      -289.3413
   9   2.0000     -10.631632      -289.3014
  10   2.0000     -10.623113      -289.0696
  11   2.0000     -10.622380      -289.0497
  12   2.0000     -10.568427      -287.5815
  13   2.0000      -2.426703       -66.0340
  14   2.0000      -1.574393       -42.8414
  15   2.0000      -1.567852       -42.6634
  16   2.0000      -1.557251       -42.3749
  17   2.0000      -1.317623       -35.8543
  18   2.0000      -1.194675       -32.5088
  19   2.0000      -1.028489       -27.9866
  20   2.0000      -0.986982       -26.8572
  21   2.0000      -0.930406       -25.3176
  22   2.0000      -0.882961       -24.0266
  23   2.0000      -0.849220       -23.1085
  24   2.0000      -0.809614       -22.0307
  25   2.0000      -0.756051       -20.5732
  26   2.0000      -0.708151       -19.2698
  27   2.0000      -0.680359       -18.5135
  28   2.0000      -0.663786       -18.0625
  29   2.0000      -0.659908       -17.9570
  30   2.0000      -0.653717       -17.7885
  31   2.0000      -0.605480       -16.4759
  32   2.0000      -0.601565       -16.3694
  33   2.0000      -0.594405       -16.1746
  34   2.0000      -0.570380       -15.5208
  35   2.0000      -0.566407       -15.4127
  36   2.0000      -0.530340       -14.4313
  37   2.0000      -0.523403       -14.2425
  38   2.0000      -0.491602       -13.3772
  39   2.0000      -0.441142       -12.0041
  40   2.0000      -0.328136        -8.9290
  41   0.0000      -0.186988        -5.0882
  42   0.0000      -0.183725        -4.9994
  43   0.0000      -0.183415        -4.9910
  44   0.0000      -0.170736        -4.6460
  45   0.0000      -0.167507        -4.5581

MULLIKEN ATOMIC CHARGES
-----------------------
   0 Sc:    0.512970
   1 C :    0.209385
   2 N :   -0.413523
   3 C :   -0.062481
   4 C :   -0.063818
   5 N :   -0.420201
   6 C :   -0.527141
   7 H :    0.281988
   8 H :    0.282937
   9 H :    0.259527
  10 C :   -0.518332
  11 H :    0.254625
  12 H :    0.280756
  13 H :    0.279324
  14 H :    0.306277
  15 H :    0.306133
  16 C :   -0.848877
  17 H :    0.265607
  18 H :    0.267314
  19 H :    0.219808
  20 H :    0.127722
Sum of atomic charges:    1.0000000

LOEWDIN ATOMIC CHARGES
----------------------
   0 Sc:    0.356064
   1 C :   -0.047692
   2 N :    0.011153
   3 C :   -0.078530
   4 C :   -0.075095
   5 N :    0.009518
   6 C :   -0.239555
   7 H :    0.158085
   8 H :    0.154010
   9 H :    0.151972
  10 C :   -0.237073
  11 H :    0.150090
  12 H :    0.155662
  13 H :    0.156595
  14 H :    0.170338
  15 H :    0.169886
  16 C :   -0.501798
  17 H :    0.146332
  18 H :    0.151352
  19 H :    0.126413
  20 H :    0.112275

  Mayer bond orders larger than 0.100000
B(  0-Sc,  1-C ) :   0.6980 B(  1-C ,  2-N ) :   1.2272 B(  1-C ,  5-N ) :   1.2214
B(  2-N ,  3-C ) :   1.1602 B(  2-N , 10-C ) :   0.9094 B(  3-C ,  4-C ) :   1.6237
B(  3-C , 14-H ) :   0.8770 B(  4-C ,  5-N ) :   1.1588 B(  4-C , 15-H ) :   0.8773
B(  5-N ,  6-C ) :   0.9093 B(  6-C ,  7-H ) :   0.8981 B(  6-C ,  8-H ) :   0.8869
B(  6-C ,  9-H ) :   0.8965 B( 10-C , 11-H ) :   0.8918 B( 10-C , 12-H ) :   0.8924
B( 10-C , 13-H ) :   0.8950 B( 16-C , 17-H ) :   0.9078 B( 16-C , 18-H ) :   0.9089
B( 16-C , 19-H ) :   0.9143 B( 16-C , 20-H ) :   0.9271

Dispersion correction           -0.011053802
FINAL SINGLE POINT ENERGY     -1104.416079282793
Dispersion correction            ... done

DIPOLE MOMENT
-------------
                                X             Y             Z
Electronic contribution:      9.40915     -11.25914      -2.50297
Nuclear contribution   :     -9.27795      10.94687       2.47959
                        -----------------------------------------
Total Dipole Moment    :      0.13120      -0.31227      -0.02338
                        -----------------------------------------
Magnitude (a.u.)       :      0.33952
Magnitude (Debye)      :      0.86299

Rotational constants in cm-1:     0.040661     0.030425     0.023043
Rotational constants in MHz :  1218.993600   912.131690   690.797512

                             ****ORCA TERMINATED NORMALLY****
TOTAL RUN TIME: 0 days 0 hours 5 minutes 2 seconds 673 msec
