                         Program Version 5.0.3 -  RELEASE  -
|  1> ! EnGrad PBEh-3c
|  2> %output
|  3> xyzfile=True
|  4> end
|  5> %scf
|  6> maxiter 250
|  7> end
|  8> %output
|  9> Print[P_Hirshfeld] = 1
| 10> end
| 11> % maxcore
| 12> 4000
| 13> *xyz 1 1
| 14> Sc   1.64299890  -1.41742100  -1.53107195
| 15> C    0.46028983  -0.70263486   0.23047591
| 16> N   -0.46774392  -1.39736940   0.92674777
| 17> C   -0.87963907  -0.69970610   2.02072592
| 18> C   -0.21052105   0.45901362   2.02715436
| 19> N    0.59875221   0.45006541   0.93334814
| 20> C    1.50647822   1.55146506   0.56050263
| 21> H    1.81894871   2.08780035   1.45801561
| 22> H    1.00132017   2.23709238  -0.09696310
| 23> H    2.39440391   1.16474053   0.08698683
| 24> C   -0.98675083  -2.71266662   0.58442015
| 25> H   -0.45579114  -3.12008579  -0.26998932
| 26> H   -2.04442879  -2.64979944   0.33184653
| 27> H   -0.85761544  -3.39052716   1.42303461
| 28> H   -1.58954061  -1.09950941   2.73382276
| 29> H   -0.26660159   1.29541418   2.70194912
| 30> C   -0.18167149   1.55748526  -2.84280005
| 31> H   -0.96050283   1.26111489  -3.60320885
| 32> H   -0.36705949   2.69017437  -2.83878898
| 33> H   -0.78455225   1.29530319  -1.85245204
| 34> H    0.62932139   1.14094570  -2.98338983
| 35> *
| 36>
| 37>                          ****END OF INPUT****

CARTESIAN COORDINATES (ANGSTROEM)
---------------------------------
  Sc     1.642999   -1.417421   -1.531072
  C      0.460290   -0.702635    0.230476
  N     -0.467744   -1.397369    0.926748
  C     -0.879639   -0.699706    2.020726
  C     -0.210521    0.459014    2.027154
  N      0.598752    0.450065    0.933348
  C      1.506478    1.551465    0.560503
  H      1.818949    2.087800    1.458016
  H      1.001320    2.237092   -0.096963
  H      2.394404    1.164741    0.086987
  C     -0.986751   -2.712667    0.584420
  H     -0.455791   -3.120086   -0.269989
  H     -2.044429   -2.649799    0.331847
  H     -0.857615   -3.390527    1.423035
  H     -1.589541   -1.099509    2.733823
  H     -0.266602    1.295414    2.701949
  C     -0.181671    1.557485   -2.842800
  H     -0.960503    1.261115   -3.603209
  H     -0.367059    2.690174   -2.838789
  H     -0.784552    1.295303   -1.852452
  H      0.629321    1.140946   -2.983390

 Total Charge           Charge          ....    1
 Multiplicity           Mult            ....    1
 Number of Electrons    NEL             ....   82
 Basis Dimension        Dim             ....  175

ORBITAL ENERGIES
----------------

  NO   OCC          E(Eh)            E(eV)
   0   2.0000    -162.910503     -4433.0201
   1   2.0000     -18.221212      -495.8244
   2   2.0000     -15.062112      -409.8609
   3   2.0000     -15.060412      -409.8146
   4   2.0000     -15.045483      -409.4084
   5   2.0000     -14.870969      -404.6596
   6   2.0000     -14.870016      -404.6337
   7   2.0000     -10.652788      -289.8771
   8   2.0000     -10.632008      -289.3116
   9   2.0000     -10.630366      -289.2670
  10   2.0000     -10.623385      -289.0770
  11   2.0000     -10.622998      -289.0665
  12   2.0000     -10.538909      -286.7783
  13   2.0000      -2.429558       -66.1116
  14   2.0000      -1.576549       -42.9001
  15   2.0000      -1.571506       -42.7628
  16   2.0000      -1.559847       -42.4456
  17   2.0000      -1.317354       -35.8470
  18   2.0000      -1.191407       -32.4198
  19   2.0000      -1.030289       -28.0356
  20   2.0000      -0.985420       -26.8146
  21   2.0000      -0.931938       -25.3593
  22   2.0000      -0.901034       -24.5184
  23   2.0000      -0.846699       -23.0398
  24   2.0000      -0.811950       -22.0943
  25   2.0000      -0.756204       -20.5774
  26   2.0000      -0.707691       -19.2572
  27   2.0000      -0.677034       -18.4230
  28   2.0000      -0.661332       -17.9958
  29   2.0000      -0.660150       -17.9636
  30   2.0000      -0.653104       -17.7719
  31   2.0000      -0.630302       -17.1514
  32   2.0000      -0.608716       -16.5640
  33   2.0000      -0.602462       -16.3938
  34   2.0000      -0.596966       -16.2443
  35   2.0000      -0.536424       -14.5968
  36   2.0000      -0.531219       -14.4552
  37   2.0000      -0.523352       -14.2411
  38   2.0000      -0.492700       -13.4070
  39   2.0000      -0.442353       -12.0370
  40   2.0000      -0.331427        -9.0186
  41   0.0000      -0.188908        -5.1404
  42   0.0000      -0.186123        -5.0647
  43   0.0000      -0.185777        -5.0552
  44   0.0000      -0.173470        -4.7204
  45   0.0000      -0.169842        -4.6216

MULLIKEN ATOMIC CHARGES
-----------------------
   0 Sc:    0.521069
   1 C :    0.204195
   2 N :   -0.413125
   3 C :   -0.058932
   4 C :   -0.058775
   5 N :   -0.428597
   6 C :   -0.518216
   7 H :    0.277938
   8 H :    0.286680
   9 H :    0.260291
  10 C :   -0.518839
  11 H :    0.253600
  12 H :    0.281649
  13 H :    0.279387
  14 H :    0.304667
  15 H :    0.305464
  16 C :   -0.924246
  17 H :    0.254551
  18 H :    0.257408
  19 H :    0.186721
  20 H :    0.247109
Sum of atomic charges:    1.0000000

LOEWDIN ATOMIC CHARGES
----------------------
   0 Sc:    0.371143
   1 C :   -0.047098
   2 N :    0.012213
   3 C :   -0.079533
   4 C :   -0.075008
   5 N :    0.007208
   6 C :   -0.233992
   7 H :    0.157526
   8 H :    0.155203
   9 H :    0.151299
  10 C :   -0.236876
  11 H :    0.149544
  12 H :    0.156389
  13 H :    0.156135
  14 H :    0.170668
  15 H :    0.169923
  16 C :   -0.534262
  17 H :    0.151007
  18 H :    0.156386
  19 H :    0.124968
  20 H :    0.117156

  Mayer bond orders larger than 0.100000
B(  0-Sc,  1-C ) :   0.6982 B(  1-C ,  2-N ) :   1.2246 B(  1-C ,  5-N ) :   1.2209
B(  2-N ,  3-C ) :   1.1648 B(  2-N , 10-C ) :   0.9100 B(  3-C ,  4-C ) :   1.6155
B(  3-C , 14-H ) :   0.8781 B(  4-C ,  5-N ) :   1.1646 B(  4-C , 15-H ) :   0.8780
B(  5-N ,  6-C ) :   0.9002 B(  6-C ,  7-H ) :   0.9015 B(  6-C ,  8-H ) :   0.8857
B(  6-C ,  9-H ) :   0.8965 B( 10-C , 11-H ) :   0.8929 B( 10-C , 12-H ) :   0.8921
B( 10-C , 13-H ) :   0.8949 B( 16-C , 17-H ) :   0.9223 B( 16-C , 18-H ) :   0.9199
B( 16-C , 19-H ) :   0.9394 B( 16-C , 20-H ) :   0.9041

Dispersion correction           -0.010937153
FINAL SINGLE POINT ENERGY     -1104.408008099137
Dispersion correction            ... done

DIPOLE MOMENT
-------------
                                X             Y             Z
Electronic contribution:      9.95717     -11.36485      -2.25160
Nuclear contribution   :     -9.75070      11.00381       2.30084
                        -----------------------------------------
Total Dipole Moment    :      0.20647      -0.36104       0.04924
                        -----------------------------------------
Magnitude (a.u.)       :      0.41881
Magnitude (Debye)      :      1.06454

Rotational constants in cm-1:     0.041415     0.030333     0.022959
Rotational constants in MHz :  1241.599218   909.374515   688.304534

                             ****ORCA TERMINATED NORMALLY****
TOTAL RUN TIME: 0 days 0 hours 4 minutes 54 seconds 610 msec
