                         Program Version 5.0.3 -  RELEASE  -
|  1> ! EnGrad PBEh-3c
|  2> %output
|  3> xyzfile=True
|  4> end
|  5> %scf
|  6> maxiter 250
|  7> end
|  8> %output
|  9> Print[P_Hirshfeld] = 1
| 10> end
| 11> % maxcore
| 12> 4000
| 13> *xyz 1 1
| 14> Sc   1.66972511  -1.41927579  -1.50517836
| 15> C    0.45259296  -0.69192561   0.23584359
| 16> N   -0.46589667  -1.39424767   0.92390021
| 17> C   -0.88696133  -0.71093666   2.02998139
| 18> C   -0.19618034   0.45851989   2.04970894
| 19> N    0.59538538   0.45818149   0.93028419
| 20> C    1.49560787   1.55823350   0.56591621
| 21> H    1.78727300   2.10277614   1.46081653
| 22> H    0.99706967   2.23291759  -0.11863829
| 23> H    2.40120496   1.16956178   0.10563892
| 24> C   -0.99070526  -2.70525396   0.58221140
| 25> H   -0.47382961  -3.10119900  -0.28955960
| 26> H   -2.05251501  -2.64571649   0.34920353
| 27> H   -0.84372587  -3.39451900   1.40927395
| 28> H   -1.57419750  -1.10839966   2.74293896
| 29> H   -0.24940322   1.28446569   2.72197912
| 30> C   -0.26925889   1.59665128  -2.84442393
| 31> H   -0.96644176   1.30897607  -3.59618710
| 32> H   -0.22720197   2.65367701  -2.86217989
| 33> H   -0.74197785   1.32388691  -1.88392005
| 34> H    0.53963305   1.02533954  -3.00694997
| 35> *
| 36>
| 37>                          ****END OF INPUT****

CARTESIAN COORDINATES (ANGSTROEM)
---------------------------------
  Sc     1.669725   -1.419276   -1.505178
  C      0.452593   -0.691926    0.235844
  N     -0.465897   -1.394248    0.923900
  C     -0.886961   -0.710937    2.029981
  C     -0.196180    0.458520    2.049709
  N      0.595385    0.458181    0.930284
  C      1.495608    1.558233    0.565916
  H      1.787273    2.102776    1.460817
  H      0.997070    2.232918   -0.118638
  H      2.401205    1.169562    0.105639
  C     -0.990705   -2.705254    0.582211
  H     -0.473830   -3.101199   -0.289560
  H     -2.052515   -2.645716    0.349204
  H     -0.843726   -3.394519    1.409274
  H     -1.574197   -1.108400    2.742939
  H     -0.249403    1.284466    2.721979
  C     -0.269259    1.596651   -2.844424
  H     -0.966442    1.308976   -3.596187
  H     -0.227202    2.653677   -2.862180
  H     -0.741978    1.323887   -1.883920
  H      0.539633    1.025340   -3.006950

 Total Charge           Charge          ....    1
 Multiplicity           Mult            ....    1
 Number of Electrons    NEL             ....   82
 Basis Dimension        Dim             ....  175

ORBITAL ENERGIES
----------------

  NO   OCC          E(Eh)            E(eV)
   0   2.0000    -162.911471     -4433.0465
   1   2.0000     -18.222138      -495.8496
   2   2.0000     -15.063006      -409.8852
   3   2.0000     -15.061420      -409.8421
   4   2.0000     -15.046359      -409.4322
   5   2.0000     -14.872473      -404.7006
   6   2.0000     -14.871465      -404.6731
   7   2.0000     -10.653180      -289.8878
   8   2.0000     -10.634908      -289.3906
   9   2.0000     -10.632701      -289.3305
  10   2.0000     -10.624662      -289.1117
  11   2.0000     -10.624209      -289.0994
  12   2.0000     -10.519335      -286.2456
  13   2.0000      -2.430405       -66.1347
  14   2.0000      -1.577251       -42.9192
  15   2.0000      -1.572551       -42.7913
  16   2.0000      -1.560553       -42.4648
  17   2.0000      -1.317268       -35.8447
  18   2.0000      -1.193506       -32.4769
  19   2.0000      -1.028613       -27.9900
  20   2.0000      -0.987942       -26.8833
  21   2.0000      -0.931376       -25.3440
  22   2.0000      -0.905868       -24.6499
  23   2.0000      -0.850843       -23.1526
  24   2.0000      -0.810010       -22.0415
  25   2.0000      -0.757359       -20.6088
  26   2.0000      -0.708443       -19.2777
  27   2.0000      -0.682175       -18.5629
  28   2.0000      -0.663497       -18.0547
  29   2.0000      -0.661045       -17.9880
  30   2.0000      -0.654790       -17.8178
  31   2.0000      -0.607281       -16.5250
  32   2.0000      -0.604056       -16.4372
  33   2.0000      -0.602179       -16.3861
  34   2.0000      -0.596318       -16.2266
  35   2.0000      -0.556253       -15.1364
  36   2.0000      -0.550901       -14.9908
  37   2.0000      -0.527890       -14.3646
  38   2.0000      -0.493101       -13.4180
  39   2.0000      -0.441976       -12.0268
  40   2.0000      -0.332099        -9.0369
  41   0.0000      -0.189030        -5.1438
  42   0.0000      -0.186712        -5.0807
  43   0.0000      -0.186707        -5.0805
  44   0.0000      -0.174175        -4.7395
  45   0.0000      -0.170934        -4.6513

MULLIKEN ATOMIC CHARGES
-----------------------
   0 Sc:    0.518638
   1 C :    0.209362
   2 N :   -0.412087
   3 C :   -0.059869
   4 C :   -0.063896
   5 N :   -0.426011
   6 C :   -0.517743
   7 H :    0.278845
   8 H :    0.285636
   9 H :    0.258804
  10 C :   -0.519641
  11 H :    0.252777
  12 H :    0.283064
  13 H :    0.279631
  14 H :    0.306671
  15 H :    0.306586
  16 C :   -0.920643
  17 H :    0.262544
  18 H :    0.262329
  19 H :    0.199380
  20 H :    0.215624
Sum of atomic charges:    1.0000000

LOEWDIN ATOMIC CHARGES
----------------------
   0 Sc:    0.370068
   1 C :   -0.049483
   2 N :    0.013162
   3 C :   -0.077276
   4 C :   -0.071558
   5 N :    0.006788
   6 C :   -0.234794
   7 H :    0.157755
   8 H :    0.155344
   9 H :    0.151435
  10 C :   -0.237172
  11 H :    0.149327
  12 H :    0.157044
  13 H :    0.156175
  14 H :    0.169728
  15 H :    0.168793
  16 C :   -0.528201
  17 H :    0.148936
  18 H :    0.149980
  19 H :    0.124022
  20 H :    0.119928

  Mayer bond orders larger than 0.100000
B(  0-Sc,  1-C ) :   0.6969 B(  1-C ,  2-N ) :   1.2263 B(  1-C ,  5-N ) :   1.2213
B(  2-N ,  3-C ) :   1.1641 B(  2-N , 10-C ) :   0.9103 B(  3-C ,  4-C ) :   1.6182
B(  3-C , 14-H ) :   0.8769 B(  4-C ,  5-N ) :   1.1624 B(  4-C , 15-H ) :   0.8773
B(  5-N ,  6-C ) :   0.9016 B(  6-C ,  7-H ) :   0.9008 B(  6-C ,  8-H ) :   0.8860
B(  6-C ,  9-H ) :   0.8964 B( 10-C , 11-H ) :   0.8936 B( 10-C , 12-H ) :   0.8913
B( 10-C , 13-H ) :   0.8944 B( 16-C , 17-H ) :   0.9210 B( 16-C , 18-H ) :   0.9215
B( 16-C , 19-H ) :   0.9383 B( 16-C , 20-H ) :   0.9145

Dispersion correction           -0.010927147
FINAL SINGLE POINT ENERGY     -1104.441334974051
Dispersion correction            ... done

DIPOLE MOMENT
-------------
                                X             Y             Z
Electronic contribution:     10.04129     -11.33388      -2.00778
Nuclear contribution   :     -9.75237      10.91713       2.09397
                        -----------------------------------------
Total Dipole Moment    :      0.28892      -0.41675       0.08618
                        -----------------------------------------
Magnitude (a.u.)       :      0.51437
Magnitude (Debye)      :      1.30743

Rotational constants in cm-1:     0.040783     0.030161     0.022985
Rotational constants in MHz :  1222.638252   904.212237   689.080881

                             ****ORCA TERMINATED NORMALLY****
TOTAL RUN TIME: 0 days 0 hours 4 minutes 57 seconds 711 msec
