                         Program Version 5.0.3 -  RELEASE  -
|  1> ! EnGrad PBEh-3c
|  2> %output
|  3> xyzfile=True
|  4> end
|  5> %scf
|  6> maxiter 250
|  7> end
|  8> %output
|  9> Print[P_Hirshfeld] = 1
| 10> end
| 11> % maxcore
| 12> 4000
| 13> *xyz 1 1
| 14> Sc   1.67945243  -1.41422800  -1.49618575
| 15> C    0.44869082  -0.68359583   0.24052690
| 16> N   -0.46895218  -1.39238429   0.92457660
| 17> C   -0.87686520  -0.71013198   2.03414994
| 18> C   -0.19299632   0.44993099   2.05026346
| 19> N    0.59817609   0.46278222   0.93290576
| 20> C    1.48637511   1.55857449   0.57201207
| 21> H    1.76696656   2.11435750   1.46223458
| 22> H    0.99556896   2.23145804  -0.13147334
| 23> H    2.40400311   1.17390455   0.12058324
| 24> C   -0.99191787  -2.70227425   0.57861031
| 25> H   -0.48435114  -3.08961993  -0.30029890
| 26> H   -2.05593620  -2.64323228   0.36003472
| 27> H   -0.83360855  -3.39671314   1.40090591
| 28> H   -1.56956369  -1.11737464   2.75207740
| 29> H   -0.23903925   1.28140314   2.73947354
| 30> C   -0.35082855   1.60893150  -2.82716602
| 31> H   -0.98357691   1.33397082  -3.60700188
| 32> H   -0.14557874   2.65137967  -2.87672770
| 33> H   -0.72536569   1.34202378  -1.90130435
| 34> H    0.53984271   0.94316089  -3.02746209
| 35> *
| 36>
| 37>                          ****END OF INPUT****

CARTESIAN COORDINATES (ANGSTROEM)
---------------------------------
  Sc     1.679452   -1.414228   -1.496186
  C      0.448691   -0.683596    0.240527
  N     -0.468952   -1.392384    0.924577
  C     -0.876865   -0.710132    2.034150
  C     -0.192996    0.449931    2.050263
  N      0.598176    0.462782    0.932906
  C      1.486375    1.558574    0.572012
  H      1.766967    2.114358    1.462235
  H      0.995569    2.231458   -0.131473
  H      2.404003    1.173905    0.120583
  C     -0.991918   -2.702274    0.578610
  H     -0.484351   -3.089620   -0.300299
  H     -2.055936   -2.643232    0.360035
  H     -0.833609   -3.396713    1.400906
  H     -1.569564   -1.117375    2.752077
  H     -0.239039    1.281403    2.739474
  C     -0.350829    1.608931   -2.827166
  H     -0.983577    1.333971   -3.607002
  H     -0.145579    2.651380   -2.876728
  H     -0.725366    1.342024   -1.901304
  H      0.539843    0.943161   -3.027462

 Total Charge           Charge          ....    1
 Multiplicity           Mult            ....    1
 Number of Electrons    NEL             ....   82
 Basis Dimension        Dim             ....  175

ORBITAL ENERGIES
----------------

  NO   OCC          E(Eh)            E(eV)
   0   2.0000    -162.910805     -4433.0284
   1   2.0000     -18.221389      -495.8292
   2   2.0000     -15.062332      -409.8669
   3   2.0000     -15.060562      -409.8187
   4   2.0000     -15.045663      -409.4133
   5   2.0000     -14.871992      -404.6875
   6   2.0000     -14.871472      -404.6733
   7   2.0000     -10.652988      -289.8825
   8   2.0000     -10.634382      -289.3763
   9   2.0000     -10.632072      -289.3134
  10   2.0000     -10.625469      -289.1337
  11   2.0000     -10.624145      -289.0977
  12   2.0000     -10.524810      -286.3946
  13   2.0000      -2.429638       -66.1138
  14   2.0000      -1.576736       -42.9052
  15   2.0000      -1.571497       -42.7626
  16   2.0000      -1.559828       -42.4451
  17   2.0000      -1.319329       -35.9008
  18   2.0000      -1.195778       -32.5388
  19   2.0000      -1.030927       -28.0529
  20   2.0000      -0.987979       -26.8843
  21   2.0000      -0.931797       -25.3555
  22   2.0000      -0.903010       -24.5721
  23   2.0000      -0.850270       -23.1370
  24   2.0000      -0.811007       -22.0686
  25   2.0000      -0.756683       -20.5904
  26   2.0000      -0.709667       -19.3110
  27   2.0000      -0.680743       -18.5240
  28   2.0000      -0.663546       -18.0560
  29   2.0000      -0.661269       -17.9940
  30   2.0000      -0.655879       -17.8474
  31   2.0000      -0.607893       -16.5416
  32   2.0000      -0.603474       -16.4214
  33   2.0000      -0.596409       -16.2291
  34   2.0000      -0.582164       -15.8415
  35   2.0000      -0.578157       -15.7324
  36   2.0000      -0.547785       -14.9060
  37   2.0000      -0.526316       -14.3218
  38   2.0000      -0.493001       -13.4152
  39   2.0000      -0.443100       -12.0574
  40   2.0000      -0.331043        -9.0081
  41   0.0000      -0.188605        -5.1322
  42   0.0000      -0.186111        -5.0643
  43   0.0000      -0.185872        -5.0578
  44   0.0000      -0.173344        -4.7169
  45   0.0000      -0.170448        -4.6381

MULLIKEN ATOMIC CHARGES
-----------------------
   0 Sc:    0.513884
   1 C :    0.210485
   2 N :   -0.412230
   3 C :   -0.058742
   4 C :   -0.066028
   5 N :   -0.419821
   6 C :   -0.520568
   7 H :    0.279654
   8 H :    0.283101
   9 H :    0.259140
  10 C :   -0.519293
  11 H :    0.253718
  12 H :    0.283139
  13 H :    0.279016
  14 H :    0.305909
  15 H :    0.305326
  16 C :   -0.901709
  17 H :    0.271924
  18 H :    0.257183
  19 H :    0.223685
  20 H :    0.172229
Sum of atomic charges:    1.0000000

LOEWDIN ATOMIC CHARGES
----------------------
   0 Sc:    0.364194
   1 C :   -0.048313
   2 N :    0.012438
   3 C :   -0.078532
   4 C :   -0.073823
   5 N :    0.007984
   6 C :   -0.236915
   7 H :    0.157995
   8 H :    0.154712
   9 H :    0.151918
  10 C :   -0.237078
  11 H :    0.149693
  12 H :    0.157045
  13 H :    0.156118
  14 H :    0.170907
  15 H :    0.170034
  16 C :   -0.515767
  17 H :    0.148696
  18 H :    0.147933
  19 H :    0.124804
  20 H :    0.115956

  Mayer bond orders larger than 0.100000
B(  0-Sc,  1-C ) :   0.6969 B(  1-C ,  2-N ) :   1.2279 B(  1-C ,  5-N ) :   1.2245
B(  2-N ,  3-C ) :   1.1605 B(  2-N , 10-C ) :   0.9101 B(  3-C ,  4-C ) :   1.6247
B(  3-C , 14-H ) :   0.8774 B(  4-C ,  5-N ) :   1.1575 B(  4-C , 15-H ) :   0.8778
B(  5-N ,  6-C ) :   0.9057 B(  6-C ,  7-H ) :   0.9001 B(  6-C ,  8-H ) :   0.8868
B(  6-C ,  9-H ) :   0.8953 B( 10-C , 11-H ) :   0.8933 B( 10-C , 12-H ) :   0.8914
B( 10-C , 13-H ) :   0.8947 B( 16-C , 17-H ) :   0.9144 B( 16-C , 18-H ) :   0.9229
B( 16-C , 19-H ) :   0.9241 B( 16-C , 20-H ) :   0.9262

Dispersion correction           -0.010899592
FINAL SINGLE POINT ENERGY     -1104.445105797330
Dispersion correction            ... done

DIPOLE MOMENT
-------------
                                X             Y             Z
Electronic contribution:      9.99277     -11.25879      -1.91486
Nuclear contribution   :     -9.68401      10.85164       1.98926
                        -----------------------------------------
Total Dipole Moment    :      0.30877      -0.40715       0.07440
                        -----------------------------------------
Magnitude (a.u.)       :      0.51637
Magnitude (Debye)      :      1.31252

Rotational constants in cm-1:     0.040469     0.030125     0.023085
Rotational constants in MHz :  1213.223290   903.118051   692.076464

                             ****ORCA TERMINATED NORMALLY****
TOTAL RUN TIME: 0 days 0 hours 4 minutes 58 seconds 459 msec
