                         Program Version 5.0.3 -  RELEASE  -
|  1> ! EnGrad PBEh-3c
|  2> %output
|  3> xyzfile=True
|  4> end
|  5> %scf
|  6> maxiter 250
|  7> end
|  8> %output
|  9> Print[P_Hirshfeld] = 1
| 10> end
| 11> % maxcore
| 12> 4000
| 13> *xyz 1 1
| 14> Sc   1.69948733  -1.40756107  -1.47720842
| 15> C    0.44325266  -0.67244871   0.24355262
| 16> N   -0.47195698  -1.38749767   0.92525305
| 17> C   -0.86781347  -0.71555227   2.04443477
| 18> C   -0.18428663   0.44728967   2.06049806
| 19> N    0.59774336   0.46723863   0.93935264
| 20> C    1.47420117   1.56344833   0.57604403
| 21> H    1.73134320   2.13407442   1.46555466
| 22> H    0.99371230   2.22643296  -0.15202840
| 23> H    2.40698629   1.18189632   0.14682431
| 24> C   -0.99421993  -2.69693402   0.57373618
| 25> H   -0.50298980  -3.06923329  -0.32015237
| 26> H   -2.06295593  -2.63855230   0.37895793
| 27> H   -0.81640807  -3.40038815   1.38576036
| 28> H   -1.55840674  -1.13053353   2.76518569
| 29> H   -0.22042925   1.27070769   2.76541399
| 30> C   -0.38378436   1.60257590  -2.83620207
| 31> H   -1.02819280   1.37789852  -3.63221851
| 32> H   -0.00239320   2.64531271  -2.90170767
| 33> H   -0.71329403   1.36727747  -1.90055405
| 34> H    0.46135663   0.83802031  -3.04957261
| 35> *
| 36>
| 37>                          ****END OF INPUT****

CARTESIAN COORDINATES (ANGSTROEM)
---------------------------------
  Sc     1.699487   -1.407561   -1.477208
  C      0.443253   -0.672449    0.243553
  N     -0.471957   -1.387498    0.925253
  C     -0.867813   -0.715552    2.044435
  C     -0.184287    0.447290    2.060498
  N      0.597743    0.467239    0.939353
  C      1.474201    1.563448    0.576044
  H      1.731343    2.134074    1.465555
  H      0.993712    2.226433   -0.152028
  H      2.406986    1.181896    0.146824
  C     -0.994220   -2.696934    0.573736
  H     -0.502990   -3.069233   -0.320152
  H     -2.062956   -2.638552    0.378958
  H     -0.816408   -3.400388    1.385760
  H     -1.558407   -1.130534    2.765186
  H     -0.220429    1.270708    2.765414
  C     -0.383784    1.602576   -2.836202
  H     -1.028193    1.377899   -3.632219
  H     -0.002393    2.645313   -2.901708
  H     -0.713294    1.367277   -1.900554
  H      0.461357    0.838020   -3.049573

 Total Charge           Charge          ....    1
 Multiplicity           Mult            ....    1
 Number of Electrons    NEL             ....   82
 Basis Dimension        Dim             ....  175

ORBITAL ENERGIES
----------------

  NO   OCC          E(Eh)            E(eV)
   0   2.0000    -162.910788     -4433.0279
   1   2.0000     -18.221326      -495.8275
   2   2.0000     -15.062300      -409.8660
   3   2.0000     -15.060448      -409.8156
   4   2.0000     -15.045630      -409.4124
   5   2.0000     -14.872098      -404.6904
   6   2.0000     -14.871842      -404.6834
   7   2.0000     -10.652602      -289.8720
   8   2.0000     -10.634850      -289.3890
   9   2.0000     -10.632609      -289.3280
  10   2.0000     -10.626307      -289.1565
  11   2.0000     -10.624375      -289.1039
  12   2.0000     -10.533192      -286.6227
  13   2.0000      -2.429501       -66.1101
  14   2.0000      -1.576697       -42.9041
  15   2.0000      -1.571218       -42.7550
  16   2.0000      -1.559694       -42.4414
  17   2.0000      -1.320512       -35.9330
  18   2.0000      -1.197364       -32.5819
  19   2.0000      -1.031197       -28.0603
  20   2.0000      -0.988256       -26.8918
  21   2.0000      -0.932020       -25.3615
  22   2.0000      -0.898377       -24.4461
  23   2.0000      -0.850829       -23.1522
  24   2.0000      -0.810941       -22.0668
  25   2.0000      -0.756435       -20.5836
  26   2.0000      -0.710363       -19.3299
  27   2.0000      -0.681138       -18.5347
  28   2.0000      -0.664177       -18.0732
  29   2.0000      -0.661356       -17.9964
  30   2.0000      -0.655695       -17.8424
  31   2.0000      -0.607889       -16.5415
  32   2.0000      -0.603537       -16.4231
  33   2.0000      -0.596586       -16.2339
  34   2.0000      -0.590161       -16.0591
  35   2.0000      -0.567270       -15.4362
  36   2.0000      -0.540895       -14.7185
  37   2.0000      -0.525194       -14.2913
  38   2.0000      -0.493398       -13.4260
  39   2.0000      -0.442684       -12.0460
  40   2.0000      -0.330669        -8.9980
  41   0.0000      -0.188461        -5.1283
  42   0.0000      -0.186007        -5.0615
  43   0.0000      -0.185503        -5.0478
  44   0.0000      -0.173125        -4.7110
  45   0.0000      -0.170462        -4.6385

MULLIKEN ATOMIC CHARGES
-----------------------
   0 Sc:    0.509906
   1 C :    0.210877
   2 N :   -0.411860
   3 C :   -0.059702
   4 C :   -0.068192
   5 N :   -0.414449
   6 C :   -0.521417
   7 H :    0.279040
   8 H :    0.281291
   9 H :    0.259422
  10 C :   -0.518779
  11 H :    0.254152
  12 H :    0.283426
  13 H :    0.278610
  14 H :    0.306067
  15 H :    0.305625
  16 C :   -0.887308
  17 H :    0.275130
  18 H :    0.244706
  19 H :    0.231900
  20 H :    0.161556
Sum of atomic charges:    1.0000000

LOEWDIN ATOMIC CHARGES
----------------------
   0 Sc:    0.361154
   1 C :   -0.049275
   2 N :    0.012446
   3 C :   -0.078748
   4 C :   -0.074986
   5 N :    0.009685
   6 C :   -0.238022
   7 H :    0.158061
   8 H :    0.154460
   9 H :    0.151969
  10 C :   -0.236791
  11 H :    0.149904
  12 H :    0.157287
  13 H :    0.156060
  14 H :    0.171288
  15 H :    0.170406
  16 C :   -0.509696
  17 H :    0.150741
  18 H :    0.147898
  19 H :    0.124599
  20 H :    0.111558

  Mayer bond orders larger than 0.100000
B(  0-Sc,  1-C ) :   0.6972 B(  1-C ,  2-N ) :   1.2270 B(  1-C ,  5-N ) :   1.2257
B(  2-N ,  3-C ) :   1.1626 B(  2-N , 10-C ) :   0.9092 B(  3-C ,  4-C ) :   1.6236
B(  3-C , 14-H ) :   0.8772 B(  4-C ,  5-N ) :   1.1585 B(  4-C , 15-H ) :   0.8774
B(  5-N ,  6-C ) :   0.9078 B(  6-C ,  7-H ) :   0.9004 B(  6-C ,  8-H ) :   0.8871
B(  6-C ,  9-H ) :   0.8943 B( 10-C , 11-H ) :   0.8935 B( 10-C , 12-H ) :   0.8914
B( 10-C , 13-H ) :   0.8947 B( 16-C , 17-H ) :   0.9119 B( 16-C , 18-H ) :   0.9278
B( 16-C , 19-H ) :   0.9181 B( 16-C , 20-H ) :   0.9243

Dispersion correction           -0.010883211
FINAL SINGLE POINT ENERGY     -1104.441200416331
Dispersion correction            ... done

DIPOLE MOMENT
-------------
                                X             Y             Z
Electronic contribution:     10.07944     -11.19714      -1.75973
Nuclear contribution   :     -9.74586      10.78620       1.84148
                        -----------------------------------------
Total Dipole Moment    :      0.33358      -0.41094       0.08175
                        -----------------------------------------
Magnitude (a.u.)       :      0.53556
Magnitude (Debye)      :      1.36130

Rotational constants in cm-1:     0.040318     0.029995     0.023137
Rotational constants in MHz :  1208.696193   899.219551   693.628524

                             ****ORCA TERMINATED NORMALLY****
TOTAL RUN TIME: 0 days 0 hours 5 minutes 3 seconds 465 msec
