                         Program Version 5.0.3 -  RELEASE  -
|  1> ! EnGrad PBEh-3c
|  2> %output
|  3> xyzfile=True
|  4> end
|  5> %scf
|  6> maxiter 250
|  7> end
|  8> %output
|  9> Print[P_Hirshfeld] = 1
| 10> end
| 11> % maxcore
| 12> 4000
| 13> *xyz 1 1
| 14> Sc   1.68456539  -1.41252658  -1.49134268
| 15> C    0.44730299  -0.68075105   0.24129907
| 16> N   -0.46971901  -1.39113721   0.92474923
| 17> C   -0.87455517  -0.71151526   2.03677466
| 18> C   -0.19077358   0.44925692   2.05287536
| 19> N    0.59806566   0.46391951   0.93455103
| 20> C    1.48326829   1.55981830   0.57304104
| 21> H    1.75787538   2.11938931   1.46308188
| 22> H    0.99509513   2.23017562  -0.13671905
| 23> H    2.40476443   1.17594408   0.12728004
| 24> C   -0.99250537  -2.70091141   0.57736642
| 25> H   -0.48910778  -3.08441720  -0.30536556
| 26> H   -2.05772766  -2.64203793   0.36486398
| 27> H   -0.82921894  -3.39765101   1.39704072
| 28> H   -1.56671640  -1.12073283   2.75542267
| 29> H   -0.23428992   1.27867363   2.74609362
| 30> C   -0.35923897   1.60730953  -2.82947205
| 31> H   -0.99496302   1.34518130  -3.61343724
| 32> H   -0.10903737   2.64983136  -2.88310266
| 33> H   -0.72228497   1.34846860  -1.90111288
| 34> H    0.51981284   0.91632871  -3.03310476
| 35> *
| 36>
| 37>                          ****END OF INPUT****

CARTESIAN COORDINATES (ANGSTROEM)
---------------------------------
  Sc     1.684565   -1.412527   -1.491343
  C      0.447303   -0.680751    0.241299
  N     -0.469719   -1.391137    0.924749
  C     -0.874555   -0.711515    2.036775
  C     -0.190774    0.449257    2.052875
  N      0.598066    0.463920    0.934551
  C      1.483268    1.559818    0.573041
  H      1.757875    2.119389    1.463082
  H      0.995095    2.230176   -0.136719
  H      2.404764    1.175944    0.127280
  C     -0.992505   -2.700911    0.577366
  H     -0.489108   -3.084417   -0.305366
  H     -2.057728   -2.642038    0.364864
  H     -0.829219   -3.397651    1.397041
  H     -1.566716   -1.120733    2.755423
  H     -0.234290    1.278674    2.746094
  C     -0.359239    1.607310   -2.829472
  H     -0.994963    1.345181   -3.613437
  H     -0.109037    2.649831   -2.883103
  H     -0.722285    1.348469   -1.901113
  H      0.519813    0.916329   -3.033105

 Total Charge           Charge          ....    1
 Multiplicity           Mult            ....    1
 Number of Electrons    NEL             ....   82
 Basis Dimension        Dim             ....  175

ORBITAL ENERGIES
----------------

  NO   OCC          E(Eh)            E(eV)
   0   2.0000    -162.910794     -4433.0281
   1   2.0000     -18.221368      -495.8286
   2   2.0000     -15.062318      -409.8665
   3   2.0000     -15.060528      -409.8178
   4   2.0000     -15.045648      -409.4129
   5   2.0000     -14.872024      -404.6884
   6   2.0000     -14.871575      -404.6761
   7   2.0000     -10.652893      -289.8800
   8   2.0000     -10.634503      -289.3795
   9   2.0000     -10.632211      -289.3172
  10   2.0000     -10.625674      -289.1393
  11   2.0000     -10.624190      -289.0989
  12   2.0000     -10.526508      -286.4409
  13   2.0000      -2.429601       -66.1128
  14   2.0000      -1.576724       -42.9048
  15   2.0000      -1.571425       -42.7606
  16   2.0000      -1.559791       -42.4441
  17   2.0000      -1.319641       -35.9093
  18   2.0000      -1.196195       -32.5501
  19   2.0000      -1.031005       -28.0551
  20   2.0000      -0.988063       -26.8866
  21   2.0000      -0.931876       -25.3576
  22   2.0000      -0.902029       -24.5455
  23   2.0000      -0.850424       -23.1412
  24   2.0000      -0.811007       -22.0686
  25   2.0000      -0.756636       -20.5891
  26   2.0000      -0.709855       -19.3161
  27   2.0000      -0.680850       -18.5269
  28   2.0000      -0.663724       -18.0608
  29   2.0000      -0.661309       -17.9951
  30   2.0000      -0.655850       -17.8466
  31   2.0000      -0.607901       -16.5418
  32   2.0000      -0.603504       -16.4222
  33   2.0000      -0.596403       -16.2289
  34   2.0000      -0.584320       -15.9001
  35   2.0000      -0.575753       -15.6670
  36   2.0000      -0.546193       -14.8627
  37   2.0000      -0.526070       -14.3151
  38   2.0000      -0.493117       -13.4184
  39   2.0000      -0.443001       -12.0547
  40   2.0000      -0.330949        -9.0056
  41   0.0000      -0.188566        -5.1311
  42   0.0000      -0.186083        -5.0636
  43   0.0000      -0.185778        -5.0553
  44   0.0000      -0.173289        -4.7154
  45   0.0000      -0.170451        -4.6382

MULLIKEN ATOMIC CHARGES
-----------------------
   0 Sc:    0.512900
   1 C :    0.210559
   2 N :   -0.412139
   3 C :   -0.058985
   4 C :   -0.066580
   5 N :   -0.418476
   6 C :   -0.520791
   7 H :    0.279508
   8 H :    0.282646
   9 H :    0.259231
  10 C :   -0.519167
  11 H :    0.253833
  12 H :    0.283226
  13 H :    0.278917
  14 H :    0.305954
  15 H :    0.305413
  16 C :   -0.898373
  17 H :    0.272637
  18 H :    0.254483
  19 H :    0.225666
  20 H :    0.169539
Sum of atomic charges:    1.0000000

LOEWDIN ATOMIC CHARGES
----------------------
   0 Sc:    0.363439
   1 C :   -0.048570
   2 N :    0.012456
   3 C :   -0.078581
   4 C :   -0.074116
   5 N :    0.008431
   6 C :   -0.237194
   7 H :    0.158011
   8 H :    0.154641
   9 H :    0.151936
  10 C :   -0.237001
  11 H :    0.149742
  12 H :    0.157109
  13 H :    0.156103
  14 H :    0.171005
  15 H :    0.170126
  16 C :   -0.514202
  17 H :    0.149162
  18 H :    0.147927
  19 H :    0.124754
  20 H :    0.114821

  Mayer bond orders larger than 0.100000
B(  0-Sc,  1-C ) :   0.6970 B(  1-C ,  2-N ) :   1.2276 B(  1-C ,  5-N ) :   1.2248
B(  2-N ,  3-C ) :   1.1610 B(  2-N , 10-C ) :   0.9099 B(  3-C ,  4-C ) :   1.6244
B(  3-C , 14-H ) :   0.8773 B(  4-C ,  5-N ) :   1.1578 B(  4-C , 15-H ) :   0.8777
B(  5-N ,  6-C ) :   0.9062 B(  6-C ,  7-H ) :   0.9002 B(  6-C ,  8-H ) :   0.8869
B(  6-C ,  9-H ) :   0.8951 B( 10-C , 11-H ) :   0.8933 B( 10-C , 12-H ) :   0.8914
B( 10-C , 13-H ) :   0.8947 B( 16-C , 17-H ) :   0.9139 B( 16-C , 18-H ) :   0.9239
B( 16-C , 19-H ) :   0.9228 B( 16-C , 20-H ) :   0.9258

Dispersion correction           -0.010895496
FINAL SINGLE POINT ENERGY     -1104.444638968725
Dispersion correction            ... done

DIPOLE MOMENT
-------------
                                X             Y             Z
Electronic contribution:     10.01569     -11.24271      -1.87505
Nuclear contribution   :     -9.69979      10.83494       1.95154
                        -----------------------------------------
Total Dipole Moment    :      0.31590      -0.40777       0.07649
                        -----------------------------------------
Magnitude (a.u.)       :      0.52146
Magnitude (Debye)      :      1.32543

Rotational constants in cm-1:     0.040432     0.030092     0.023099
Rotational constants in MHz :  1212.114716   902.142984   692.479101

                             ****ORCA TERMINATED NORMALLY****
TOTAL RUN TIME: 0 days 0 hours 5 minutes 0 seconds 71 msec
