                         Program Version 5.0.3 -  RELEASE  -
|  1> ! EnGrad PBEh-3c
|  2> %output
|  3> xyzfile=True
|  4> end
|  5> %scf
|  6> maxiter 250
|  7> end
|  8> %output
|  9> Print[P_Hirshfeld] = 1
| 10> end
| 11> % maxcore
| 12> 4000
| 13> *xyz -1 1
| 14> Pd  -2.09869639  -1.59466574   0.65786861
| 15> Cl  -3.30520611  -3.33628514  -0.33481001
| 16> Cl  -0.37729152  -4.93087200   1.15027494
| 17> Cl  -4.10760162  -0.69307106   1.24430681
| 18> N   -0.99361871   0.01188138   1.40082886
| 19> C   -1.32892676   0.57417698   2.54931673
| 20> C   -0.81668056   1.80373236   2.96966139
| 21> C    0.09342780   2.43844793   2.16056841
| 22> C   -0.08595500   0.59489387   0.59054321
| 23> C    0.47654227   1.83735199   0.95359766
| 24> H    0.51301427   3.39128930   2.46251107
| 25> H   -2.01052790   0.01262199   3.17493796
| 26> H   -1.12938386   2.23070106   3.91164310
| 27> C    0.32153999  -0.09536972  -0.59876369
| 28> C    1.41794792   2.45018057   0.06905058
| 29> C    1.76889253   1.84081135  -1.08668874
| 30> C    1.24830920   0.55559186  -1.44434047
| 31> H    1.84094057   3.41214801   0.33139505
| 32> H    2.47752909   2.33031948  -1.74547422
| 33> C   -0.17316093  -1.37999900  -0.91088898
| 34> C    1.67039639  -0.07974161  -2.62063917
| 35> C    0.23322914  -1.94129151  -2.10835058
| 36> C    1.19161100  -1.33411215  -2.92556580
| 37> H    2.37524078   0.40568953  -3.28498182
| 38> H    1.53454315  -1.80800743  -3.83218349
| 39> H   -0.54024806  -3.82162155  -0.28668628
| 40> H   -0.19587059  -2.87480075  -2.44713504
| 41> *
| 42>
| 43>                          ****END OF INPUT****

CARTESIAN COORDINATES (ANGSTROEM)
---------------------------------
  Pd    -2.098696   -1.594666    0.657869
  Cl    -3.305206   -3.336285   -0.334810
  Cl    -0.377292   -4.930872    1.150275
  Cl    -4.107602   -0.693071    1.244307
  N     -0.993619    0.011881    1.400829
  C     -1.328927    0.574177    2.549317
  C     -0.816681    1.803732    2.969661
  C      0.093428    2.438448    2.160568
  C     -0.085955    0.594894    0.590543
  C      0.476542    1.837352    0.953598
  H      0.513014    3.391289    2.462511
  H     -2.010528    0.012622    3.174938
  H     -1.129384    2.230701    3.911643
  C      0.321540   -0.095370   -0.598764
  C      1.417948    2.450181    0.069051
  C      1.768893    1.840811   -1.086689
  C      1.248309    0.555592   -1.444340
  H      1.840941    3.412148    0.331395
  H      2.477529    2.330319   -1.745474
  C     -0.173161   -1.379999   -0.910889
  C      1.670396   -0.079742   -2.620639
  C      0.233229   -1.941292   -2.108351
  C      1.191611   -1.334112   -2.925566
  H      2.375241    0.405690   -3.284982
  H      1.534543   -1.808007   -3.832183
  H     -0.540248   -3.821622   -0.286686
  H     -0.195871   -2.874801   -2.447135

 Total Charge           Charge          ....   -1
 Multiplicity           Mult            ....    1
 Number of Electrons    NEL             ....  164
 Basis Dimension        Dim             ....  313

ORBITAL ENERGIES
----------------

  NO   OCC          E(Eh)            E(eV)
   0   2.0000    -102.143564     -2779.4677
   1   2.0000    -102.085827     -2777.8966
   2   2.0000    -102.080923     -2777.7631
   3   2.0000     -14.596097      -397.1800
   4   2.0000     -10.410487      -283.2838
   5   2.0000     -10.407363      -283.1987
   6   2.0000     -10.393348      -282.8174
   7   2.0000     -10.385827      -282.6127
   8   2.0000     -10.378687      -282.4184
   9   2.0000     -10.373530      -282.2781
  10   2.0000     -10.372692      -282.2553
  11   2.0000     -10.367542      -282.1152
  12   2.0000     -10.357179      -281.8332
  13   2.0000     -10.352442      -281.7043
  14   2.0000     -10.351198      -281.6704
  15   2.0000     -10.337689      -281.3028
  16   2.0000     -10.335060      -281.2313
  17   2.0000      -9.605233      -261.3717
  18   2.0000      -9.550189      -259.8739
  19   2.0000      -9.544667      -259.7236
  20   2.0000      -7.293203      -198.4581
  21   2.0000      -7.285139      -198.2387
  22   2.0000      -7.284981      -198.2344
  23   2.0000      -7.236043      -196.9027
  24   2.0000      -7.231197      -196.7709
  25   2.0000      -7.230936      -196.7638
  26   2.0000      -7.230717      -196.7578
  27   2.0000      -7.225499      -196.6158
  28   2.0000      -7.225463      -196.6148
  29   2.0000      -3.512190       -95.5716
  30   2.0000      -2.161293       -58.8118
  31   2.0000      -2.152026       -58.5596
  32   2.0000      -2.123661       -57.7878
  33   2.0000      -0.989486       -26.9253
  34   2.0000      -0.881868       -23.9968
  35   2.0000      -0.845422       -23.0051
  36   2.0000      -0.813235       -22.1293
  37   2.0000      -0.776832       -21.1387
  38   2.0000      -0.740567       -20.1519
  39   2.0000      -0.716777       -19.5045
  40   2.0000      -0.714201       -19.4344
  41   2.0000      -0.680748       -18.5241
  42   2.0000      -0.665687       -18.1143
  43   2.0000      -0.645765       -17.5721
  44   2.0000      -0.640685       -17.4339
  45   2.0000      -0.607772       -16.5383
  46   2.0000      -0.571282       -15.5454
  47   2.0000      -0.526939       -14.3387
  48   2.0000      -0.515058       -14.0154
  49   2.0000      -0.494211       -13.4482
  50   2.0000      -0.459595       -12.5062
  51   2.0000      -0.457754       -12.4561
  52   2.0000      -0.429527       -11.6880
  53   2.0000      -0.411418       -11.1952
  54   2.0000      -0.406472       -11.0607
  55   2.0000      -0.402382       -10.9494
  56   2.0000      -0.384418       -10.4605
  57   2.0000      -0.375147       -10.2083
  58   2.0000      -0.353215        -9.6115
  59   2.0000      -0.340703        -9.2710
  60   2.0000      -0.334736        -9.1086
  61   2.0000      -0.313601        -8.5335
  62   2.0000      -0.301936        -8.2161
  63   2.0000      -0.292320        -7.9544
  64   2.0000      -0.290695        -7.9102
  65   2.0000      -0.263448        -7.1688
  66   2.0000      -0.255508        -6.9527
  67   2.0000      -0.248416        -6.7597
  68   2.0000      -0.228955        -6.2302
  69   2.0000      -0.224892        -6.1196
  70   2.0000      -0.218108        -5.9350
  71   2.0000      -0.213209        -5.8017
  72   2.0000      -0.208300        -5.6681
  73   2.0000      -0.203342        -5.5332
  74   2.0000      -0.182740        -4.9726
  75   2.0000      -0.170563        -4.6412
  76   2.0000      -0.165814        -4.5120
  77   2.0000      -0.155345        -4.2271
  78   2.0000      -0.149771        -4.0755
  79   2.0000      -0.143788        -3.9127
  80   2.0000      -0.139788        -3.8038
  81   2.0000      -0.118658        -3.2288
  82   0.0000       0.045718         1.2441
  83   0.0000       0.066267         1.8032
  84   0.0000       0.073656         2.0043
  85   0.0000       0.079700         2.1688
  86   0.0000       0.109996         2.9931

MULLIKEN ATOMIC CHARGES
-----------------------
   0 Pd:    0.191616
   1 Cl:   -0.368550
   2 Cl:   -0.346352
   3 Cl:   -0.402300
   4 N :   -0.575554
   5 C :    0.043938
   6 C :   -0.325012
   7 C :   -0.158518
   8 C :    0.412535
   9 C :    0.027254
  10 H :    0.210381
  11 H :    0.280900
  12 H :    0.219852
  13 C :   -0.021572
  14 C :   -0.304272
  15 C :   -0.284160
  16 C :    0.122243
  17 H :    0.193081
  18 H :    0.194384
  19 C :   -0.109214
  20 C :   -0.323465
  21 C :   -0.356968
  22 C :   -0.189257
  23 H :    0.185957
  24 H :    0.192391
  25 H :    0.274659
  26 H :    0.216002
Sum of atomic charges:   -1.0000000

LOEWDIN ATOMIC CHARGES
----------------------
   0 Pd:   -0.804664
   1 Cl:   -0.114964
   2 Cl:   -0.287594
   3 Cl:   -0.115371
   4 N :    0.037665
   5 C :    0.007744
   6 C :   -0.169572
   7 C :   -0.089254
   8 C :    0.091472
   9 C :   -0.055138
  10 H :    0.135025
  11 H :    0.167295
  12 H :    0.140285
  13 C :   -0.042342
  14 C :   -0.144443
  15 C :   -0.116450
  16 C :   -0.034441
  17 H :    0.129045
  18 H :    0.130064
  19 C :   -0.083298
  20 C :   -0.157912
  21 C :   -0.155999
  22 C :   -0.129835
  23 H :    0.123173
  24 H :    0.124752
  25 H :    0.281872
  26 H :    0.132883

  Mayer bond orders larger than 0.100000
B(  0-Pd,  1-Cl) :   0.8618 B(  0-Pd,  3-Cl) :   0.8271 B(  0-Pd,  4-N ) :   0.4024
B(  0-Pd, 19-C ) :   0.4796 B(  2-Cl, 25-H ) :   0.7861 B(  4-N ,  5-C ) :   1.4619
B(  4-N ,  8-C ) :   1.1516 B(  5-C ,  6-C ) :   1.3228 B(  5-C , 11-H ) :   0.8874
B(  6-C ,  7-C ) :   1.4567 B(  6-C , 12-H ) :   0.9191 B(  7-C ,  9-C ) :   1.2808
B(  7-C , 10-H ) :   0.9290 B(  8-C ,  9-C ) :   1.2185 B(  8-C , 13-C ) :   1.1290
B(  9-C , 14-C ) :   1.1645 B( 13-C , 16-C ) :   1.2675 B( 13-C , 19-C ) :   1.3371
B( 14-C , 15-C ) :   1.6519 B( 14-C , 17-H ) :   0.9302 B( 15-C , 16-C ) :   1.1505
B( 15-C , 18-H ) :   0.9287 B( 16-C , 20-C ) :   1.2856 B( 19-C , 21-C ) :   1.4753
B( 20-C , 22-C ) :   1.4931 B( 20-C , 23-H ) :   0.9316 B( 21-C , 22-C ) :   1.3576
B( 21-C , 26-H ) :   0.9166 B( 22-C , 24-H ) :   0.9222

Dispersion correction           -0.024074583
FINAL SINGLE POINT ENERGY     -2061.399501921166
Dispersion correction            ... done

DIPOLE MOMENT
-------------
                                X             Y             Z
Electronic contribution:    -82.31950     -54.80372      27.42554
Nuclear contribution   :     85.42118      58.29352     -27.17762
                        -----------------------------------------
Total Dipole Moment    :      3.10168       3.48980       0.24791
                        -----------------------------------------
Magnitude (a.u.)       :      4.67553
Magnitude (Debye)      :     11.88426

Rotational constants in cm-1:     0.011005     0.007235     0.005392
Rotational constants in MHz :   329.932176   216.908628   161.633448

                             ****ORCA TERMINATED NORMALLY****
TOTAL RUN TIME: 0 days 0 hours 8 minutes 23 seconds 120 msec
