                         Program Version 5.0.3 -  RELEASE  -
|  1> ! EnGrad PBEh-3c
|  2> %output
|  3> xyzfile=True
|  4> end
|  5> %scf
|  6> maxiter 250
|  7> end
|  8> %output
|  9> Print[P_Hirshfeld] = 1
| 10> end
| 11> % maxcore
| 12> 4000
| 13> *xyz -1 1
| 14> Pd  -2.02941038  -1.60088070   0.54970317
| 15> Cl  -3.29133541  -3.31428594  -0.31423737
| 16> Cl  -0.42726496  -4.78124524   1.02495482
| 17> Cl  -4.11286317  -0.63049696   1.22487297
| 18> N   -1.01983270  -0.01846040   1.40918737
| 19> C   -1.31880368   0.55696325   2.55743956
| 20> C   -0.80493601   1.78113469   2.96830765
| 21> C    0.08339686   2.42142092   2.16127038
| 22> C   -0.08032934   0.58234984   0.60715483
| 23> C    0.48283089   1.84435882   0.94789849
| 24> H    0.51270495   3.38324252   2.45564338
| 25> H   -2.01140279   0.00774986   3.17066603
| 26> H   -1.12449417   2.21332893   3.91762318
| 27> C    0.33562342  -0.10447621  -0.60540603
| 28> C    1.40895291   2.44220224   0.06059262
| 29> C    1.75673306   1.84709872  -1.08086658
| 30> C    1.25596094   0.56843386  -1.45655731
| 31> H    1.82836557   3.41221832   0.33153810
| 32> H    2.46377643   2.33026796  -1.75416414
| 33> C   -0.24337619  -1.41172021  -0.85062673
| 34> C    1.67099625  -0.09030992  -2.61975474
| 35> C    0.24602532  -1.95623729  -2.10300191
| 36> C    1.19203751  -1.30558904  -2.93365542
| 37> H    2.37215383   0.41657916  -3.28495304
| 38> H    1.54083286  -1.81503632  -3.84582782
| 39> H   -0.51034228  -3.88253402  -0.09327436
| 40> H   -0.17457020  -2.89390889  -2.44546207
| 41> *
| 42>
| 43>                          ****END OF INPUT****

CARTESIAN COORDINATES (ANGSTROEM)
---------------------------------
  Pd    -2.029410   -1.600881    0.549703
  Cl    -3.291335   -3.314286   -0.314237
  Cl    -0.427265   -4.781245    1.024955
  Cl    -4.112863   -0.630497    1.224873
  N     -1.019833   -0.018460    1.409187
  C     -1.318804    0.556963    2.557440
  C     -0.804936    1.781135    2.968308
  C      0.083397    2.421421    2.161270
  C     -0.080329    0.582350    0.607155
  C      0.482831    1.844359    0.947898
  H      0.512705    3.383243    2.455643
  H     -2.011403    0.007750    3.170666
  H     -1.124494    2.213329    3.917623
  C      0.335623   -0.104476   -0.605406
  C      1.408953    2.442202    0.060593
  C      1.756733    1.847099   -1.080867
  C      1.255961    0.568434   -1.456557
  H      1.828366    3.412218    0.331538
  H      2.463776    2.330268   -1.754164
  C     -0.243376   -1.411720   -0.850627
  C      1.670996   -0.090310   -2.619755
  C      0.246025   -1.956237   -2.103002
  C      1.192038   -1.305589   -2.933655
  H      2.372154    0.416579   -3.284953
  H      1.540833   -1.815036   -3.845828
  H     -0.510342   -3.882534   -0.093274
  H     -0.174570   -2.893909   -2.445462

 Total Charge           Charge          ....   -1
 Multiplicity           Mult            ....    1
 Number of Electrons    NEL             ....  164
 Basis Dimension        Dim             ....  313

ORBITAL ENERGIES
----------------

  NO   OCC          E(Eh)            E(eV)
   0   2.0000    -102.160802     -2779.9368
   1   2.0000    -102.076104     -2777.6320
   2   2.0000    -102.070232     -2777.4722
   3   2.0000     -14.595566      -397.1655
   4   2.0000     -10.408908      -283.2408
   5   2.0000     -10.402956      -283.0788
   6   2.0000     -10.390003      -282.7264
   7   2.0000     -10.381999      -282.5086
   8   2.0000     -10.375247      -282.3248
   9   2.0000     -10.369867      -282.1784
  10   2.0000     -10.368918      -282.1526
  11   2.0000     -10.365865      -282.0695
  12   2.0000     -10.358975      -281.8820
  13   2.0000     -10.352212      -281.6980
  14   2.0000     -10.347701      -281.5752
  15   2.0000     -10.346069      -281.5309
  16   2.0000     -10.342626      -281.4372
  17   2.0000      -9.626125      -261.9402
  18   2.0000      -9.540456      -259.6090
  19   2.0000      -9.533707      -259.4254
  20   2.0000      -7.313855      -199.0201
  21   2.0000      -7.305824      -198.8016
  22   2.0000      -7.305637      -198.7965
  23   2.0000      -7.226507      -196.6433
  24   2.0000      -7.221359      -196.5032
  25   2.0000      -7.221091      -196.4959
  26   2.0000      -7.219262      -196.4461
  27   2.0000      -7.215020      -196.3307
  28   2.0000      -7.214749      -196.3233
  29   2.0000      -3.511537       -95.5538
  30   2.0000      -2.160930       -58.8019
  31   2.0000      -2.150080       -58.5067
  32   2.0000      -2.122908       -57.7673
  33   2.0000      -0.982485       -26.7348
  34   2.0000      -0.879574       -23.9344
  35   2.0000      -0.842717       -22.9315
  36   2.0000      -0.810331       -22.0502
  37   2.0000      -0.773290       -21.0423
  38   2.0000      -0.761823       -20.7303
  39   2.0000      -0.736357       -20.0373
  40   2.0000      -0.710281       -19.3277
  41   2.0000      -0.670378       -18.2419
  42   2.0000      -0.655860       -17.8468
  43   2.0000      -0.642312       -17.4782
  44   2.0000      -0.634691       -17.2708
  45   2.0000      -0.603640       -16.4259
  46   2.0000      -0.564932       -15.3726
  47   2.0000      -0.524926       -14.2840
  48   2.0000      -0.511188       -13.9101
  49   2.0000      -0.490718       -13.3531
  50   2.0000      -0.456039       -12.4095
  51   2.0000      -0.453735       -12.3467
  52   2.0000      -0.425462       -11.5774
  53   2.0000      -0.407244       -11.0817
  54   2.0000      -0.401995       -10.9388
  55   2.0000      -0.397743       -10.8232
  56   2.0000      -0.379495       -10.3266
  57   2.0000      -0.370041       -10.0693
  58   2.0000      -0.359436        -9.7807
  59   2.0000      -0.344170        -9.3653
  60   2.0000      -0.338873        -9.2212
  61   2.0000      -0.330081        -8.9820
  62   2.0000      -0.312244        -8.4966
  63   2.0000      -0.299737        -8.1562
  64   2.0000      -0.281825        -7.6689
  65   2.0000      -0.262306        -7.1377
  66   2.0000      -0.249264        -6.7828
  67   2.0000      -0.242488        -6.5984
  68   2.0000      -0.236717        -6.4414
  69   2.0000      -0.233672        -6.3585
  70   2.0000      -0.229696        -6.2503
  71   2.0000      -0.218255        -5.9390
  72   2.0000      -0.209654        -5.7050
  73   2.0000      -0.208548        -5.6749
  74   2.0000      -0.179934        -4.8962
  75   2.0000      -0.172546        -4.6952
  76   2.0000      -0.166715        -4.5365
  77   2.0000      -0.150236        -4.0881
  78   2.0000      -0.145563        -3.9610
  79   2.0000      -0.136644        -3.7183
  80   2.0000      -0.135035        -3.6745
  81   2.0000      -0.118566        -3.2264
  82   0.0000       0.049322         1.3421
  83   0.0000       0.072258         1.9663
  84   0.0000       0.087199         2.3728
  85   0.0000       0.110470         3.0060
  86   0.0000       0.144023         3.9191

MULLIKEN ATOMIC CHARGES
-----------------------
   0 Pd:    0.194322
   1 Cl:   -0.368842
   2 Cl:   -0.325102
   3 Cl:   -0.445021
   4 N :   -0.570974
   5 C :    0.046285
   6 C :   -0.325937
   7 C :   -0.160421
   8 C :    0.367260
   9 C :    0.061873
  10 H :    0.205638
  11 H :    0.278179
  12 H :    0.218656
  13 C :   -0.043028
  14 C :   -0.296647
  15 C :   -0.278670
  16 C :    0.166743
  17 H :    0.190305
  18 H :    0.192485
  19 C :   -0.144973
  20 C :   -0.321746
  21 C :   -0.372639
  22 C :   -0.171977
  23 H :    0.181741
  24 H :    0.189543
  25 H :    0.315777
  26 H :    0.217171
Sum of atomic charges:   -1.0000000

LOEWDIN ATOMIC CHARGES
----------------------
   0 Pd:   -0.807369
   1 Cl:   -0.103614
   2 Cl:   -0.202418
   3 Cl:   -0.200333
   4 N :    0.037858
   5 C :    0.007247
   6 C :   -0.172698
   7 C :   -0.087587
   8 C :    0.098320
   9 C :   -0.059874
  10 H :    0.132795
  11 H :    0.165050
  12 H :    0.141188
  13 C :   -0.033356
  14 C :   -0.144476
  15 C :   -0.117115
  16 C :   -0.039384
  17 H :    0.128800
  18 H :    0.129856
  19 C :   -0.060404
  20 C :   -0.156686
  21 C :   -0.150325
  22 C :   -0.135979
  23 H :    0.121400
  24 H :    0.125828
  25 H :    0.249358
  26 H :    0.133917

  Mayer bond orders larger than 0.100000
B(  0-Pd,  1-Cl) :   0.8913 B(  0-Pd,  3-Cl) :   0.7537 B(  0-Pd,  4-N ) :   0.4077
B(  0-Pd, 19-C ) :   0.5916 B(  2-Cl, 25-H ) :   0.8375 B(  4-N ,  5-C ) :   1.4833
B(  4-N ,  8-C ) :   1.1281 B(  5-C ,  6-C ) :   1.3119 B(  5-C , 11-H ) :   0.8875
B(  6-C ,  7-C ) :   1.4621 B(  6-C , 12-H ) :   0.9203 B(  7-C ,  9-C ) :   1.2722
B(  7-C , 10-H ) :   0.9302 B(  8-C ,  9-C ) :   1.2416 B(  8-C , 13-C ) :   1.1533
B(  9-C , 14-C ) :   1.1659 B( 13-C , 16-C ) :   1.2488 B( 13-C , 19-C ) :   1.2507
B( 14-C , 15-C ) :   1.6400 B( 14-C , 17-H ) :   0.9305 B( 15-C , 16-C ) :   1.1581
B( 15-C , 18-H ) :   0.9283 B( 16-C , 20-C ) :   1.2786 B( 19-C , 21-C ) :   1.4548
B( 20-C , 22-C ) :   1.4976 B( 20-C , 23-H ) :   0.9305 B( 21-C , 22-C ) :   1.3412
B( 21-C , 26-H ) :   0.9165 B( 22-C , 24-H ) :   0.9250

Dispersion correction           -0.023844902
FINAL SINGLE POINT ENERGY     -2061.462335438316
Dispersion correction            ... done

DIPOLE MOMENT
-------------
                                X             Y             Z
Electronic contribution:    -78.30439     -56.36092      22.39455
Nuclear contribution   :     81.72418      59.24741     -22.03504
                        -----------------------------------------
Total Dipole Moment    :      3.41979       2.88649       0.35951
                        -----------------------------------------
Magnitude (a.u.)       :      4.48955
Magnitude (Debye)      :     11.41152

Rotational constants in cm-1:     0.011271     0.007454     0.005493
Rotational constants in MHz :   337.885442   223.477691   164.688557

                             ****ORCA TERMINATED NORMALLY****
TOTAL RUN TIME: 0 days 0 hours 9 minutes 9 seconds 36 msec
