                         Program Version 5.0.3 -  RELEASE  -
|  1> ! EnGrad PBEh-3c
|  2> %output
|  3> xyzfile=True
|  4> end
|  5> %scf
|  6> maxiter 250
|  7> end
|  8> %output
|  9> Print[P_Hirshfeld] = 1
| 10> end
| 11> % maxcore
| 12> 4000
| 13> *xyz -1 1
| 14> Pd  -2.01150089  -1.59244900   0.51421652
| 15> Cl  -3.28890372  -3.30851217  -0.30908269
| 16> Cl  -0.44742005  -4.71663503   0.97757052
| 17> Cl  -4.10528444  -0.60445092   1.20990921
| 18> N   -1.01173282  -0.02194278   1.40230502
| 19> C   -1.32040429   0.54230966   2.55876787
| 20> C   -0.80328581   1.77235714   2.97667207
| 21> C    0.08877893   2.42373656   2.15812005
| 22> C   -0.07815639   0.57548030   0.60808007
| 23> C    0.47476123   1.83246804   0.95091427
| 24> H    0.50961938   3.37603343   2.45275844
| 25> H   -2.01316048   0.00362286   3.17180838
| 26> H   -1.12026202   2.20246244   3.91671796
| 27> C    0.32830257  -0.11287943  -0.59522193
| 28> C    1.40560228   2.45210050   0.06745006
| 29> C    1.75801317   1.84551553  -1.09397259
| 30> C    1.25099649   0.56134370  -1.45493015
| 31> H    1.82105629   3.40952025   0.32999467
| 32> H    2.45552104   2.33077049  -1.75627484
| 33> C   -0.24596982  -1.41893408  -0.85746124
| 34> C    1.68177333  -0.07012274  -2.62175002
| 35> C    0.24079103  -1.95498595  -2.08121946
| 36> C    1.18250375  -1.32375095  -2.93921023
| 37> H    2.36872467   0.41966208  -3.28414156
| 38> H    1.54101019  -1.81207484  -3.84448138
| 39> H   -0.49780080  -3.90550256  -0.01293300
| 40> H   -0.16214562  -2.90229312  -2.44539763
| 41> *
| 42>
| 43>                          ****END OF INPUT****

CARTESIAN COORDINATES (ANGSTROEM)
---------------------------------
  Pd    -2.011501   -1.592449    0.514217
  Cl    -3.288904   -3.308512   -0.309083
  Cl    -0.447420   -4.716635    0.977571
  Cl    -4.105284   -0.604451    1.209909
  N     -1.011733   -0.021943    1.402305
  C     -1.320404    0.542310    2.558768
  C     -0.803286    1.772357    2.976672
  C      0.088779    2.423737    2.158120
  C     -0.078156    0.575480    0.608080
  C      0.474761    1.832468    0.950914
  H      0.509619    3.376033    2.452758
  H     -2.013160    0.003623    3.171808
  H     -1.120262    2.202462    3.916718
  C      0.328303   -0.112879   -0.595222
  C      1.405602    2.452100    0.067450
  C      1.758013    1.845516   -1.093973
  C      1.250996    0.561344   -1.454930
  H      1.821056    3.409520    0.329995
  H      2.455521    2.330770   -1.756275
  C     -0.245970   -1.418934   -0.857461
  C      1.681773   -0.070123   -2.621750
  C      0.240791   -1.954986   -2.081219
  C      1.182504   -1.323751   -2.939210
  H      2.368725    0.419662   -3.284142
  H      1.541010   -1.812075   -3.844481
  H     -0.497801   -3.905503   -0.012933
  H     -0.162146   -2.902293   -2.445398

 Total Charge           Charge          ....   -1
 Multiplicity           Mult            ....    1
 Number of Electrons    NEL             ....  164
 Basis Dimension        Dim             ....  313

ORBITAL ENERGIES
----------------

  NO   OCC          E(Eh)            E(eV)
   0   2.0000    -102.157804     -2779.8552
   1   2.0000    -102.073982     -2777.5743
   2   2.0000    -102.066246     -2777.3638
   3   2.0000     -14.593760      -397.1164
   4   2.0000     -10.406509      -283.1755
   5   2.0000     -10.402722      -283.0725
   6   2.0000     -10.388888      -282.6960
   7   2.0000     -10.381132      -282.4850
   8   2.0000     -10.375096      -282.3207
   9   2.0000     -10.370102      -282.1848
  10   2.0000     -10.369324      -282.1636
  11   2.0000     -10.366047      -282.0745
  12   2.0000     -10.358540      -281.8702
  13   2.0000     -10.355338      -281.7831
  14   2.0000     -10.349084      -281.6129
  15   2.0000     -10.343446      -281.4595
  16   2.0000     -10.341486      -281.4061
  17   2.0000      -9.626909      -261.9615
  18   2.0000      -9.538412      -259.5534
  19   2.0000      -9.529612      -259.3139
  20   2.0000      -7.314230      -199.0303
  21   2.0000      -7.306490      -198.8197
  22   2.0000      -7.306281      -198.8140
  23   2.0000      -7.224443      -196.5871
  24   2.0000      -7.219342      -196.4483
  25   2.0000      -7.219035      -196.4399
  26   2.0000      -7.215086      -196.3325
  27   2.0000      -7.210995      -196.2212
  28   2.0000      -7.210715      -196.2135
  29   2.0000      -3.510102       -95.5147
  30   2.0000      -2.159322       -58.7581
  31   2.0000      -2.148758       -58.4707
  32   2.0000      -2.121517       -57.7294
  33   2.0000      -0.982227       -26.7278
  34   2.0000      -0.875833       -23.8326
  35   2.0000      -0.840087       -22.8599
  36   2.0000      -0.805598       -21.9214
  37   2.0000      -0.786502       -21.4018
  38   2.0000      -0.772920       -21.0322
  39   2.0000      -0.732481       -19.9318
  40   2.0000      -0.711613       -19.3640
  41   2.0000      -0.668345       -18.1866
  42   2.0000      -0.652097       -17.7445
  43   2.0000      -0.641905       -17.4671
  44   2.0000      -0.633761       -17.2455
  45   2.0000      -0.603054       -16.4099
  46   2.0000      -0.567401       -15.4398
  47   2.0000      -0.524276       -14.2663
  48   2.0000      -0.510433       -13.8896
  49   2.0000      -0.490081       -13.3358
  50   2.0000      -0.456128       -12.4119
  51   2.0000      -0.453362       -12.3366
  52   2.0000      -0.424534       -11.5522
  53   2.0000      -0.408053       -11.1037
  54   2.0000      -0.401489       -10.9251
  55   2.0000      -0.397184       -10.8079
  56   2.0000      -0.384314       -10.4577
  57   2.0000      -0.379005       -10.3133
  58   2.0000      -0.368052       -10.0152
  59   2.0000      -0.348381        -9.4799
  60   2.0000      -0.335833        -9.1385
  61   2.0000      -0.331669        -9.0252
  62   2.0000      -0.311041        -8.4639
  63   2.0000      -0.297334        -8.0909
  64   2.0000      -0.284505        -7.7418
  65   2.0000      -0.258426        -7.0321
  66   2.0000      -0.248222        -6.7545
  67   2.0000      -0.244422        -6.6511
  68   2.0000      -0.240297        -6.5388
  69   2.0000      -0.238250        -6.4831
  70   2.0000      -0.230441        -6.2706
  71   2.0000      -0.216525        -5.8919
  72   2.0000      -0.208047        -5.6613
  73   2.0000      -0.205958        -5.6044
  74   2.0000      -0.176603        -4.8056
  75   2.0000      -0.170161        -4.6303
  76   2.0000      -0.166012        -4.5174
  77   2.0000      -0.149267        -4.0618
  78   2.0000      -0.143615        -3.9080
  79   2.0000      -0.134540        -3.6610
  80   2.0000      -0.132639        -3.6093
  81   2.0000      -0.116728        -3.1763
  82   0.0000       0.049361         1.3432
  83   0.0000       0.071601         1.9484
  84   0.0000       0.089682         2.4404
  85   0.0000       0.111974         3.0470
  86   0.0000       0.144935         3.9439

MULLIKEN ATOMIC CHARGES
-----------------------
   0 Pd:    0.186718
   1 Cl:   -0.371474
   2 Cl:   -0.324161
   3 Cl:   -0.454240
   4 N :   -0.573419
   5 C :    0.048011
   6 C :   -0.333262
   7 C :   -0.159822
   8 C :    0.394442
   9 C :    0.048392
  10 H :    0.208012
  11 H :    0.278973
  12 H :    0.218527
  13 C :   -0.028460
  14 C :   -0.302080
  15 C :   -0.285362
  16 C :    0.154775
  17 H :    0.192294
  18 H :    0.193849
  19 C :   -0.132142
  20 C :   -0.330446
  21 C :   -0.368799
  22 C :   -0.183867
  23 H :    0.186766
  24 H :    0.192671
  25 H :    0.330003
  26 H :    0.214098
Sum of atomic charges:   -1.0000000

LOEWDIN ATOMIC CHARGES
----------------------
   0 Pd:   -0.805333
   1 Cl:   -0.104699
   2 Cl:   -0.167415
   3 Cl:   -0.216982
   4 N :    0.039040
   5 C :    0.008076
   6 C :   -0.172312
   7 C :   -0.088995
   8 C :    0.093799
   9 C :   -0.058043
  10 H :    0.133611
  11 H :    0.164616
  12 H :    0.140000
  13 C :   -0.030457
  14 C :   -0.145568
  15 C :   -0.117863
  16 C :   -0.037994
  17 H :    0.128912
  18 H :    0.129791
  19 C :   -0.055545
  20 C :   -0.159488
  21 C :   -0.147685
  22 C :   -0.133946
  23 H :    0.122882
  24 H :    0.125780
  25 H :    0.222047
  26 H :    0.133771

  Mayer bond orders larger than 0.100000
B(  0-Pd,  1-Cl) :   0.8944 B(  0-Pd,  3-Cl) :   0.7371 B(  0-Pd,  4-N ) :   0.4092
B(  0-Pd, 19-C ) :   0.6175 B(  2-Cl, 25-H ) :   0.8372 B(  4-N ,  5-C ) :   1.4762
B(  4-N ,  8-C ) :   1.1294 B(  5-C ,  6-C ) :   1.3183 B(  5-C , 11-H ) :   0.8869
B(  6-C ,  7-C ) :   1.4568 B(  6-C , 12-H ) :   0.9203 B(  7-C ,  9-C ) :   1.2775
B(  7-C , 10-H ) :   0.9295 B(  8-C ,  9-C ) :   1.2277 B(  8-C , 13-C ) :   1.1505
B(  9-C , 14-C ) :   1.1681 B( 13-C , 16-C ) :   1.2466 B( 13-C , 19-C ) :   1.2359
B( 14-C , 15-C ) :   1.6432 B( 14-C , 17-H ) :   0.9300 B( 15-C , 16-C ) :   1.1595
B( 15-C , 18-H ) :   0.9283 B( 16-C , 20-C ) :   1.2888 B( 19-C , 21-C ) :   1.4542
B( 20-C , 22-C ) :   1.4867 B( 20-C , 23-H ) :   0.9296 B( 21-C , 22-C ) :   1.3511
B( 21-C , 26-H ) :   0.9173 B( 22-C , 24-H ) :   0.9241

Dispersion correction           -0.023880259
FINAL SINGLE POINT ENERGY     -2061.477918365519
Dispersion correction            ... done

DIPOLE MOMENT
-------------
                                X             Y             Z
Electronic contribution:    -77.25474     -56.32262      20.77937
Nuclear contribution   :     80.77607      59.08141     -20.40606
                        -----------------------------------------
Total Dipole Moment    :      3.52133       2.75879       0.37332
                        -----------------------------------------
Magnitude (a.u.)       :      4.48888
Magnitude (Debye)      :     11.40983

Rotational constants in cm-1:     0.011377     0.007545     0.005537
Rotational constants in MHz :   341.075974   226.194252   165.987725

                             ****ORCA TERMINATED NORMALLY****
TOTAL RUN TIME: 0 days 0 hours 7 minutes 46 seconds 682 msec
