                         Program Version 5.0.3 -  RELEASE  -
|  1> ! EnGrad PBEh-3c
|  2> %output
|  3> xyzfile=True
|  4> end
|  5> %scf
|  6> maxiter 250
|  7> end
|  8> %output
|  9> Print[P_Hirshfeld] = 1
| 10> end
| 11> % maxcore
| 12> 4000
| 13> *xyz -1 1
| 14> Pd  -2.01268147  -1.58204760   0.50883929
| 15> Cl  -3.28881574  -3.30927482  -0.31134684
| 16> Cl  -0.44876781  -4.71318211   0.98271968
| 17> Cl  -4.09714239  -0.59975997   1.20482465
| 18> N   -1.00200936  -0.01856354   1.39761170
| 19> C   -1.32101563   0.53875369   2.55610950
| 20> C   -0.80166993   1.76971504   2.97719390
| 21> C    0.08898224   2.42257079   2.15906874
| 22> C   -0.07815289   0.57294900   0.60544788
| 23> C    0.47204669   1.82727783   0.95261229
| 24> H    0.50867578   3.37498592   2.45220318
| 25> H   -2.01615829   0.00047391   3.17384406
| 26> H   -1.11896012   2.19885334   3.91680709
| 27> C    0.32211329  -0.11736275  -0.59033458
| 28> C    1.40444446   2.45085845   0.06530421
| 29> C    1.75598009   1.84579608  -1.09268840
| 30> C    1.24652972   0.55524737  -1.44970192
| 31> H    1.81967600   3.41108561   0.33024989
| 32> H    2.45461115   2.33204912  -1.75837915
| 33> C   -0.23556711  -1.41268686  -0.86911238
| 34> C    1.67864430  -0.07286791  -2.62407425
| 35> C    0.23590833  -1.95584397  -2.07505169
| 36> C    1.17951280  -1.32614608  -2.93237325
| 37> H    2.37039017   0.42246340  -3.28615953
| 38> H    1.53914368  -1.81095873  -3.84221347
| 39> H   -0.49681181  -3.89856795  -0.00841407
| 40> H   -0.15789254  -2.90289498  -2.44346279
| 41> *
| 42>
| 43>                          ****END OF INPUT****

CARTESIAN COORDINATES (ANGSTROEM)
---------------------------------
  Pd    -2.012681   -1.582048    0.508839
  Cl    -3.288816   -3.309275   -0.311347
  Cl    -0.448768   -4.713182    0.982720
  Cl    -4.097142   -0.599760    1.204825
  N     -1.002009   -0.018564    1.397612
  C     -1.321016    0.538754    2.556109
  C     -0.801670    1.769715    2.977194
  C      0.088982    2.422571    2.159069
  C     -0.078153    0.572949    0.605448
  C      0.472047    1.827278    0.952612
  H      0.508676    3.374986    2.452203
  H     -2.016158    0.000474    3.173844
  H     -1.118960    2.198853    3.916807
  C      0.322113   -0.117363   -0.590335
  C      1.404444    2.450858    0.065304
  C      1.755980    1.845796   -1.092688
  C      1.246530    0.555247   -1.449702
  H      1.819676    3.411086    0.330250
  H      2.454611    2.332049   -1.758379
  C     -0.235567   -1.412687   -0.869112
  C      1.678644   -0.072868   -2.624074
  C      0.235908   -1.955844   -2.075052
  C      1.179513   -1.326146   -2.932373
  H      2.370390    0.422463   -3.286160
  H      1.539144   -1.810959   -3.842213
  H     -0.496812   -3.898568   -0.008414
  H     -0.157893   -2.902895   -2.443463

 Total Charge           Charge          ....   -1
 Multiplicity           Mult            ....    1
 Number of Electrons    NEL             ....  164
 Basis Dimension        Dim             ....  313

ORBITAL ENERGIES
----------------

  NO   OCC          E(Eh)            E(eV)
   0   2.0000    -102.157339     -2779.8425
   1   2.0000    -102.072887     -2777.5445
   2   2.0000    -102.066549     -2777.3720
   3   2.0000     -14.592966      -397.0948
   4   2.0000     -10.405561      -283.1497
   5   2.0000     -10.403612      -283.0967
   6   2.0000     -10.388927      -282.6971
   7   2.0000     -10.381448      -282.4936
   8   2.0000     -10.375332      -282.3271
   9   2.0000     -10.370410      -282.1932
  10   2.0000     -10.369617      -282.1716
  11   2.0000     -10.366620      -282.0901
  12   2.0000     -10.357277      -281.8358
  13   2.0000     -10.355097      -281.7765
  14   2.0000     -10.349861      -281.6340
  15   2.0000     -10.340038      -281.3667
  16   2.0000     -10.339423      -281.3500
  17   2.0000      -9.626369      -261.9468
  18   2.0000      -9.537235      -259.5214
  19   2.0000      -9.529981      -259.3240
  20   2.0000      -7.313694      -199.0157
  21   2.0000      -7.305957      -198.8052
  22   2.0000      -7.305747      -198.7995
  23   2.0000      -7.223254      -196.5547
  24   2.0000      -7.218180      -196.4167
  25   2.0000      -7.217882      -196.4085
  26   2.0000      -7.215451      -196.3424
  27   2.0000      -7.211358      -196.2310
  28   2.0000      -7.211076      -196.2234
  29   2.0000      -3.508749       -95.4779
  30   2.0000      -2.157880       -58.7189
  31   2.0000      -2.147489       -58.4362
  32   2.0000      -2.120230       -57.6944
  33   2.0000      -0.984433       -26.7878
  34   2.0000      -0.875841       -23.8329
  35   2.0000      -0.840686       -22.8762
  36   2.0000      -0.806650       -21.9500
  37   2.0000      -0.785483       -21.3741
  38   2.0000      -0.773659       -21.0523
  39   2.0000      -0.732769       -19.9397
  40   2.0000      -0.713301       -19.4099
  41   2.0000      -0.667196       -18.1553
  42   2.0000      -0.652502       -17.7555
  43   2.0000      -0.642208       -17.4754
  44   2.0000      -0.634470       -17.2648
  45   2.0000      -0.603828       -16.4310
  46   2.0000      -0.567397       -15.4396
  47   2.0000      -0.524043       -14.2599
  48   2.0000      -0.510888       -13.9020
  49   2.0000      -0.490416       -13.3449
  50   2.0000      -0.455755       -12.4017
  51   2.0000      -0.453793       -12.3483
  52   2.0000      -0.425197       -11.5702
  53   2.0000      -0.408880       -11.1262
  54   2.0000      -0.402092       -10.9415
  55   2.0000      -0.397480       -10.8160
  56   2.0000      -0.383438       -10.4339
  57   2.0000      -0.378956       -10.3119
  58   2.0000      -0.369680       -10.0595
  59   2.0000      -0.347640        -9.4598
  60   2.0000      -0.335864        -9.1393
  61   2.0000      -0.332086        -9.0365
  62   2.0000      -0.310671        -8.4538
  63   2.0000      -0.297952        -8.1077
  64   2.0000      -0.286429        -7.7941
  65   2.0000      -0.259060        -7.0494
  66   2.0000      -0.247541        -6.7359
  67   2.0000      -0.243514        -6.6264
  68   2.0000      -0.239684        -6.5221
  69   2.0000      -0.237231        -6.4554
  70   2.0000      -0.229627        -6.2485
  71   2.0000      -0.215827        -5.8730
  72   2.0000      -0.207276        -5.6403
  73   2.0000      -0.204450        -5.5634
  74   2.0000      -0.176757        -4.8098
  75   2.0000      -0.168880        -4.5955
  76   2.0000      -0.165955        -4.5159
  77   2.0000      -0.149653        -4.0723
  78   2.0000      -0.143082        -3.8935
  79   2.0000      -0.134313        -3.6548
  80   2.0000      -0.132062        -3.5936
  81   2.0000      -0.115995        -3.1564
  82   0.0000       0.049682         1.3519
  83   0.0000       0.072244         1.9659
  84   0.0000       0.090394         2.4597
  85   0.0000       0.111763         3.0412
  86   0.0000       0.145989         3.9726

MULLIKEN ATOMIC CHARGES
-----------------------
   0 Pd:    0.183216
   1 Cl:   -0.374906
   2 Cl:   -0.324910
   3 Cl:   -0.452049
   4 N :   -0.574699
   5 C :    0.046896
   6 C :   -0.334903
   7 C :   -0.156550
   8 C :    0.407881
   9 C :    0.039136
  10 H :    0.208698
  11 H :    0.279801
  12 H :    0.218458
  13 C :   -0.014530
  14 C :   -0.302723
  15 C :   -0.282835
  16 C :    0.135291
  17 H :    0.191889
  18 H :    0.193615
  19 C :   -0.128048
  20 C :   -0.325320
  21 C :   -0.367779
  22 C :   -0.189233
  23 H :    0.187085
  24 H :    0.191515
  25 H :    0.330035
  26 H :    0.214971
Sum of atomic charges:   -1.0000000

LOEWDIN ATOMIC CHARGES
----------------------
   0 Pd:   -0.806719
   1 Cl:   -0.109964
   2 Cl:   -0.169069
   3 Cl:   -0.211361
   4 N :    0.040650
   5 C :    0.008734
   6 C :   -0.171406
   7 C :   -0.090001
   8 C :    0.091097
   9 C :   -0.056406
  10 H :    0.133990
  11 H :    0.165414
  12 H :    0.139661
  13 C :   -0.031070
  14 C :   -0.145022
  15 C :   -0.118720
  16 C :   -0.035389
  17 H :    0.128617
  18 H :    0.129693
  19 C :   -0.058439
  20 C :   -0.159973
  21 C :   -0.147243
  22 C :   -0.132266
  23 H :    0.123065
  24 H :    0.125037
  25 H :    0.222603
  26 H :    0.134488

  Mayer bond orders larger than 0.100000
B(  0-Pd,  1-Cl) :   0.8907 B(  0-Pd,  3-Cl) :   0.7403 B(  0-Pd,  4-N ) :   0.4095
B(  0-Pd, 19-C ) :   0.6140 B(  2-Cl, 25-H ) :   0.8368 B(  4-N ,  5-C ) :   1.4717
B(  4-N ,  8-C ) :   1.1342 B(  5-C ,  6-C ) :   1.3197 B(  5-C , 11-H ) :   0.8865
B(  6-C ,  7-C ) :   1.4544 B(  6-C , 12-H ) :   0.9202 B(  7-C ,  9-C ) :   1.2809
B(  7-C , 10-H ) :   0.9292 B(  8-C ,  9-C ) :   1.2219 B(  8-C , 13-C ) :   1.1427
B(  9-C , 14-C ) :   1.1666 B( 13-C , 16-C ) :   1.2567 B( 13-C , 19-C ) :   1.2391
B( 14-C , 15-C ) :   1.6462 B( 14-C , 17-H ) :   0.9300 B( 15-C , 16-C ) :   1.1574
B( 15-C , 18-H ) :   0.9283 B( 16-C , 20-C ) :   1.2878 B( 19-C , 21-C ) :   1.4651
B( 20-C , 22-C ) :   1.4914 B( 20-C , 23-H ) :   0.9297 B( 21-C , 22-C ) :   1.3473
B( 21-C , 26-H ) :   0.9170 B( 22-C , 24-H ) :   0.9242

Dispersion correction           -0.023903086
FINAL SINGLE POINT ENERGY     -2061.480121124083
Dispersion correction            ... done

DIPOLE MOMENT
-------------
                                X             Y             Z
Electronic contribution:    -77.32731     -55.77239      20.51751
Nuclear contribution   :     80.85540      58.56022     -20.14042
                        -----------------------------------------
Total Dipole Moment    :      3.52809       2.78783       0.37709
                        -----------------------------------------
Magnitude (a.u.)       :      4.51238
Magnitude (Debye)      :     11.46957

Rotational constants in cm-1:     0.011393     0.007560     0.005551
Rotational constants in MHz :   341.550958   226.635835   166.414256

                             ****ORCA TERMINATED NORMALLY****
TOTAL RUN TIME: 0 days 0 hours 7 minutes 53 seconds 901 msec
