                         Program Version 5.0.3 -  RELEASE  -
|  1> ! EnGrad PBEh-3c
|  2> %output
|  3> xyzfile=True
|  4> end
|  5> %scf
|  6> maxiter 250
|  7> end
|  8> %output
|  9> Print[P_Hirshfeld] = 1
| 10> end
| 11> % maxcore
| 12> 4000
| 13> *xyz -1 1
| 14> Pd  -1.98951663  -1.55036216   0.44761765
| 15> Cl  -3.28360694  -3.30224213  -0.31059960
| 16> Cl  -0.47351797  -4.63918167   0.94979834
| 17> Cl  -4.07085322  -0.55741823   1.17810423
| 18> N   -0.98666954  -0.02374935   1.38988533
| 19> C   -1.31796930   0.52080725   2.55164572
| 20> C   -0.79352270   1.74937283   2.97931768
| 21> C    0.08663803   2.41081808   2.16093922
| 22> C   -0.07395507   0.56226814   0.60459422
| 23> C    0.46849564   1.81528789   0.95369283
| 24> H    0.50525022   3.36789800   2.44754573
| 25> H   -2.02481951  -0.01201481   3.17686114
| 26> H   -1.11238020   2.17902902   3.91972557
| 27> C    0.31442017  -0.13126437  -0.58316966
| 28> C    1.39474892   2.44702917   0.06139890
| 29> C    1.74539460   1.84474605  -1.09232591
| 30> C    1.23636279   0.54187036  -1.43920762
| 31> H    1.80858357   3.41432128   0.33042661
| 32> H    2.44387758   2.33527006  -1.76771524
| 33> C   -0.23670287  -1.40843930  -0.87517909
| 34> C    1.66991592  -0.07961317  -2.62778850
| 35> C    0.23052100  -1.96460185  -2.05931840
| 36> C    1.17041095  -1.32751531  -2.91811864
| 37> H    2.37165969   0.43415435  -3.29083863
| 38> H    1.53429826  -1.80934232  -3.83768386
| 39> H   -0.48150169  -3.89898802   0.08624891
| 40> H   -0.13549191  -2.91414107  -2.43563426
| 41> *
| 42>
| 43>                          ****END OF INPUT****

CARTESIAN COORDINATES (ANGSTROEM)
---------------------------------
  Pd    -1.989517   -1.550362    0.447618
  Cl    -3.283607   -3.302242   -0.310600
  Cl    -0.473518   -4.639182    0.949798
  Cl    -4.070853   -0.557418    1.178104
  N     -0.986670   -0.023749    1.389885
  C     -1.317969    0.520807    2.551646
  C     -0.793523    1.749373    2.979318
  C      0.086638    2.410818    2.160939
  C     -0.073955    0.562268    0.604594
  C      0.468496    1.815288    0.953693
  H      0.505250    3.367898    2.447546
  H     -2.024820   -0.012015    3.176861
  H     -1.112380    2.179029    3.919726
  C      0.314420   -0.131264   -0.583170
  C      1.394749    2.447029    0.061399
  C      1.745395    1.844746   -1.092326
  C      1.236363    0.541870   -1.439208
  H      1.808584    3.414321    0.330427
  H      2.443878    2.335270   -1.767715
  C     -0.236703   -1.408439   -0.875179
  C      1.669916   -0.079613   -2.627788
  C      0.230521   -1.964602   -2.059318
  C      1.170411   -1.327515   -2.918119
  H      2.371660    0.434154   -3.290839
  H      1.534298   -1.809342   -3.837684
  H     -0.481502   -3.898988    0.086249
  H     -0.135492   -2.914141   -2.435634

 Total Charge           Charge          ....   -1
 Multiplicity           Mult            ....    1
 Number of Electrons    NEL             ....  164
 Basis Dimension        Dim             ....  313

ORBITAL ENERGIES
----------------

  NO   OCC          E(Eh)            E(eV)
   0   2.0000    -102.149215     -2779.6214
   1   2.0000    -102.069469     -2777.4515
   2   2.0000    -102.062792     -2777.2698
   3   2.0000     -14.591270      -397.0486
   4   2.0000     -10.404501      -283.1209
   5   2.0000     -10.403354      -283.0897
   6   2.0000     -10.388437      -282.6837
   7   2.0000     -10.380778      -282.4753
   8   2.0000     -10.374964      -282.3171
   9   2.0000     -10.370819      -282.2043
  10   2.0000     -10.369878      -282.1787
  11   2.0000     -10.367220      -282.1064
  12   2.0000     -10.355234      -281.7802
  13   2.0000     -10.354672      -281.7649
  14   2.0000     -10.351155      -281.6692
  15   2.0000     -10.338375      -281.3215
  16   2.0000     -10.336516      -281.2709
  17   2.0000      -9.623967      -261.8815
  18   2.0000      -9.533751      -259.4265
  19   2.0000      -9.526221      -259.2216
  20   2.0000      -7.311157      -198.9467
  21   2.0000      -7.303055      -198.7262
  22   2.0000      -7.302824      -198.7199
  23   2.0000      -7.219722      -196.4586
  24   2.0000      -7.214749      -196.3233
  25   2.0000      -7.214430      -196.3146
  26   2.0000      -7.211574      -196.2369
  27   2.0000      -7.207681      -196.1310
  28   2.0000      -7.207378      -196.1227
  29   2.0000      -3.507362       -95.4402
  30   2.0000      -2.155857       -58.6639
  31   2.0000      -2.146779       -58.4168
  32   2.0000      -2.118876       -57.6575
  33   2.0000      -0.987788       -26.8791
  34   2.0000      -0.876180       -23.8421
  35   2.0000      -0.841751       -22.9052
  36   2.0000      -0.815141       -22.1811
  37   2.0000      -0.807950       -21.9854
  38   2.0000      -0.774284       -21.0693
  39   2.0000      -0.733280       -19.9536
  40   2.0000      -0.715068       -19.4580
  41   2.0000      -0.663651       -18.0588
  42   2.0000      -0.649469       -17.6730
  43   2.0000      -0.642002       -17.4698
  44   2.0000      -0.634650       -17.2697
  45   2.0000      -0.604920       -16.4607
  46   2.0000      -0.566827       -15.4242
  47   2.0000      -0.523617       -14.2483
  48   2.0000      -0.510946       -13.9035
  49   2.0000      -0.490457       -13.3460
  50   2.0000      -0.455425       -12.3928
  51   2.0000      -0.452873       -12.3233
  52   2.0000      -0.425232       -11.5711
  53   2.0000      -0.409704       -11.1486
  54   2.0000      -0.405973       -11.0471
  55   2.0000      -0.403351       -10.9757
  56   2.0000      -0.395967       -10.7748
  57   2.0000      -0.378674       -10.3042
  58   2.0000      -0.371292       -10.1034
  59   2.0000      -0.346579        -9.4309
  60   2.0000      -0.336456        -9.1554
  61   2.0000      -0.332992        -9.0612
  62   2.0000      -0.310047        -8.4368
  63   2.0000      -0.299071        -8.1381
  64   2.0000      -0.287381        -7.8200
  65   2.0000      -0.260065        -7.0767
  66   2.0000      -0.249145        -6.7796
  67   2.0000      -0.246574        -6.7096
  68   2.0000      -0.242056        -6.5867
  69   2.0000      -0.238737        -6.4964
  70   2.0000      -0.230496        -6.2721
  71   2.0000      -0.213935        -5.8215
  72   2.0000      -0.205697        -5.5973
  73   2.0000      -0.198330        -5.3968
  74   2.0000      -0.177096        -4.8190
  75   2.0000      -0.168171        -4.5762
  76   2.0000      -0.164865        -4.4862
  77   2.0000      -0.148702        -4.0464
  78   2.0000      -0.140916        -3.8345
  79   2.0000      -0.132110        -3.5949
  80   2.0000      -0.129030        -3.5111
  81   2.0000      -0.114119        -3.1053
  82   0.0000       0.050735         1.3806
  83   0.0000       0.073725         2.0062
  84   0.0000       0.094225         2.5640
  85   0.0000       0.111689         3.0392
  86   0.0000       0.148141         4.0311

MULLIKEN ATOMIC CHARGES
-----------------------
   0 Pd:    0.174355
   1 Cl:   -0.382916
   2 Cl:   -0.319990
   3 Cl:   -0.459503
   4 N :   -0.574709
   5 C :    0.044795
   6 C :   -0.338255
   7 C :   -0.152548
   8 C :    0.422795
   9 C :    0.034077
  10 H :    0.208941
  11 H :    0.280534
  12 H :    0.218099
  13 C :    0.018261
  14 C :   -0.304614
  15 C :   -0.280177
  16 C :    0.106776
  17 H :    0.190922
  18 H :    0.193214
  19 C :   -0.131350
  20 C :   -0.316410
  21 C :   -0.362197
  22 C :   -0.198286
  23 H :    0.187023
  24 H :    0.189043
  25 H :    0.334965
  26 H :    0.217155
Sum of atomic charges:   -1.0000000

LOEWDIN ATOMIC CHARGES
----------------------
   0 Pd:   -0.806929
   1 Cl:   -0.119569
   2 Cl:   -0.130595
   3 Cl:   -0.223541
   4 N :    0.043601
   5 C :    0.009394
   6 C :   -0.170512
   7 C :   -0.090862
   8 C :    0.088206
   9 C :   -0.055089
  10 H :    0.134211
  11 H :    0.166551
  12 H :    0.139255
  13 C :   -0.029906
  14 C :   -0.144096
  15 C :   -0.119826
  16 C :   -0.031701
  17 H :    0.128094
  18 H :    0.129634
  19 C :   -0.051669
  20 C :   -0.160457
  21 C :   -0.143583
  22 C :   -0.130518
  23 H :    0.123212
  24 H :    0.123880
  25 H :    0.186117
  26 H :    0.136696

  Mayer bond orders larger than 0.100000
B(  0-Pd,  1-Cl) :   0.8862 B(  0-Pd,  3-Cl) :   0.7245 B(  0-Pd,  4-N ) :   0.4123
B(  0-Pd, 19-C ) :   0.6529 B(  2-Cl, 25-H ) :   0.8330 B(  4-N ,  5-C ) :   1.4690
B(  4-N ,  8-C ) :   1.1370 B(  5-C ,  6-C ) :   1.3189 B(  5-C , 11-H ) :   0.8857
B(  6-C ,  7-C ) :   1.4513 B(  6-C , 12-H ) :   0.9202 B(  7-C ,  9-C ) :   1.2849
B(  7-C , 10-H ) :   0.9290 B(  8-C ,  9-C ) :   1.2150 B(  8-C , 13-C ) :   1.1326
B(  9-C , 14-C ) :   1.1648 B( 13-C , 16-C ) :   1.2709 B( 13-C , 19-C ) :   1.2161
B( 14-C , 15-C ) :   1.6484 B( 14-C , 17-H ) :   0.9302 B( 15-C , 16-C ) :   1.1550
B( 15-C , 18-H ) :   0.9282 B( 16-C , 20-C ) :   1.2833 B( 19-C , 21-C ) :   1.4736
B( 20-C , 22-C ) :   1.4988 B( 20-C , 23-H ) :   0.9296 B( 21-C , 22-C ) :   1.3407
B( 21-C , 26-H ) :   0.9167 B( 22-C , 24-H ) :   0.9249

Dispersion correction           -0.023980398
FINAL SINGLE POINT ENERGY     -2061.465977818820
Dispersion correction            ... done

DIPOLE MOMENT
-------------
                                X             Y             Z
Electronic contribution:    -76.05336     -54.52112      17.60734
Nuclear contribution   :     79.67615      57.24594     -17.20404
                        -----------------------------------------
Total Dipole Moment    :      3.62279       2.72482       0.40330
                        -----------------------------------------
Magnitude (a.u.)       :      4.55103
Magnitude (Debye)      :     11.56781

Rotational constants in cm-1:     0.011544     0.007697     0.005637
Rotational constants in MHz :   346.068501   230.757621   169.002671

                             ****ORCA TERMINATED NORMALLY****
TOTAL RUN TIME: 0 days 0 hours 7 minutes 43 seconds 761 msec
