                         Program Version 5.0.3 -  RELEASE  -
|  1> ! EnGrad PBEh-3c
|  2> %output
|  3> xyzfile=True
|  4> end
|  5> %scf
|  6> maxiter 250
|  7> end
|  8> %output
|  9> Print[P_Hirshfeld] = 1
| 10> end
| 11> % maxcore
| 12> 4000
| 13> *xyz -1 1
| 14> Pd  -1.98781147  -1.52518143   0.42261304
| 15> Cl  -3.28269188  -3.29998098  -0.31560855
| 16> Cl  -0.48036433  -4.67516556   1.02707266
| 17> Cl  -4.04704908  -0.53503708   1.15907811
| 18> N   -0.98095170  -0.02900283   1.38974289
| 19> C   -1.31644716   0.51195397   2.54920537
| 20> C   -0.79099306   1.73523277   2.98026709
| 21> C    0.08614268   2.40084839   2.16156472
| 22> C   -0.06865162   0.56078922   0.60227113
| 23> C    0.47075335   1.81122303   0.95252522
| 24> H    0.50249905   3.36375846   2.44523799
| 25> H   -2.02847259  -0.02074247   3.17553445
| 26> H   -1.10810547   2.16569373   3.92180569
| 27> C    0.31764849  -0.13158339  -0.58612710
| 28> C    1.38726991   2.44581747   0.06275109
| 29> C    1.73812024   1.83846035  -1.09454715
| 30> C    1.23260486   0.53441990  -1.43445500
| 31> H    1.80052366   3.41499959   0.32998181
| 32> H    2.43521298   2.33583382  -1.77211385
| 33> C   -0.23642617  -1.40463619  -0.87723251
| 34> C    1.66097985  -0.08089413  -2.62552215
| 35> C    0.23302958  -1.97034130  -2.06225056
| 36> C    1.16798665  -1.33291183  -2.91084076
| 37> H    2.36825494   0.43774065  -3.29104751
| 38> H    1.52692961  -1.80732524  -3.82835093
| 39> H   -0.47741171  -3.81824717   0.04710844
| 40> H   -0.12377952  -2.92168039  -2.42769490
| 41> *
| 42>
| 43>                          ****END OF INPUT****

CARTESIAN COORDINATES (ANGSTROEM)
---------------------------------
  Pd    -1.987811   -1.525181    0.422613
  Cl    -3.282692   -3.299981   -0.315609
  Cl    -0.480364   -4.675166    1.027073
  Cl    -4.047049   -0.535037    1.159078
  N     -0.980952   -0.029003    1.389743
  C     -1.316447    0.511954    2.549205
  C     -0.790993    1.735233    2.980267
  C      0.086143    2.400848    2.161565
  C     -0.068652    0.560789    0.602271
  C      0.470753    1.811223    0.952525
  H      0.502499    3.363758    2.445238
  H     -2.028473   -0.020742    3.175534
  H     -1.108105    2.165694    3.921806
  C      0.317648   -0.131583   -0.586127
  C      1.387270    2.445817    0.062751
  C      1.738120    1.838460   -1.094547
  C      1.232605    0.534420   -1.434455
  H      1.800524    3.415000    0.329982
  H      2.435213    2.335834   -1.772114
  C     -0.236426   -1.404636   -0.877233
  C      1.660980   -0.080894   -2.625522
  C      0.233030   -1.970341   -2.062251
  C      1.167987   -1.332912   -2.910841
  H      2.368255    0.437741   -3.291048
  H      1.526930   -1.807325   -3.828351
  H     -0.477412   -3.818247    0.047108
  H     -0.123780   -2.921680   -2.427695

 Total Charge           Charge          ....   -1
 Multiplicity           Mult            ....    1
 Number of Electrons    NEL             ....  164
 Basis Dimension        Dim             ....  313

ORBITAL ENERGIES
----------------

  NO   OCC          E(Eh)            E(eV)
   0   2.0000    -102.155276     -2779.7864
   1   2.0000    -102.068763     -2777.4323
   2   2.0000    -102.065048     -2777.3312
   3   2.0000     -14.592001      -397.0685
   4   2.0000     -10.405173      -283.1391
   5   2.0000     -10.404046      -283.1085
   6   2.0000     -10.389335      -282.7082
   7   2.0000     -10.380670      -282.4724
   8   2.0000     -10.375386      -282.3286
   9   2.0000     -10.372204      -282.2420
  10   2.0000     -10.370935      -282.2075
  11   2.0000     -10.366866      -282.0968
  12   2.0000     -10.354970      -281.7731
  13   2.0000     -10.354097      -281.7493
  14   2.0000     -10.352240      -281.6988
  15   2.0000     -10.339081      -281.3407
  16   2.0000     -10.338405      -281.3223
  17   2.0000      -9.623800      -261.8769
  18   2.0000      -9.532918      -259.4039
  19   2.0000      -9.528612      -259.2867
  20   2.0000      -7.311159      -198.9468
  21   2.0000      -7.303427      -198.7364
  22   2.0000      -7.303205      -198.7303
  23   2.0000      -7.218884      -196.4358
  24   2.0000      -7.213969      -196.3021
  25   2.0000      -7.213937      -196.3012
  26   2.0000      -7.213613      -196.2924
  27   2.0000      -7.210059      -196.1957
  28   2.0000      -7.209740      -196.1870
  29   2.0000      -3.508961       -95.4837
  30   2.0000      -2.157017       -58.6954
  31   2.0000      -2.148912       -58.4749
  32   2.0000      -2.120402       -57.6991
  33   2.0000      -0.989039       -26.9131
  34   2.0000      -0.879027       -23.9195
  35   2.0000      -0.843466       -22.9519
  36   2.0000      -0.809531       -22.0285
  37   2.0000      -0.779997       -21.2248
  38   2.0000      -0.775063       -21.0905
  39   2.0000      -0.736399       -20.0384
  40   2.0000      -0.715644       -19.4737
  41   2.0000      -0.663227       -18.0473
  42   2.0000      -0.651533       -17.7291
  43   2.0000      -0.642847       -17.4928
  44   2.0000      -0.636255       -17.3134
  45   2.0000      -0.606610       -16.5067
  46   2.0000      -0.568808       -15.4781
  47   2.0000      -0.524788       -14.2802
  48   2.0000      -0.512280       -13.9398
  49   2.0000      -0.491665       -13.3789
  50   2.0000      -0.456406       -12.4194
  51   2.0000      -0.454100       -12.3567
  52   2.0000      -0.425563       -11.5802
  53   2.0000      -0.410363       -11.1665
  54   2.0000      -0.405459       -11.0331
  55   2.0000      -0.398965       -10.8564
  56   2.0000      -0.380419       -10.3517
  57   2.0000      -0.378630       -10.3031
  58   2.0000      -0.371701       -10.1145
  59   2.0000      -0.348180        -9.4745
  60   2.0000      -0.338679        -9.2159
  61   2.0000      -0.334562        -9.1039
  62   2.0000      -0.311017        -8.4632
  63   2.0000      -0.300395        -8.1742
  64   2.0000      -0.288187        -7.8420
  65   2.0000      -0.261241        -7.1087
  66   2.0000      -0.248644        -6.7659
  67   2.0000      -0.243451        -6.6246
  68   2.0000      -0.239322        -6.5123
  69   2.0000      -0.236609        -6.4385
  70   2.0000      -0.231539        -6.3005
  71   2.0000      -0.214901        -5.8478
  72   2.0000      -0.207248        -5.6395
  73   2.0000      -0.196102        -5.3362
  74   2.0000      -0.179600        -4.8872
  75   2.0000      -0.169726        -4.6185
  76   2.0000      -0.165887        -4.5140
  77   2.0000      -0.149289        -4.0624
  78   2.0000      -0.141899        -3.8613
  79   2.0000      -0.133043        -3.6203
  80   2.0000      -0.129278        -3.5178
  81   2.0000      -0.115716        -3.1488
  82   0.0000       0.049866         1.3569
  83   0.0000       0.072517         1.9733
  84   0.0000       0.094502         2.5715
  85   0.0000       0.111515         3.0345
  86   0.0000       0.146195         3.9782

MULLIKEN ATOMIC CHARGES
-----------------------
   0 Pd:    0.181520
   1 Cl:   -0.386142
   2 Cl:   -0.327641
   3 Cl:   -0.452491
   4 N :   -0.576630
   5 C :    0.045338
   6 C :   -0.337678
   7 C :   -0.154729
   8 C :    0.421181
   9 C :    0.041690
  10 H :    0.208794
  11 H :    0.280885
  12 H :    0.218338
  13 C :    0.028706
  14 C :   -0.307088
  15 C :   -0.286455
  16 C :    0.111946
  17 H :    0.191614
  18 H :    0.193446
  19 C :   -0.143820
  20 C :   -0.320918
  21 C :   -0.356342
  22 C :   -0.197253
  23 H :    0.186703
  24 H :    0.190070
  25 H :    0.328087
  26 H :    0.218869
Sum of atomic charges:   -1.0000000

LOEWDIN ATOMIC CHARGES
----------------------
   0 Pd:   -0.812631
   1 Cl:   -0.126576
   2 Cl:   -0.177136
   3 Cl:   -0.211430
   4 N :    0.043789
   5 C :    0.009115
   6 C :   -0.170098
   7 C :   -0.089752
   8 C :    0.090473
   9 C :   -0.056357
  10 H :    0.134193
  11 H :    0.167091
  12 H :    0.139482
  13 C :   -0.030724
  14 C :   -0.143711
  15 C :   -0.118261
  16 C :   -0.032331
  17 H :    0.128380
  18 H :    0.129780
  19 C :   -0.051041
  20 C :   -0.158940
  21 C :   -0.144240
  22 C :   -0.130144
  23 H :    0.123377
  24 H :    0.124152
  25 H :    0.226104
  26 H :    0.137435

  Mayer bond orders larger than 0.100000
B(  0-Pd,  1-Cl) :   0.8800 B(  0-Pd,  3-Cl) :   0.7322 B(  0-Pd,  4-N ) :   0.4161
B(  0-Pd, 19-C ) :   0.6556 B(  2-Cl, 25-H ) :   0.8340 B(  4-N ,  5-C ) :   1.4698
B(  4-N ,  8-C ) :   1.1317 B(  5-C ,  6-C ) :   1.3164 B(  5-C , 11-H ) :   0.8856
B(  6-C ,  7-C ) :   1.4535 B(  6-C , 12-H ) :   0.9201 B(  7-C ,  9-C ) :   1.2825
B(  7-C , 10-H ) :   0.9291 B(  8-C ,  9-C ) :   1.2173 B(  8-C , 13-C ) :   1.1330
B(  9-C , 14-C ) :   1.1652 B( 13-C , 16-C ) :   1.2717 B( 13-C , 19-C ) :   1.2215
B( 14-C , 15-C ) :   1.6484 B( 14-C , 17-H ) :   0.9302 B( 15-C , 16-C ) :   1.1525
B( 15-C , 18-H ) :   0.9287 B( 16-C , 20-C ) :   1.2813 B( 19-C , 21-C ) :   1.4653
B( 20-C , 22-C ) :   1.4964 B( 20-C , 23-H ) :   0.9302 B( 21-C , 22-C ) :   1.3491
B( 21-C , 26-H ) :   0.9165 B( 22-C , 24-H ) :   0.9244

Dispersion correction           -0.023988564
FINAL SINGLE POINT ENERGY     -2061.484267092893
Dispersion correction            ... done

DIPOLE MOMENT
-------------
                                X             Y             Z
Electronic contribution:    -76.04362     -53.01477      16.12826
Nuclear contribution   :     79.64114      55.87760     -15.76623
                        -----------------------------------------
Total Dipole Moment    :      3.59752       2.86283       0.36202
                        -----------------------------------------
Magnitude (a.u.)       :      4.61183
Magnitude (Debye)      :     11.72234

Rotational constants in cm-1:     0.011519     0.007676     0.005667
Rotational constants in MHz :   345.316304   230.108240   169.895279

                             ****ORCA TERMINATED NORMALLY****
TOTAL RUN TIME: 0 days 0 hours 7 minutes 20 seconds 872 msec
