                         Program Version 5.0.3 -  RELEASE  -
|  1> ! EnGrad PBEh-3c
|  2> %output
|  3> xyzfile=True
|  4> end
|  5> %scf
|  6> maxiter 250
|  7> end
|  8> %output
|  9> Print[P_Hirshfeld] = 1
| 10> end
| 11> % maxcore
| 12> 4000
| 13> *xyz -1 1
| 14> Pd  -1.97669390  -1.49099358   0.36836033
| 15> Cl  -3.27794237  -3.29136080  -0.32219279
| 16> Cl  -0.49759702  -4.65743462   1.06834134
| 17> Cl  -4.01100201  -0.49094663   1.12731314
| 18> N   -0.97668274  -0.04171621   1.38776019
| 19> C   -1.31553217   0.49280681   2.55051866
| 20> C   -0.78510147   1.71287447   2.98288364
| 21> C    0.08570764   2.38493261   2.16300559
| 22> C   -0.06044233   0.55587678   0.60309938
| 23> C    0.47388709   1.80652415   0.95242482
| 24> H    0.49677903   3.35348577   2.44049074
| 25> H   -2.03178170  -0.03385899   3.16921814
| 26> H   -1.10057983   2.14123595   3.92530988
| 27> C    0.32338587  -0.13264703  -0.58797881
| 28> C    1.37873957   2.44357544   0.05814776
| 29> C    1.72615964   1.83339219  -1.09452818
| 30> C    1.23441997   0.53074390  -1.43657073
| 31> H    1.78505733   3.41441006   0.32861689
| 32> H    2.41692633   2.33410440  -1.77835800
| 33> C   -0.24900295  -1.40880937  -0.87294746
| 34> C    1.65175114  -0.08044175  -2.62277670
| 35> C    0.23755664  -1.97802449  -2.05985541
| 36> C    1.16707835  -1.33595201  -2.90544210
| 37> H    2.35698238   0.44072014  -3.28700925
| 38> H    1.51651394  -1.80707145  -3.81694034
| 39> H   -0.46683002  -3.75159503   0.07667303
| 40> H   -0.10480261  -2.93978249  -2.41557050
| 41> *
| 42>
| 43>                          ****END OF INPUT****

CARTESIAN COORDINATES (ANGSTROEM)
---------------------------------
  Pd    -1.976694   -1.490994    0.368360
  Cl    -3.277942   -3.291361   -0.322193
  Cl    -0.497597   -4.657435    1.068341
  Cl    -4.011002   -0.490947    1.127313
  N     -0.976683   -0.041716    1.387760
  C     -1.315532    0.492807    2.550519
  C     -0.785101    1.712874    2.982884
  C      0.085708    2.384933    2.163006
  C     -0.060442    0.555877    0.603099
  C      0.473887    1.806524    0.952425
  H      0.496779    3.353486    2.440491
  H     -2.031782   -0.033859    3.169218
  H     -1.100580    2.141236    3.925310
  C      0.323386   -0.132647   -0.587979
  C      1.378740    2.443575    0.058148
  C      1.726160    1.833392   -1.094528
  C      1.234420    0.530744   -1.436571
  H      1.785057    3.414410    0.328617
  H      2.416926    2.334104   -1.778358
  C     -0.249003   -1.408809   -0.872947
  C      1.651751   -0.080442   -2.622777
  C      0.237557   -1.978024   -2.059855
  C      1.167078   -1.335952   -2.905442
  H      2.356982    0.440720   -3.287009
  H      1.516514   -1.807071   -3.816940
  H     -0.466830   -3.751595    0.076673
  H     -0.104803   -2.939782   -2.415570

 Total Charge           Charge          ....   -1
 Multiplicity           Mult            ....    1
 Number of Electrons    NEL             ....  164
 Basis Dimension        Dim             ....  313

ORBITAL ENERGIES
----------------

  NO   OCC          E(Eh)            E(eV)
   0   2.0000    -102.154534     -2779.7662
   1   2.0000    -102.067245     -2777.3909
   2   2.0000    -102.065702     -2777.3489
   3   2.0000     -14.592202      -397.0740
   4   2.0000     -10.405243      -283.1410
   5   2.0000     -10.403953      -283.1059
   6   2.0000     -10.389140      -282.7029
   7   2.0000     -10.379740      -282.4471
   8   2.0000     -10.375227      -282.3243
   9   2.0000     -10.371821      -282.2316
  10   2.0000     -10.370611      -282.1987
  11   2.0000     -10.365766      -282.0668
  12   2.0000     -10.355347      -281.7833
  13   2.0000     -10.353468      -281.7322
  14   2.0000     -10.351659      -281.6830
  15   2.0000     -10.341937      -281.4184
  16   2.0000     -10.340156      -281.3699
  17   2.0000      -9.621949      -261.8265
  18   2.0000      -9.531324      -259.3605
  19   2.0000      -9.529402      -259.3082
  20   2.0000      -7.309403      -198.8990
  21   2.0000      -7.301635      -198.6876
  22   2.0000      -7.301409      -198.6814
  23   2.0000      -7.217266      -196.3918
  24   2.0000      -7.214706      -196.3221
  25   2.0000      -7.212374      -196.2587
  26   2.0000      -7.212035      -196.2494
  27   2.0000      -7.210882      -196.2181
  28   2.0000      -7.210525      -196.2084
  29   2.0000      -3.511115       -95.5423
  30   2.0000      -2.158375       -58.7324
  31   2.0000      -2.152075       -58.5609
  32   2.0000      -2.122504       -57.7563
  33   2.0000      -0.988291       -26.8928
  34   2.0000      -0.880999       -23.9732
  35   2.0000      -0.844274       -22.9739
  36   2.0000      -0.810160       -22.0456
  37   2.0000      -0.776330       -21.1250
  38   2.0000      -0.771231       -20.9863
  39   2.0000      -0.737532       -20.0693
  40   2.0000      -0.716463       -19.4959
  41   2.0000      -0.662476       -18.0269
  42   2.0000      -0.652160       -17.7462
  43   2.0000      -0.643395       -17.5077
  44   2.0000      -0.636742       -17.3266
  45   2.0000      -0.607446       -16.5295
  46   2.0000      -0.570330       -15.5195
  47   2.0000      -0.525672       -14.3043
  48   2.0000      -0.513431       -13.9712
  49   2.0000      -0.492360       -13.3978
  50   2.0000      -0.456630       -12.4255
  51   2.0000      -0.455355       -12.3908
  52   2.0000      -0.425885       -11.5889
  53   2.0000      -0.410815       -11.1788
  54   2.0000      -0.406049       -11.0492
  55   2.0000      -0.399782       -10.8786
  56   2.0000      -0.380997       -10.3674
  57   2.0000      -0.374818       -10.1993
  58   2.0000      -0.369858       -10.0643
  59   2.0000      -0.348953        -9.4955
  60   2.0000      -0.340260        -9.2589
  61   2.0000      -0.334932        -9.1140
  62   2.0000      -0.312219        -8.4959
  63   2.0000      -0.301333        -8.1997
  64   2.0000      -0.288823        -7.8593
  65   2.0000      -0.261926        -7.1274
  66   2.0000      -0.253487        -6.8977
  67   2.0000      -0.245695        -6.6857
  68   2.0000      -0.237189        -6.4542
  69   2.0000      -0.236284        -6.4296
  70   2.0000      -0.231786        -6.3072
  71   2.0000      -0.215733        -5.8704
  72   2.0000      -0.208664        -5.6780
  73   2.0000      -0.192196        -5.2299
  74   2.0000      -0.180311        -4.9065
  75   2.0000      -0.172378        -4.6906
  76   2.0000      -0.166596        -4.5333
  77   2.0000      -0.149200        -4.0599
  78   2.0000      -0.142308        -3.8724
  79   2.0000      -0.133337        -3.6283
  80   2.0000      -0.128343        -3.4924
  81   2.0000      -0.116971        -3.1829
  82   0.0000       0.049468         1.3461
  83   0.0000       0.071904         1.9566
  84   0.0000       0.096374         2.6225
  85   0.0000       0.111790         3.0420
  86   0.0000       0.144935         3.9439

MULLIKEN ATOMIC CHARGES
-----------------------
   0 Pd:    0.185864
   1 Cl:   -0.391361
   2 Cl:   -0.330269
   3 Cl:   -0.449363
   4 N :   -0.578595
   5 C :    0.046831
   6 C :   -0.339861
   7 C :   -0.156355
   8 C :    0.418651
   9 C :    0.048923
  10 H :    0.208046
  11 H :    0.281806
  12 H :    0.217959
  13 C :    0.019555
  14 C :   -0.303111
  15 C :   -0.292821
  16 C :    0.133520
  17 H :    0.191820
  18 H :    0.192449
  19 C :   -0.152600
  20 C :   -0.326694
  21 C :   -0.351139
  22 C :   -0.194741
  23 H :    0.186149
  24 H :    0.192138
  25 H :    0.323665
  26 H :    0.219534
Sum of atomic charges:   -1.0000000

LOEWDIN ATOMIC CHARGES
----------------------
   0 Pd:   -0.818071
   1 Cl:   -0.133721
   2 Cl:   -0.190239
   3 Cl:   -0.206114
   4 N :    0.042925
   5 C :    0.009519
   6 C :   -0.169998
   7 C :   -0.089223
   8 C :    0.092228
   9 C :   -0.057523
  10 H :    0.133872
  11 H :    0.166820
  12 H :    0.139447
  13 C :   -0.028152
  14 C :   -0.143093
  15 C :   -0.116845
  16 C :   -0.034294
  17 H :    0.128651
  18 H :    0.129518
  19 C :   -0.045665
  20 C :   -0.157820
  21 C :   -0.142727
  22 C :   -0.130221
  23 H :    0.123373
  24 H :    0.124993
  25 H :    0.234166
  26 H :    0.138195

  Mayer bond orders larger than 0.100000
B(  0-Pd,  1-Cl) :   0.8732 B(  0-Pd,  3-Cl) :   0.7313 B(  0-Pd,  4-N ) :   0.4207
B(  0-Pd, 19-C ) :   0.6842 B(  2-Cl, 25-H ) :   0.8311 B(  4-N ,  5-C ) :   1.4693
B(  4-N ,  8-C ) :   1.1251 B(  5-C ,  6-C ) :   1.3160 B(  5-C , 11-H ) :   0.8849
B(  6-C ,  7-C ) :   1.4539 B(  6-C , 12-H ) :   0.9205 B(  7-C ,  9-C ) :   1.2830
B(  7-C , 10-H ) :   0.9292 B(  8-C ,  9-C ) :   1.2218 B(  8-C , 13-C ) :   1.1383
B(  9-C , 14-C ) :   1.1648 B( 13-C , 16-C ) :   1.2725 B( 13-C , 19-C ) :   1.2107
B( 14-C , 15-C ) :   1.6492 B( 14-C , 17-H ) :   0.9300 B( 15-C , 16-C ) :   1.1511
B( 15-C , 18-H ) :   0.9291 B( 16-C , 20-C ) :   1.2819 B( 19-C , 21-C ) :   1.4532
B( 20-C , 22-C ) :   1.4919 B( 20-C , 23-H ) :   0.9305 B( 21-C , 22-C ) :   1.3554
B( 21-C , 26-H ) :   0.9164 B( 22-C , 24-H ) :   0.9241

Dispersion correction           -0.024064700
FINAL SINGLE POINT ENERGY     -2061.484578902158
Dispersion correction            ... done

DIPOLE MOMENT
-------------
                                X             Y             Z
Electronic contribution:    -75.55078     -51.36275      13.34454
Nuclear contribution   :     79.14421      54.27836     -12.99790
                        -----------------------------------------
Total Dipole Moment    :      3.59343       2.91561       0.34664
                        -----------------------------------------
Magnitude (a.u.)       :      4.64044
Magnitude (Debye)      :     11.79506

Rotational constants in cm-1:     0.011570     0.007728     0.005736
Rotational constants in MHz :   346.855996   231.686855   171.946830

                             ****ORCA TERMINATED NORMALLY****
TOTAL RUN TIME: 0 days 0 hours 7 minutes 53 seconds 779 msec
