                         Program Version 5.0.3 -  RELEASE  -
|  1> ! EnGrad PBEh-3c
|  2> %output
|  3> xyzfile=True
|  4> end
|  5> %scf
|  6> maxiter 250
|  7> end
|  8> %output
|  9> Print[P_Hirshfeld] = 1
| 10> end
| 11> % maxcore
| 12> 4000
| 13> *xyz -1 1
| 14> Pd  -1.97457265  -1.45705754   0.31149323
| 15> Cl  -3.26930964  -3.27879877  -0.33801767
| 16> Cl  -0.50967488  -4.63246487   1.11168979
| 17> Cl  -3.96711867  -0.44162482   1.09283006
| 18> N   -0.97169232  -0.05262199   1.38449023
| 19> C   -1.31088128   0.47278015   2.54843402
| 20> C   -0.77909330   1.68724993   2.98501234
| 21> C    0.08622887   2.36726359   2.16692353
| 22> C   -0.05268819   0.55052283   0.60756271
| 23> C    0.47905963   1.80237457   0.95297314
| 24> H    0.48830510   3.33932647   2.43601192
| 25> H   -2.03661634  -0.05156979   3.15847303
| 26> H   -1.09198680   2.11135850   3.93037672
| 27> C    0.32955131  -0.13564019  -0.59144479
| 28> C    1.37017506   2.44174045   0.05369049
| 29> C    1.71796492   1.83204304  -1.09737749
| 30> C    1.23781010   0.53277704  -1.43852832
| 31> H    1.76642921   3.41295743   0.32520110
| 32> H    2.39222927   2.32874900  -1.78315483
| 33> C   -0.25817554  -1.40963504  -0.87244641
| 34> C    1.64365248  -0.08500711  -2.62444177
| 35> C    0.24035431  -1.98721898  -2.05515900
| 36> C    1.16749710  -1.33210656  -2.89463468
| 37> H    2.33839477   0.43940379  -3.27896663
| 38> H    1.50441706  -1.81253406  -3.80770686
| 39> H   -0.45903904  -3.67757349   0.11884505
| 40> H   -0.08654941  -2.96190926  -2.39858216
| 41> *
| 42>
| 43>                          ****END OF INPUT****

CARTESIAN COORDINATES (ANGSTROEM)
---------------------------------
  Pd    -1.974573   -1.457058    0.311493
  Cl    -3.269310   -3.278799   -0.338018
  Cl    -0.509675   -4.632465    1.111690
  Cl    -3.967119   -0.441625    1.092830
  N     -0.971692   -0.052622    1.384490
  C     -1.310881    0.472780    2.548434
  C     -0.779093    1.687250    2.985012
  C      0.086229    2.367264    2.166924
  C     -0.052688    0.550523    0.607563
  C      0.479060    1.802375    0.952973
  H      0.488305    3.339326    2.436012
  H     -2.036616   -0.051570    3.158473
  H     -1.091987    2.111359    3.930377
  C      0.329551   -0.135640   -0.591445
  C      1.370175    2.441740    0.053690
  C      1.717965    1.832043   -1.097377
  C      1.237810    0.532777   -1.438528
  H      1.766429    3.412957    0.325201
  H      2.392229    2.328749   -1.783155
  C     -0.258176   -1.409635   -0.872446
  C      1.643652   -0.085007   -2.624442
  C      0.240354   -1.987219   -2.055159
  C      1.167497   -1.332107   -2.894635
  H      2.338395    0.439404   -3.278967
  H      1.504417   -1.812534   -3.807707
  H     -0.459039   -3.677573    0.118845
  H     -0.086549   -2.961909   -2.398582

 Total Charge           Charge          ....   -1
 Multiplicity           Mult            ....    1
 Number of Electrons    NEL             ....  164
 Basis Dimension        Dim             ....  313

ORBITAL ENERGIES
----------------

  NO   OCC          E(Eh)            E(eV)
   0   2.0000    -102.152989     -2779.7241
   1   2.0000    -102.067304     -2777.3925
   2   2.0000    -102.066514     -2777.3710
   3   2.0000     -14.591287      -397.0491
   4   2.0000     -10.404723      -283.1269
   5   2.0000     -10.403575      -283.0957
   6   2.0000     -10.388585      -282.6878
   7   2.0000     -10.378756      -282.4203
   8   2.0000     -10.374734      -282.3109
   9   2.0000     -10.370630      -282.1992
  10   2.0000     -10.369805      -282.1767
  11   2.0000     -10.364788      -282.0402
  12   2.0000     -10.355733      -281.7938
  13   2.0000     -10.352205      -281.6978
  14   2.0000     -10.349309      -281.6190
  15   2.0000     -10.343045      -281.4486
  16   2.0000     -10.340841      -281.3886
  17   2.0000      -9.619598      -261.7626
  18   2.0000      -9.531237      -259.3581
  19   2.0000      -9.530574      -259.3401
  20   2.0000      -7.307114      -198.8367
  21   2.0000      -7.299332      -198.6249
  22   2.0000      -7.299104      -198.6187
  23   2.0000      -7.216506      -196.3711
  24   2.0000      -7.216494      -196.3708
  25   2.0000      -7.212733      -196.2685
  26   2.0000      -7.212340      -196.2577
  27   2.0000      -7.211636      -196.2386
  28   2.0000      -7.211294      -196.2293
  29   2.0000      -3.512581       -95.5822
  30   2.0000      -2.159119       -58.7526
  31   2.0000      -2.154571       -58.6289
  32   2.0000      -2.123996       -57.7969
  33   2.0000      -0.988963       -26.9110
  34   2.0000      -0.882367       -24.0104
  35   2.0000      -0.845181       -22.9986
  36   2.0000      -0.810946       -22.0670
  37   2.0000      -0.777407       -21.1543
  38   2.0000      -0.763933       -20.7877
  39   2.0000      -0.737955       -20.0808
  40   2.0000      -0.717667       -19.5287
  41   2.0000      -0.663429       -18.0528
  42   2.0000      -0.653525       -17.7833
  43   2.0000      -0.644126       -17.5276
  44   2.0000      -0.636886       -17.3306
  45   2.0000      -0.608865       -16.5681
  46   2.0000      -0.570911       -15.5353
  47   2.0000      -0.526868       -14.3368
  48   2.0000      -0.514420       -13.9981
  49   2.0000      -0.493226       -13.4214
  50   2.0000      -0.457101       -12.4383
  51   2.0000      -0.456273       -12.4158
  52   2.0000      -0.427176       -11.6240
  53   2.0000      -0.410673       -11.1750
  54   2.0000      -0.406127       -11.0513
  55   2.0000      -0.400107       -10.8875
  56   2.0000      -0.381604       -10.3840
  57   2.0000      -0.375044       -10.2055
  58   2.0000      -0.365210        -9.9379
  59   2.0000      -0.348921        -9.4946
  60   2.0000      -0.341578        -9.2948
  61   2.0000      -0.335685        -9.1344
  62   2.0000      -0.312893        -8.5142
  63   2.0000      -0.302002        -8.2179
  64   2.0000      -0.288420        -7.8483
  65   2.0000      -0.263081        -7.1588
  66   2.0000      -0.258916        -7.0455
  67   2.0000      -0.247794        -6.7428
  68   2.0000      -0.237745        -6.4694
  69   2.0000      -0.234374        -6.3776
  70   2.0000      -0.229524        -6.2457
  71   2.0000      -0.216761        -5.8984
  72   2.0000      -0.210516        -5.7284
  73   2.0000      -0.189550        -5.1579
  74   2.0000      -0.180837        -4.9208
  75   2.0000      -0.175131        -4.7656
  76   2.0000      -0.166969        -4.5435
  77   2.0000      -0.149162        -4.0589
  78   2.0000      -0.142630        -3.8812
  79   2.0000      -0.134367        -3.6563
  80   2.0000      -0.127374        -3.4660
  81   2.0000      -0.118050        -3.2123
  82   0.0000       0.049131         1.3369
  83   0.0000       0.072541         1.9739
  84   0.0000       0.097817         2.6617
  85   0.0000       0.112008         3.0479
  86   0.0000       0.144837         3.9412

MULLIKEN ATOMIC CHARGES
-----------------------
   0 Pd:    0.186749
   1 Cl:   -0.394550
   2 Cl:   -0.334286
   3 Cl:   -0.443763
   4 N :   -0.573786
   5 C :    0.045789
   6 C :   -0.340421
   7 C :   -0.157513
   8 C :    0.407756
   9 C :    0.059143
  10 H :    0.207399
  11 H :    0.281792
  12 H :    0.217376
  13 C :    0.012247
  14 C :   -0.302206
  15 C :   -0.292027
  16 C :    0.139723
  17 H :    0.191553
  18 H :    0.193048
  19 C :   -0.162053
  20 C :   -0.320027
  21 C :   -0.343737
  22 C :   -0.195459
  23 H :    0.186011
  24 H :    0.190885
  25 H :    0.319378
  26 H :    0.220979
Sum of atomic charges:   -1.0000000

LOEWDIN ATOMIC CHARGES
----------------------
   0 Pd:   -0.828860
   1 Cl:   -0.135784
   2 Cl:   -0.203438
   3 Cl:   -0.193751
   4 N :    0.042374
   5 C :    0.008557
   6 C :   -0.169853
   7 C :   -0.088328
   8 C :    0.093054
   9 C :   -0.058780
  10 H :    0.133482
  11 H :    0.166491
  12 H :    0.139450
  13 C :   -0.024524
  14 C :   -0.142034
  15 C :   -0.117124
  16 C :   -0.034970
  17 H :    0.128690
  18 H :    0.129717
  19 C :   -0.044432
  20 C :   -0.157913
  21 C :   -0.140782
  22 C :   -0.129665
  23 H :    0.123569
  24 H :    0.124856
  25 H :    0.240668
  26 H :    0.139329

  Mayer bond orders larger than 0.100000
B(  0-Pd,  1-Cl) :   0.8695 B(  0-Pd,  3-Cl) :   0.7347 B(  0-Pd,  4-N ) :   0.4187
B(  0-Pd, 19-C ) :   0.7064 B(  2-Cl, 25-H ) :   0.8258 B(  4-N ,  5-C ) :   1.4725
B(  4-N ,  8-C ) :   1.1286 B(  5-C ,  6-C ) :   1.3144 B(  5-C , 11-H ) :   0.8844
B(  6-C ,  7-C ) :   1.4552 B(  6-C , 12-H ) :   0.9210 B(  7-C ,  9-C ) :   1.2843
B(  7-C , 10-H ) :   0.9292 B(  8-C ,  9-C ) :   1.2248 B(  8-C , 13-C ) :   1.1418
B(  9-C , 14-C ) :   1.1671 B( 13-C , 16-C ) :   1.2769 B( 13-C , 19-C ) :   1.2003
B( 14-C , 15-C ) :   1.6453 B( 14-C , 17-H ) :   0.9300 B( 15-C , 16-C ) :   1.1570
B( 15-C , 18-H ) :   0.9286 B( 16-C , 20-C ) :   1.2790 B( 19-C , 21-C ) :   1.4516
B( 20-C , 22-C ) :   1.4985 B( 20-C , 23-H ) :   0.9300 B( 21-C , 22-C ) :   1.3502
B( 21-C , 26-H ) :   0.9157 B( 22-C , 24-H ) :   0.9248

Dispersion correction           -0.024151347
FINAL SINGLE POINT ENERGY     -2061.483007697162
Dispersion correction            ... done

DIPOLE MOMENT
-------------
                                X             Y             Z
Electronic contribution:    -75.61573     -49.77795      10.47264
Nuclear contribution   :     79.17018      52.74918     -10.13064
                        -----------------------------------------
Total Dipole Moment    :      3.55445       2.97123       0.34200
                        -----------------------------------------
Magnitude (a.u.)       :      4.64535
Magnitude (Debye)      :     11.80755

Rotational constants in cm-1:     0.011617     0.007783     0.005811
Rotational constants in MHz :   348.254766   233.314732   174.202438

                             ****ORCA TERMINATED NORMALLY****
TOTAL RUN TIME: 0 days 0 hours 8 minutes 24 seconds 223 msec
