                         Program Version 5.0.3 -  RELEASE  -
|  1> ! EnGrad PBEh-3c
|  2> %output
|  3> xyzfile=True
|  4> end
|  5> %scf
|  6> maxiter 250
|  7> end
|  8> %output
|  9> Print[P_Hirshfeld] = 1
| 10> end
| 11> % maxcore
| 12> 4000
| 13> *xyz -1 1
| 14> Pt  -1.27449670  -1.02081387   0.64605449
| 15> Cl  -0.30720301  -0.89432942   2.74473915
| 16> Cl  -2.78899924  -2.59262305   1.18416534
| 17> Cl  -1.98829124  -0.85097114  -1.55045412
| 18> C    1.25718575   1.07674015  -0.62247127
| 19> H    1.43444372   2.14050425  -0.47964714
| 20> H    1.25902825   0.57743770   0.43686253
| 21> H    2.07563031   0.62921536  -1.18131827
| 22> H    0.33270216   0.93483100  -1.17792874
| 23> *
| 24>
| 25>                          ****END OF INPUT****

CARTESIAN COORDINATES (ANGSTROEM)
---------------------------------
  Pt    -1.274497   -1.020814    0.646054
  Cl    -0.307203   -0.894329    2.744739
  Cl    -2.788999   -2.592623    1.184165
  Cl    -1.988291   -0.850971   -1.550454
  C      1.257186    1.076740   -0.622471
  H      1.434444    2.140504   -0.479647
  H      1.259028    0.577438    0.436863
  H      2.075630    0.629215   -1.181318
  H      0.332702    0.934831   -1.177929

 Total Charge           Charge          ....   -1
 Multiplicity           Mult            ....    1
 Number of Electrons    NEL             ....   80
 Basis Dimension        Dim             ....  109

ORBITAL ENERGIES
----------------

  NO   OCC          E(Eh)            E(eV)
   0   2.0000    -102.122321     -2778.8896
   1   2.0000    -102.096608     -2778.1900
   2   2.0000    -102.096056     -2778.1749
   3   2.0000     -10.318222      -280.7731
   4   2.0000      -9.586051      -260.8497
   5   2.0000      -9.560651      -260.1585
   6   2.0000      -9.560146      -260.1448
   7   2.0000      -7.273704      -197.9275
   8   2.0000      -7.266051      -197.7193
   9   2.0000      -7.265785      -197.7121
  10   2.0000      -7.246348      -197.1832
  11   2.0000      -7.245939      -197.1720
  12   2.0000      -7.241934      -197.0630
  13   2.0000      -7.241420      -197.0491
  14   2.0000      -7.241293      -197.0456
  15   2.0000      -7.240926      -197.0356
  16   2.0000      -3.942822      -107.2896
  17   2.0000      -2.160354       -58.7862
  18   2.0000      -2.157416       -58.7063
  19   2.0000      -2.119565       -57.6763
  20   2.0000      -0.712232       -19.3808
  21   2.0000      -0.693854       -18.8807
  22   2.0000      -0.683174       -18.5901
  23   2.0000      -0.665449       -18.1078
  24   2.0000      -0.346007        -9.4153
  25   2.0000      -0.343884        -9.3576
  26   2.0000      -0.326587        -8.8869
  27   2.0000      -0.292202        -7.9512
  28   2.0000      -0.279191        -7.5972
  29   2.0000      -0.276790        -7.5318
  30   2.0000      -0.235153        -6.3988
  31   2.0000      -0.233952        -6.3662
  32   2.0000      -0.209921        -5.7122
  33   2.0000      -0.187349        -5.0980
  34   2.0000      -0.186897        -5.0857
  35   2.0000      -0.165451        -4.5022
  36   2.0000      -0.146027        -3.9736
  37   2.0000      -0.140904        -3.8342
  38   2.0000      -0.128141        -3.4869
  39   2.0000      -0.118745        -3.2312
  40   0.0000       0.056474         1.5367
  41   0.0000       0.188545         5.1306
  42   0.0000       0.199188         5.4202
  43   0.0000       0.259067         7.0496
  44   0.0000       0.264217         7.1897

MULLIKEN ATOMIC CHARGES
-----------------------
   0 Pt:    0.158854
   1 Cl:   -0.432695
   2 Cl:   -0.305074
   3 Cl:   -0.431994
   4 C :   -0.906474
   5 H :    0.202146
   6 H :    0.240037
   7 H :    0.209213
   8 H :    0.265987
Sum of atomic charges:   -1.0000000

LOEWDIN ATOMIC CHARGES
----------------------
   0 Pt:   -0.816578
   1 Cl:   -0.129016
   2 Cl:    0.030826
   3 Cl:   -0.131005
   4 C :   -0.515478
   5 H :    0.117577
   6 H :    0.161889
   7 H :    0.122131
   8 H :    0.159655

  Mayer bond orders larger than 0.100000
B(  0-Pt,  1-Cl) :   0.8186 B(  0-Pt,  2-Cl) :   1.0242 B(  0-Pt,  3-Cl) :   0.8056
B(  1-Cl,  3-Cl) :   0.1090 B(  4-C ,  5-H ) :   0.9335 B(  4-C ,  6-H ) :   0.9068
B(  4-C ,  7-H ) :   0.9336 B(  4-C ,  8-H ) :   0.8940

Dispersion correction           -0.004361148
FINAL SINGLE POINT ENERGY     -1539.044466875293
Dispersion correction            ... done

DIPOLE MOMENT
-------------
                                X             Y             Z
Electronic contribution:     -8.66785      -3.41595       7.18060
Nuclear contribution   :      9.35857       4.06706      -7.47342
                        -----------------------------------------
Total Dipole Moment    :      0.69072       0.65112      -0.29282
                        -----------------------------------------
Magnitude (a.u.)       :      0.99337
Magnitude (Debye)      :      2.52496

Rotational constants in cm-1:     0.045508     0.042605     0.022191
Rotational constants in MHz :  1364.299715  1277.264613   665.262013

                             ****ORCA TERMINATED NORMALLY****
TOTAL RUN TIME: 0 days 0 hours 0 minutes 38 seconds 122 msec
