                         Program Version 5.0.3 -  RELEASE  -
|  1> ! EnGrad PBEh-3c
|  2> %output
|  3> xyzfile=True
|  4> end
|  5> %scf
|  6> maxiter 250
|  7> end
|  8> %output
|  9> Print[P_Hirshfeld] = 1
| 10> end
| 11> % maxcore
| 12> 4000
| 13> *xyz -1 1
| 14> Pt  -1.27729893  -1.02769580   0.64397521
| 15> Cl  -0.30855059  -0.88734801   2.73601658
| 16> Cl  -2.77610364  -2.57339303   1.18577108
| 17> Cl  -1.97565811  -0.86000244  -1.54836478
| 18> C    1.26886894   1.02654392  -0.50454607
| 19> H    1.43802155   2.13508431  -0.46837757
| 20> H    1.24326490   0.61381481   0.31112429
| 21> H    2.06655587   0.63438668  -1.19198367
| 22> H    0.32070883   0.93632439  -1.16125628
| 23> *
| 24>
| 25>                          ****END OF INPUT****

CARTESIAN COORDINATES (ANGSTROEM)
---------------------------------
  Pt    -1.277299   -1.027696    0.643975
  Cl    -0.308551   -0.887348    2.736017
  Cl    -2.776104   -2.573393    1.185771
  Cl    -1.975658   -0.860002   -1.548365
  C      1.268869    1.026544   -0.504546
  H      1.438022    2.135084   -0.468378
  H      1.243265    0.613815    0.311124
  H      2.066556    0.634387   -1.191984
  H      0.320709    0.936324   -1.161256

 Total Charge           Charge          ....   -1
 Multiplicity           Mult            ....    1
 Number of Electrons    NEL             ....   80
 Basis Dimension        Dim             ....  109

ORBITAL ENERGIES
----------------

  NO   OCC          E(Eh)            E(eV)
   0   2.0000    -102.122801     -2778.9027
   1   2.0000    -102.096188     -2778.1785
   2   2.0000    -102.095582     -2778.1620
   3   2.0000     -10.306988      -280.4674
   4   2.0000      -9.586941      -260.8739
   5   2.0000      -9.560285      -260.1486
   6   2.0000      -9.559814      -260.1358
   7   2.0000      -7.274596      -197.9518
   8   2.0000      -7.266903      -197.7425
   9   2.0000      -7.266617      -197.7347
  10   2.0000      -7.245952      -197.1724
  11   2.0000      -7.245599      -197.1628
  12   2.0000      -7.241612      -197.0543
  13   2.0000      -7.241034      -197.0385
  14   2.0000      -7.240953      -197.0364
  15   2.0000      -7.240578      -197.0261
  16   2.0000      -3.942191      -107.2725
  17   2.0000      -2.160604       -58.7930
  18   2.0000      -2.156641       -58.6852
  19   2.0000      -2.118924       -57.6589
  20   2.0000      -0.715003       -19.4562
  21   2.0000      -0.694455       -18.8971
  22   2.0000      -0.683186       -18.5904
  23   2.0000      -0.679438       -18.4885
  24   2.0000      -0.390232       -10.6188
  25   2.0000      -0.327836        -8.9209
  26   2.0000      -0.317705        -8.6452
  27   2.0000      -0.292921        -7.9708
  28   2.0000      -0.283665        -7.7189
  29   2.0000      -0.278877        -7.5886
  30   2.0000      -0.238037        -6.4773
  31   2.0000      -0.234736        -6.3875
  32   2.0000      -0.210461        -5.7269
  33   2.0000      -0.187353        -5.0981
  34   2.0000      -0.187047        -5.0898
  35   2.0000      -0.165225        -4.4960
  36   2.0000      -0.145324        -3.9545
  37   2.0000      -0.139144        -3.7863
  38   2.0000      -0.126341        -3.4379
  39   2.0000      -0.117632        -3.2009
  40   0.0000       0.059640         1.6229
  41   0.0000       0.190807         5.1921
  42   0.0000       0.200238         5.4488
  43   0.0000       0.262160         7.1337
  44   0.0000       0.266263         7.2454

MULLIKEN ATOMIC CHARGES
-----------------------
   0 Pt:    0.154230
   1 Cl:   -0.432849
   2 Cl:   -0.298980
   3 Cl:   -0.431578
   4 C :   -0.922232
   5 H :    0.189656
   6 H :    0.300195
   7 H :    0.195388
   8 H :    0.246171
Sum of atomic charges:   -1.0000000

LOEWDIN ATOMIC CHARGES
----------------------
   0 Pt:   -0.828879
   1 Cl:   -0.127577
   2 Cl:    0.046117
   3 Cl:   -0.127315
   4 C :   -0.505953
   5 H :    0.117691
   6 H :    0.140141
   7 H :    0.122091
   8 H :    0.163684

  Mayer bond orders larger than 0.100000
B(  0-Pt,  1-Cl) :   0.8219 B(  0-Pt,  2-Cl) :   1.0342 B(  0-Pt,  3-Cl) :   0.8064
B(  1-Cl,  3-Cl) :   0.1090 B(  4-C ,  5-H ) :   0.9447 B(  4-C ,  6-H ) :   0.8780
B(  4-C ,  7-H ) :   0.9449 B(  4-C ,  8-H ) :   0.9059

Dispersion correction           -0.004387608
FINAL SINGLE POINT ENERGY     -1539.013833244919
Dispersion correction            ... done

DIPOLE MOMENT
-------------
                                X             Y             Z
Electronic contribution:     -9.27245      -3.87310       6.60305
Nuclear contribution   :      9.91343       4.49741      -6.91359
                        -----------------------------------------
Total Dipole Moment    :      0.64099       0.62431      -0.31055
                        -----------------------------------------
Magnitude (a.u.)       :      0.94713
Magnitude (Debye)      :      2.40742

Rotational constants in cm-1:     0.045703     0.043670     0.022518
Rotational constants in MHz :  1370.141816  1309.179208   675.085501

                             ****ORCA TERMINATED NORMALLY****
TOTAL RUN TIME: 0 days 0 hours 0 minutes 33 seconds 476 msec
