                         Program Version 5.0.3 -  RELEASE  -
|  1> ! EnGrad PBEh-3c
|  2> %output
|  3> xyzfile=True
|  4> end
|  5> %scf
|  6> maxiter 250
|  7> end
|  8> %output
|  9> Print[P_Hirshfeld] = 1
| 10> end
| 11> % maxcore
| 12> 4000
| 13> *xyz -1 1
| 14> Pt  -1.27562295  -1.02357980   0.64521880
| 15> Cl  -0.30774462  -0.89152351   2.74123345
| 16> Cl  -2.78381635  -2.58489428   1.18481070
| 17> Cl  -1.98321384  -0.85460093  -1.54961439
| 18> C    1.26188136   1.05656570  -0.57507576
| 19> H    1.43588169   2.13832591  -0.47511777
| 20> H    1.25269278   0.59205808   0.38632686
| 21> H    2.07198318   0.63129377  -1.18560482
| 22> H    0.32788190   0.93543121  -1.17122788
| 23> *
| 24>
| 25>                          ****END OF INPUT****

CARTESIAN COORDINATES (ANGSTROEM)
---------------------------------
  Pt    -1.275623   -1.023580    0.645219
  Cl    -0.307745   -0.891524    2.741233
  Cl    -2.783816   -2.584894    1.184811
  Cl    -1.983214   -0.854601   -1.549614
  C      1.261881    1.056566   -0.575076
  H      1.435882    2.138326   -0.475118
  H      1.252693    0.592058    0.386327
  H      2.071983    0.631294   -1.185605
  H      0.327882    0.935431   -1.171228

 Total Charge           Charge          ....   -1
 Multiplicity           Mult            ....    1
 Number of Electrons    NEL             ....   80
 Basis Dimension        Dim             ....  109

ORBITAL ENERGIES
----------------

  NO   OCC          E(Eh)            E(eV)
   0   2.0000    -102.122661     -2778.8989
   1   2.0000    -102.096580     -2778.1892
   2   2.0000    -102.095935     -2778.1716
   3   2.0000     -10.312567      -280.6192
   4   2.0000      -9.586550      -260.8633
   5   2.0000      -9.560643      -260.1583
   6   2.0000      -9.560082      -260.1431
   7   2.0000      -7.274207      -197.9412
   8   2.0000      -7.266533      -197.7324
   9   2.0000      -7.266260      -197.7250
  10   2.0000      -7.246328      -197.1826
  11   2.0000      -7.245873      -197.1702
  12   2.0000      -7.241944      -197.0633
  13   2.0000      -7.241405      -197.0487
  14   2.0000      -7.241226      -197.0438
  15   2.0000      -7.240855      -197.0337
  16   2.0000      -3.942679      -107.2858
  17   2.0000      -2.160568       -58.7920
  18   2.0000      -2.157215       -58.7008
  19   2.0000      -2.119418       -57.6723
  20   2.0000      -0.713447       -19.4139
  21   2.0000      -0.694173       -18.8894
  22   2.0000      -0.683269       -18.5927
  23   2.0000      -0.668737       -18.1973
  24   2.0000      -0.352848        -9.6015
  25   2.0000      -0.338602        -9.2138
  26   2.0000      -0.331123        -9.0103
  27   2.0000      -0.292675        -7.9641
  28   2.0000      -0.281270        -7.6537
  29   2.0000      -0.277845        -7.5606
  30   2.0000      -0.236265        -6.4291
  31   2.0000      -0.234524        -6.3817
  32   2.0000      -0.210247        -5.7211
  33   2.0000      -0.187485        -5.1017
  34   2.0000      -0.187092        -5.0910
  35   2.0000      -0.165469        -4.5026
  36   2.0000      -0.145859        -3.9690
  37   2.0000      -0.140332        -3.8186
  38   2.0000      -0.127539        -3.4705
  39   2.0000      -0.118398        -3.2218
  40   0.0000       0.057573         1.5666
  41   0.0000       0.189510         5.1568
  42   0.0000       0.199563         5.4304
  43   0.0000       0.262205         7.1350
  44   0.0000       0.265824         7.2334

MULLIKEN ATOMIC CHARGES
-----------------------
   0 Pt:    0.157947
   1 Cl:   -0.432804
   2 Cl:   -0.302455
   3 Cl:   -0.431600
   4 C :   -0.914317
   5 H :    0.196615
   6 H :    0.265098
   7 H :    0.203438
   8 H :    0.258079
Sum of atomic charges:   -1.0000000

LOEWDIN ATOMIC CHARGES
----------------------
   0 Pt:   -0.820857
   1 Cl:   -0.128435
   2 Cl:    0.037152
   3 Cl:   -0.129328
   4 C :   -0.515788
   5 H :    0.116887
   6 H :    0.157835
   7 H :    0.121473
   8 H :    0.161061

  Mayer bond orders larger than 0.100000
B(  0-Pt,  1-Cl) :   0.8201 B(  0-Pt,  2-Cl) :   1.0284 B(  0-Pt,  3-Cl) :   0.8063
B(  1-Cl,  3-Cl) :   0.1090 B(  4-C ,  5-H ) :   0.9382 B(  4-C ,  6-H ) :   0.8960
B(  4-C ,  7-H ) :   0.9383 B(  4-C ,  8-H ) :   0.8990

Dispersion correction           -0.004370709
FINAL SINGLE POINT ENERGY     -1539.046951987463
Dispersion correction            ... done

DIPOLE MOMENT
-------------
                                X             Y             Z
Electronic contribution:     -8.91494      -3.60581       6.95594
Nuclear contribution   :      9.58157       4.24002      -7.24842
                        -----------------------------------------
Total Dipole Moment    :      0.66663       0.63422      -0.29248
                        -----------------------------------------
Magnitude (a.u.)       :      0.96549
Magnitude (Debye)      :      2.45409

Rotational constants in cm-1:     0.045576     0.043042     0.022323
Rotational constants in MHz :  1366.342850  1290.373324   669.228720

                             ****ORCA TERMINATED NORMALLY****
TOTAL RUN TIME: 0 days 0 hours 0 minutes 37 seconds 665 msec
