                         Program Version 5.0.3 -  RELEASE  -
|  1> ! EnGrad PBEh-3c
|  2> %output
|  3> xyzfile=True
|  4> end
|  5> %scf
|  6> maxiter 250
|  7> end
|  8> %output
|  9> Print[P_Hirshfeld] = 1
| 10> end
| 11> % maxcore
| 12> 4000
| 13> *xyz -1 1
| 14> Pt  -1.27937197  -1.02907498   0.64314837
| 15> Cl  -0.30923234  -0.88739251   2.73092921
| 16> Cl  -2.77400657  -2.57144625   1.18864486
| 17> Cl  -1.97438345  -0.86138970  -1.54595253
| 18> C    1.26260339   1.06316249  -0.58898249
| 19> H    1.43813974   2.11787921  -0.46226890
| 20> H    1.23477082   0.59468493   0.34551966
| 21> H    2.05702220   0.63877804  -1.17818505
| 22> H    0.34428946   0.93114997  -1.12881363
| 23> *
| 24>
| 25>                          ****END OF INPUT****

CARTESIAN COORDINATES (ANGSTROEM)
---------------------------------
  Pt    -1.279372   -1.029075    0.643148
  Cl    -0.309232   -0.887393    2.730929
  Cl    -2.774007   -2.571446    1.188645
  Cl    -1.974383   -0.861390   -1.545953
  C      1.262603    1.063162   -0.588982
  H      1.438140    2.117879   -0.462269
  H      1.234771    0.594685    0.345520
  H      2.057022    0.638778   -1.178185
  H      0.344289    0.931150   -1.128814

 Total Charge           Charge          ....   -1
 Multiplicity           Mult            ....    1
 Number of Electrons    NEL             ....   80
 Basis Dimension        Dim             ....  109

ORBITAL ENERGIES
----------------

  NO   OCC          E(Eh)            E(eV)
   0   2.0000    -102.122997     -2778.9080
   1   2.0000    -102.096132     -2778.1770
   2   2.0000    -102.096107     -2778.1763
   3   2.0000     -10.299945      -280.2758
   4   2.0000      -9.587201      -260.8810
   5   2.0000      -9.560391      -260.1515
   6   2.0000      -9.560267      -260.1481
   7   2.0000      -7.274860      -197.9590
   8   2.0000      -7.267152      -197.7493
   9   2.0000      -7.266868      -197.7415
  10   2.0000      -7.246157      -197.1780
  11   2.0000      -7.245938      -197.1720
  12   2.0000      -7.241575      -197.0533
  13   2.0000      -7.241547      -197.0525
  14   2.0000      -7.241145      -197.0416
  15   2.0000      -7.241019      -197.0382
  16   2.0000      -3.942168      -107.2718
  17   2.0000      -2.160696       -58.7955
  18   2.0000      -2.156694       -58.6866
  19   2.0000      -2.118909       -57.6585
  20   2.0000      -0.715605       -19.4726
  21   2.0000      -0.694971       -18.9111
  22   2.0000      -0.683576       -18.6011
  23   2.0000      -0.677208       -18.4278
  24   2.0000      -0.351566        -9.5666
  25   2.0000      -0.344351        -9.3703
  26   2.0000      -0.341119        -9.2823
  27   2.0000      -0.293683        -7.9915
  28   2.0000      -0.284394        -7.7388
  29   2.0000      -0.280473        -7.6321
  30   2.0000      -0.238640        -6.4937
  31   2.0000      -0.235334        -6.4038
  32   2.0000      -0.210888        -5.7386
  33   2.0000      -0.188021        -5.1163
  34   2.0000      -0.187489        -5.1018
  35   2.0000      -0.165461        -4.5024
  36   2.0000      -0.145324        -3.9545
  37   2.0000      -0.138953        -3.7811
  38   2.0000      -0.125993        -3.4285
  39   2.0000      -0.117421        -3.1952
  40   0.0000       0.059941         1.6311
  41   0.0000       0.191440         5.2094
  42   0.0000       0.200411         5.4534
  43   0.0000       0.263800         7.1784
  44   0.0000       0.267272         7.2728

MULLIKEN ATOMIC CHARGES
-----------------------
   0 Pt:    0.152722
   1 Cl:   -0.432299
   2 Cl:   -0.298030
   3 Cl:   -0.431022
   4 C :   -0.927879
   5 H :    0.200120
   6 H :    0.266485
   7 H :    0.206724
   8 H :    0.263178
Sum of atomic charges:   -1.0000000

LOEWDIN ATOMIC CHARGES
----------------------
   0 Pt:   -0.835041
   1 Cl:   -0.125987
   2 Cl:    0.048160
   3 Cl:   -0.124718
   4 C :   -0.517073
   5 H :    0.118511
   6 H :    0.155148
   7 H :    0.122946
   8 H :    0.158053

  Mayer bond orders larger than 0.100000
B(  0-Pt,  1-Cl) :   0.8213 B(  0-Pt,  2-Cl) :   1.0351 B(  0-Pt,  3-Cl) :   0.8088
B(  1-Cl,  3-Cl) :   0.1091 B(  4-C ,  5-H ) :   0.9397 B(  4-C ,  6-H ) :   0.8973
B(  4-C ,  7-H ) :   0.9398 B(  4-C ,  8-H ) :   0.8988

Dispersion correction           -0.004385910
FINAL SINGLE POINT ENERGY     -1539.046894981714
Dispersion correction            ... done

DIPOLE MOMENT
-------------
                                X             Y             Z
Electronic contribution:     -9.41024      -4.13479       6.93761
Nuclear contribution   :     10.04703       4.74081      -7.22049
                        -----------------------------------------
Total Dipole Moment    :      0.63680       0.60602      -0.28288
                        -----------------------------------------
Magnitude (a.u.)       :      0.92347
Magnitude (Debye)      :      2.34727

Rotational constants in cm-1:     0.045978     0.043229     0.022460
Rotational constants in MHz :  1378.398794  1295.964341   673.324915

                             ****ORCA TERMINATED NORMALLY****
TOTAL RUN TIME: 0 days 0 hours 0 minutes 33 seconds 298 msec
