                         Program Version 5.0.3 -  RELEASE  -
|  1> ! EnGrad PBEh-3c
|  2> %output
|  3> xyzfile=True
|  4> end
|  5> %scf
|  6> maxiter 250
|  7> end
|  8> %output
|  9> Print[P_Hirshfeld] = 1
| 10> end
| 11> % maxcore
| 12> 4000
| 13> *xyz -1 1
| 14> Pt  -1.27734229  -1.02609995   0.64426928
| 15> Cl  -0.30842690  -0.88962899   2.73650782
| 16> Cl  -2.77931748  -2.57872687   1.18656909
| 17> Cl  -1.97916413  -0.85771433  -1.54793502
| 18> C    1.26221249   1.05959106  -0.58145353
| 19> H    1.43691726   2.12894884  -0.46922514
| 20> H    1.24447358   0.59326278   0.36761225
| 21> H    2.06512192   0.63472614  -1.18220204
| 22> H    0.33540658   0.93346779  -1.15177626
| 23> *
| 24>
| 25>                          ****END OF INPUT****

CARTESIAN COORDINATES (ANGSTROEM)
---------------------------------
  Pt    -1.277342   -1.026100    0.644269
  Cl    -0.308427   -0.889629    2.736508
  Cl    -2.779317   -2.578727    1.186569
  Cl    -1.979164   -0.857714   -1.547935
  C      1.262212    1.059591   -0.581454
  H      1.436917    2.128949   -0.469225
  H      1.244474    0.593263    0.367612
  H      2.065122    0.634726   -1.182202
  H      0.335407    0.933468   -1.151776

 Total Charge           Charge          ....   -1
 Multiplicity           Mult            ....    1
 Number of Electrons    NEL             ....   80
 Basis Dimension        Dim             ....  109

ORBITAL ENERGIES
----------------

  NO   OCC          E(Eh)            E(eV)
   0   2.0000    -102.122820     -2778.9032
   1   2.0000    -102.096363     -2778.1833
   2   2.0000    -102.096022     -2778.1740
   3   2.0000     -10.306760      -280.4612
   4   2.0000      -9.586850      -260.8715
   5   2.0000      -9.560467      -260.1535
   6   2.0000      -9.560222      -260.1469
   7   2.0000      -7.274508      -197.9494
   8   2.0000      -7.266819      -197.7402
   9   2.0000      -7.266541      -197.7326
  10   2.0000      -7.246145      -197.1776
  11   2.0000      -7.246003      -197.1738
  12   2.0000      -7.241770      -197.0586
  13   2.0000      -7.241372      -197.0478
  14   2.0000      -7.241224      -197.0437
  15   2.0000      -7.240988      -197.0373
  16   2.0000      -3.942439      -107.2792
  17   2.0000      -2.160616       -58.7933
  18   2.0000      -2.156970       -58.6941
  19   2.0000      -2.119178       -57.6658
  20   2.0000      -0.714428       -19.4406
  21   2.0000      -0.694527       -18.8990
  22   2.0000      -0.683407       -18.5964
  23   2.0000      -0.672598       -18.3023
  24   2.0000      -0.352333        -9.5875
  25   2.0000      -0.341211        -9.2848
  26   2.0000      -0.335704        -9.1350
  27   2.0000      -0.293136        -7.9766
  28   2.0000      -0.282690        -7.6924
  29   2.0000      -0.279054        -7.5934
  30   2.0000      -0.237313        -6.4576
  31   2.0000      -0.234916        -6.3924
  32   2.0000      -0.210539        -5.7291
  33   2.0000      -0.187721        -5.1081
  34   2.0000      -0.187279        -5.0961
  35   2.0000      -0.165466        -4.5026
  36   2.0000      -0.145607        -3.9622
  37   2.0000      -0.139703        -3.8015
  38   2.0000      -0.126834        -3.4513
  39   2.0000      -0.117945        -3.2095
  40   0.0000       0.058662         1.5963
  41   0.0000       0.190413         5.1814
  42   0.0000       0.199956         5.4411
  43   0.0000       0.263038         7.1576
  44   0.0000       0.266522         7.2524

MULLIKEN ATOMIC CHARGES
-----------------------
   0 Pt:    0.155616
   1 Cl:   -0.432574
   2 Cl:   -0.300455
   3 Cl:   -0.431351
   4 C :   -0.920545
   5 H :    0.198274
   6 H :    0.265676
   7 H :    0.204974
   8 H :    0.260386
Sum of atomic charges:   -1.0000000

LOEWDIN ATOMIC CHARGES
----------------------
   0 Pt:   -0.827315
   1 Cl:   -0.127307
   2 Cl:    0.042188
   3 Cl:   -0.127229
   4 C :   -0.516262
   5 H :    0.117633
   6 H :    0.156495
   7 H :    0.122150
   8 H :    0.159647

  Mayer bond orders larger than 0.100000
B(  0-Pt,  1-Cl) :   0.8206 B(  0-Pt,  2-Cl) :   1.0314 B(  0-Pt,  3-Cl) :   0.8074
B(  1-Cl,  3-Cl) :   0.1091 B(  4-C ,  5-H ) :   0.9389 B(  4-C ,  6-H ) :   0.8966
B(  4-C ,  7-H ) :   0.9389 B(  4-C ,  8-H ) :   0.8990

Dispersion correction           -0.004377640
FINAL SINGLE POINT ENERGY     -1539.047595873719
Dispersion correction            ... done

DIPOLE MOMENT
-------------
                                X             Y             Z
Electronic contribution:     -9.14207      -3.84828       6.94738
Nuclear contribution   :      9.79504       4.46969      -7.23561
                        -----------------------------------------
Total Dipole Moment    :      0.65297       0.62141      -0.28823
                        -----------------------------------------
Magnitude (a.u.)       :      0.94636
Magnitude (Debye)      :      2.40545

Rotational constants in cm-1:     0.045760     0.043128     0.022386
Rotational constants in MHz :  1371.848354  1292.959013   671.108202

                             ****ORCA TERMINATED NORMALLY****
TOTAL RUN TIME: 0 days 0 hours 0 minutes 33 seconds 325 msec
