                         Program Version 5.0.3 -  RELEASE  -
|  1> ! EnGrad PBEh-3c
|  2> %output
|  3> xyzfile=True
|  4> end
|  5> %scf
|  6> maxiter 250
|  7> end
|  8> %output
|  9> Print[P_Hirshfeld] = 1
| 10> end
| 11> % maxcore
| 12> 4000
| 13> *xyz -1 1
| 14> Pt  -1.27598879  -1.02656291   0.64224716
| 15> Cl  -0.30890669  -0.88600869   2.73092437
| 16> Cl  -2.77548983  -2.57183829   1.18999284
| 17> Cl  -1.97289285  -0.86294748  -1.54759921
| 18> C    1.26548322   1.06117458  -0.58156916
| 19> H    1.43962394   2.12490076  -0.45968471
| 20> H    1.23442572   0.58916943   0.35021744
| 21> H    2.06106492   0.63634901  -1.18474184
| 22> H    0.33255483   0.93191434  -1.13540518
| 23> *
| 24>
| 25>                          ****END OF INPUT****

CARTESIAN COORDINATES (ANGSTROEM)
---------------------------------
  Pt    -1.275989   -1.026563    0.642247
  Cl    -0.308907   -0.886009    2.730924
  Cl    -2.775490   -2.571838    1.189993
  Cl    -1.972893   -0.862947   -1.547599
  C      1.265483    1.061175   -0.581569
  H      1.439624    2.124901   -0.459685
  H      1.234426    0.589169    0.350217
  H      2.061065    0.636349   -1.184742
  H      0.332555    0.931914   -1.135405

 Total Charge           Charge          ....   -1
 Multiplicity           Mult            ....    1
 Number of Electrons    NEL             ....   80
 Basis Dimension        Dim             ....  109

ORBITAL ENERGIES
----------------

  NO   OCC          E(Eh)            E(eV)
   0   2.0000    -102.122912     -2778.9057
   1   2.0000    -102.096291     -2778.1813
   2   2.0000    -102.096060     -2778.1750
   3   2.0000     -10.303899      -280.3833
   4   2.0000      -9.587026      -260.8762
   5   2.0000      -9.560448      -260.1530
   6   2.0000      -9.560319      -260.1495
   7   2.0000      -7.274687      -197.9543
   8   2.0000      -7.266984      -197.7447
   9   2.0000      -7.266703      -197.7370
  10   2.0000      -7.246122      -197.1770
  11   2.0000      -7.246089      -197.1761
  12   2.0000      -7.241749      -197.0580
  13   2.0000      -7.241473      -197.0505
  14   2.0000      -7.241197      -197.0430
  15   2.0000      -7.241078      -197.0397
  16   2.0000      -3.942279      -107.2749
  17   2.0000      -2.160620       -58.7934
  18   2.0000      -2.156864       -58.6912
  19   2.0000      -2.119031       -57.6618
  20   2.0000      -0.715038       -19.4572
  21   2.0000      -0.694930       -18.9100
  22   2.0000      -0.683612       -18.6020
  23   2.0000      -0.674431       -18.3522
  24   2.0000      -0.352824        -9.6008
  25   2.0000      -0.342527        -9.3206
  26   2.0000      -0.336998        -9.1702
  27   2.0000      -0.293725        -7.9927
  28   2.0000      -0.283536        -7.7154
  29   2.0000      -0.279880        -7.6159
  30   2.0000      -0.237944        -6.4748
  31   2.0000      -0.235392        -6.4053
  32   2.0000      -0.210796        -5.7360
  33   2.0000      -0.187979        -5.1152
  34   2.0000      -0.187503        -5.1022
  35   2.0000      -0.165471        -4.5027
  36   2.0000      -0.145468        -3.9584
  37   2.0000      -0.139346        -3.7918
  38   2.0000      -0.126339        -3.4379
  39   2.0000      -0.117533        -3.1982
  40   0.0000       0.059320         1.6142
  41   0.0000       0.191227         5.2036
  42   0.0000       0.200186         5.4473
  43   0.0000       0.263452         7.1689
  44   0.0000       0.266741         7.2584

MULLIKEN ATOMIC CHARGES
-----------------------
   0 Pt:    0.153303
   1 Cl:   -0.431943
   2 Cl:   -0.299205
   3 Cl:   -0.431028
   4 C :   -0.923586
   5 H :    0.199015
   6 H :    0.268138
   7 H :    0.205467
   8 H :    0.259839
Sum of atomic charges:   -1.0000000

LOEWDIN ATOMIC CHARGES
----------------------
   0 Pt:   -0.833121
   1 Cl:   -0.125418
   2 Cl:    0.045127
   3 Cl:   -0.125269
   4 C :   -0.516483
   5 H :    0.118176
   6 H :    0.155187
   7 H :    0.122626
   8 H :    0.159177

  Mayer bond orders larger than 0.100000
B(  0-Pt,  1-Cl) :   0.8216 B(  0-Pt,  2-Cl) :   1.0330 B(  0-Pt,  3-Cl) :   0.8083
B(  1-Cl,  3-Cl) :   0.1092 B(  4-C ,  5-H ) :   0.9393 B(  4-C ,  6-H ) :   0.8952
B(  4-C ,  7-H ) :   0.9395 B(  4-C ,  8-H ) :   0.8995

Dispersion correction           -0.004386753
FINAL SINGLE POINT ENERGY     -1539.047125190421
Dispersion correction            ... done

DIPOLE MOMENT
-------------
                                X             Y             Z
Electronic contribution:     -9.22163      -3.96365       6.85497
Nuclear contribution   :      9.86402       4.57553      -7.13928
                        -----------------------------------------
Total Dipole Moment    :      0.64239       0.61188      -0.28431
                        -----------------------------------------
Magnitude (a.u.)       :      0.93160
Magnitude (Debye)      :      2.36795

Rotational constants in cm-1:     0.045912     0.043241     0.022448
Rotational constants in MHz :  1376.417344  1296.340694   672.973928

                             ****ORCA TERMINATED NORMALLY****
TOTAL RUN TIME: 0 days 0 hours 0 minutes 33 seconds 581 msec
