                         Program Version 5.0.3 -  RELEASE  -
|  1> ! EnGrad PBEh-3c
|  2> %output
|  3> xyzfile=True
|  4> end
|  5> %scf
|  6> maxiter 250
|  7> end
|  8> %output
|  9> Print[P_Hirshfeld] = 1
| 10> end
| 11> % maxcore
| 12> 4000
| 13> *xyz -1 1
| 14> Pt  -1.27400620  -1.02487362   0.64100405
| 15> Cl  -0.30870110  -0.88511883   2.72851516
| 16> Cl  -2.77627014  -2.57201893   1.19329421
| 17> Cl  -1.97150027  -0.86484613  -1.54819289
| 18> C    1.26412132   1.07494743  -0.61158219
| 19> H    1.44162129   2.12620587  -0.45498918
| 20> H    1.23001501   0.57534478   0.37087162
| 21> H    2.06257678   0.63555452  -1.18553533
| 22> H    0.33211676   0.92992457  -1.12761944
| 23> *
| 24>
| 25>                          ****END OF INPUT****

CARTESIAN COORDINATES (ANGSTROEM)
---------------------------------
  Pt    -1.274006   -1.024874    0.641004
  Cl    -0.308701   -0.885119    2.728515
  Cl    -2.776270   -2.572019    1.193294
  Cl    -1.971500   -0.864846   -1.548193
  C      1.264121    1.074947   -0.611582
  H      1.441621    2.126206   -0.454989
  H      1.230015    0.575345    0.370872
  H      2.062577    0.635555   -1.185535
  H      0.332117    0.929925   -1.127619

 Total Charge           Charge          ....   -1
 Multiplicity           Mult            ....    1
 Number of Electrons    NEL             ....   80
 Basis Dimension        Dim             ....  109

ORBITAL ENERGIES
----------------

  NO   OCC          E(Eh)            E(eV)
   0   2.0000    -102.122812     -2778.9030
   1   2.0000    -102.096343     -2778.1827
   2   2.0000    -102.096197     -2778.1788
   3   2.0000     -10.306628      -280.4576
   4   2.0000      -9.586862      -260.8718
   5   2.0000      -9.560529      -260.1552
   6   2.0000      -9.560461      -260.1534
   7   2.0000      -7.274525      -197.9499
   8   2.0000      -7.266825      -197.7404
   9   2.0000      -7.266547      -197.7328
  10   2.0000      -7.246228      -197.1799
  11   2.0000      -7.246206      -197.1793
  12   2.0000      -7.241816      -197.0598
  13   2.0000      -7.241622      -197.0546
  14   2.0000      -7.241276      -197.0451
  15   2.0000      -7.241220      -197.0436
  16   2.0000      -3.942309      -107.2757
  17   2.0000      -2.160497       -58.7901
  18   2.0000      -2.156989       -58.6946
  19   2.0000      -2.119073       -57.6629
  20   2.0000      -0.714632       -19.4461
  21   2.0000      -0.695065       -18.9137
  22   2.0000      -0.683761       -18.6061
  23   2.0000      -0.672263       -18.2932
  24   2.0000      -0.347429        -9.4540
  25   2.0000      -0.344146        -9.3647
  26   2.0000      -0.337372        -9.1804
  27   2.0000      -0.293962        -7.9991
  28   2.0000      -0.282754        -7.6941
  29   2.0000      -0.279716        -7.6115
  30   2.0000      -0.237400        -6.4600
  31   2.0000      -0.235626        -6.4117
  32   2.0000      -0.210815        -5.7366
  33   2.0000      -0.188131        -5.1193
  34   2.0000      -0.187616        -5.1053
  35   2.0000      -0.165523        -4.5041
  36   2.0000      -0.145536        -3.9602
  37   2.0000      -0.139583        -3.7983
  38   2.0000      -0.126462        -3.4412
  39   2.0000      -0.117499        -3.1973
  40   0.0000       0.058887         1.6024
  41   0.0000       0.191177         5.2022
  42   0.0000       0.200033         5.4432
  43   0.0000       0.262819         7.1517
  44   0.0000       0.265824         7.2334

MULLIKEN ATOMIC CHARGES
-----------------------
   0 Pt:    0.152481
   1 Cl:   -0.431300
   2 Cl:   -0.300169
   3 Cl:   -0.430990
   4 C :   -0.920791
   5 H :    0.202325
   6 H :    0.253981
   7 H :    0.209109
   8 H :    0.265355
Sum of atomic charges:   -1.0000000

LOEWDIN ATOMIC CHARGES
----------------------
   0 Pt:   -0.834348
   1 Cl:   -0.124170
   2 Cl:    0.042691
   3 Cl:   -0.124879
   4 C :   -0.517317
   5 H :    0.118670
   6 H :    0.158222
   7 H :    0.123108
   8 H :    0.158023

  Mayer bond orders larger than 0.100000
B(  0-Pt,  1-Cl) :   0.8215 B(  0-Pt,  2-Cl) :   1.0310 B(  0-Pt,  3-Cl) :   0.8085
B(  1-Cl,  3-Cl) :   0.1093 B(  4-C ,  5-H ) :   0.9367 B(  4-C ,  6-H ) :   0.9015
B(  4-C ,  7-H ) :   0.9369 B(  4-C ,  8-H ) :   0.8956

Dispersion correction           -0.004386922
FINAL SINGLE POINT ENERGY     -1539.048312422541
Dispersion correction            ... done

DIPOLE MOMENT
-------------
                                X             Y             Z
Electronic contribution:     -9.10319      -3.90222       6.90923
Nuclear contribution   :      9.75258       4.51635      -7.18792
                        -----------------------------------------
Total Dipole Moment    :      0.64939       0.61414      -0.27869
                        -----------------------------------------
Magnitude (a.u.)       :      0.93624
Magnitude (Debye)      :      2.37973

Rotational constants in cm-1:     0.045990     0.043030     0.022407
Rotational constants in MHz :  1378.750677  1290.003136   671.756744

                             ****ORCA TERMINATED NORMALLY****
TOTAL RUN TIME: 0 days 0 hours 0 minutes 34 seconds 687 msec
