                         Program Version 5.0.3 -  RELEASE  -
|  1> ! EnGrad PBEh-3c
|  2> %output
|  3> xyzfile=True
|  4> end
|  5> %scf
|  6> maxiter 250
|  7> end
|  8> %output
|  9> Print[P_Hirshfeld] = 1
| 10> end
| 11> % maxcore
| 12> 4000
| 13> *xyz -1 1
| 14> Pt  -1.27312092  -1.02402524   0.64053326
| 15> Cl  -0.30833152  -0.88497293   2.72783957
| 16> Cl  -2.77710081  -2.57282446   1.19511988
| 17> Cl  -1.97141373  -0.86540706  -1.54890540
| 18> C    1.26412373   1.07361641  -0.60894814
| 19> H    1.44287145   2.13024183  -0.45387256
| 20> H    1.22923023   0.57473957   0.37136193
| 21> H    2.06586514   0.63431342  -1.18813090
| 22> H    0.32792581   0.92892738  -1.12854010
| 23> *
| 24>
| 25>                          ****END OF INPUT****

CARTESIAN COORDINATES (ANGSTROEM)
---------------------------------
  Pt    -1.273121   -1.024025    0.640533
  Cl    -0.308332   -0.884973    2.727840
  Cl    -2.777101   -2.572824    1.195120
  Cl    -1.971414   -0.865407   -1.548905
  C      1.264124    1.073616   -0.608948
  H      1.442871    2.130242   -0.453873
  H      1.229230    0.574740    0.371362
  H      2.065865    0.634313   -1.188131
  H      0.327926    0.928927   -1.128540

 Total Charge           Charge          ....   -1
 Multiplicity           Mult            ....    1
 Number of Electrons    NEL             ....   80
 Basis Dimension        Dim             ....  109

ORBITAL ENERGIES
----------------

  NO   OCC          E(Eh)            E(eV)
   0   2.0000    -102.122798     -2778.9026
   1   2.0000    -102.096450     -2778.1857
   2   2.0000    -102.096202     -2778.1789
   3   2.0000     -10.308136      -280.4986
   4   2.0000      -9.586804      -260.8702
   5   2.0000      -9.560640      -260.1582
   6   2.0000      -9.560465      -260.1535
   7   2.0000      -7.274469      -197.9484
   8   2.0000      -7.266771      -197.7389
   9   2.0000      -7.266493      -197.7313
  10   2.0000      -7.246323      -197.1825
  11   2.0000      -7.246228      -197.1799
  12   2.0000      -7.241925      -197.0628
  13   2.0000      -7.241625      -197.0546
  14   2.0000      -7.241387      -197.0481
  15   2.0000      -7.241223      -197.0437
  16   2.0000      -3.942382      -107.2777
  17   2.0000      -2.160481       -58.7897
  18   2.0000      -2.157095       -58.6975
  19   2.0000      -2.119152       -57.6650
  20   2.0000      -0.714386       -19.4394
  21   2.0000      -0.695091       -18.9144
  22   2.0000      -0.683816       -18.6076
  23   2.0000      -0.671124       -18.2622
  24   2.0000      -0.346075        -9.4172
  25   2.0000      -0.343049        -9.3348
  26   2.0000      -0.337982        -9.1970
  27   2.0000      -0.294029        -8.0009
  28   2.0000      -0.282363        -7.6835
  29   2.0000      -0.279506        -7.6057
  30   2.0000      -0.237092        -6.4516
  31   2.0000      -0.235690        -6.4135
  32   2.0000      -0.210809        -5.7364
  33   2.0000      -0.188166        -5.1202
  34   2.0000      -0.187662        -5.1066
  35   2.0000      -0.165575        -4.5055
  36   2.0000      -0.145626        -3.9627
  37   2.0000      -0.139793        -3.8040
  38   2.0000      -0.126618        -3.4455
  39   2.0000      -0.117565        -3.1991
  40   0.0000       0.058534         1.5928
  41   0.0000       0.191073         5.1993
  42   0.0000       0.199925         5.4402
  43   0.0000       0.262687         7.1481
  44   0.0000       0.265631         7.2282

MULLIKEN ATOMIC CHARGES
-----------------------
   0 Pt:    0.152810
   1 Cl:   -0.431041
   2 Cl:   -0.300724
   3 Cl:   -0.431007
   4 C :   -0.918931
   5 H :    0.201174
   6 H :    0.255144
   7 H :    0.208000
   8 H :    0.264576
Sum of atomic charges:   -1.0000000

LOEWDIN ATOMIC CHARGES
----------------------
   0 Pt:   -0.833310
   1 Cl:   -0.123740
   2 Cl:    0.041230
   3 Cl:   -0.125080
   4 C :   -0.517029
   5 H :    0.118458
   6 H :    0.158158
   7 H :    0.122935
   8 H :    0.158379

  Mayer bond orders larger than 0.100000
B(  0-Pt,  1-Cl) :   0.8219 B(  0-Pt,  2-Cl) :   1.0299 B(  0-Pt,  3-Cl) :   0.8084
B(  1-Cl,  3-Cl) :   0.1093 B(  4-C ,  5-H ) :   0.9370 B(  4-C ,  6-H ) :   0.9004
B(  4-C ,  7-H ) :   0.9371 B(  4-C ,  8-H ) :   0.8955

Dispersion correction           -0.004386990
FINAL SINGLE POINT ENERGY     -1539.048539860573
Dispersion correction            ... done

DIPOLE MOMENT
-------------
                                X             Y             Z
Electronic contribution:     -9.04410      -3.82672       6.86366
Nuclear contribution   :      9.69509       4.44264      -7.14170
                        -----------------------------------------
Total Dipole Moment    :      0.65099       0.61592      -0.27804
                        -----------------------------------------
Magnitude (a.u.)       :      0.93833
Magnitude (Debye)      :      2.38503

Rotational constants in cm-1:     0.045974     0.043024     0.022402
Rotational constants in MHz :  1378.251053  1289.838539   671.606602

                             ****ORCA TERMINATED NORMALLY****
TOTAL RUN TIME: 0 days 0 hours 0 minutes 37 seconds 634 msec
