                         Program Version 5.0.3 -  RELEASE  -
|  1> ! EnGrad PBEh-3c
|  2> %output
|  3> xyzfile=True
|  4> end
|  5> %scf
|  6> maxiter 250
|  7> end
|  8> %output
|  9> Print[P_Hirshfeld] = 1
| 10> end
| 11> % maxcore
| 12> 4000
| 13> *xyz -1 1
| 14> Pt  -1.27230827  -1.02315604   0.63952905
| 15> Cl  -0.30701011  -0.88476559   2.72641568
| 16> Cl  -2.77843684  -2.57428944   1.19982626
| 17> Cl  -1.97162680  -0.86664056  -1.55098058
| 18> C    1.26472409   1.06927953  -0.59935903
| 19> H    1.44510140   2.13648148  -0.45245891
| 20> H    1.22834131   0.57619116   0.36862153
| 21> H    2.07123104   0.63293976  -1.19244767
| 22> H    0.32028645   0.92713650  -1.13078518
| 23> *
| 24>
| 25>                          ****END OF INPUT****

CARTESIAN COORDINATES (ANGSTROEM)
---------------------------------
  Pt    -1.272308   -1.023156    0.639529
  Cl    -0.307010   -0.884766    2.726416
  Cl    -2.778437   -2.574289    1.199826
  Cl    -1.971627   -0.866641   -1.550981
  C      1.264724    1.069280   -0.599359
  H      1.445101    2.136481   -0.452459
  H      1.228341    0.576191    0.368622
  H      2.071231    0.632940   -1.192448
  H      0.320286    0.927137   -1.130785

 Total Charge           Charge          ....   -1
 Multiplicity           Mult            ....    1
 Number of Electrons    NEL             ....   80
 Basis Dimension        Dim             ....  109

ORBITAL ENERGIES
----------------

  NO   OCC          E(Eh)            E(eV)
   0   2.0000    -102.122808     -2778.9029
   1   2.0000    -102.096660     -2778.1914
   2   2.0000    -102.096235     -2778.1798
   3   2.0000     -10.310175      -280.5541
   4   2.0000      -9.586749      -260.8687
   5   2.0000      -9.560848      -260.1639
   6   2.0000      -9.560486      -260.1541
   7   2.0000      -7.274416      -197.9469
   8   2.0000      -7.266720      -197.7375
   9   2.0000      -7.266444      -197.7300
  10   2.0000      -7.246536      -197.1883
  11   2.0000      -7.246249      -197.1805
  12   2.0000      -7.242130      -197.0684
  13   2.0000      -7.241648      -197.0553
  14   2.0000      -7.241593      -197.0538
  15   2.0000      -7.241246      -197.0443
  16   2.0000      -3.942539      -107.2819
  17   2.0000      -2.160502       -58.7903
  18   2.0000      -2.157292       -58.7029
  19   2.0000      -2.119316       -57.6695
  20   2.0000      -0.714024       -19.4296
  21   2.0000      -0.695117       -18.9151
  22   2.0000      -0.683900       -18.6099
  23   2.0000      -0.669593       -18.2206
  24   2.0000      -0.343371        -9.3436
  25   2.0000      -0.342038        -9.3073
  26   2.0000      -0.339182        -9.2296
  27   2.0000      -0.294076        -8.0022
  28   2.0000      -0.281800        -7.6682
  29   2.0000      -0.279162        -7.5964
  30   2.0000      -0.236645        -6.4394
  31   2.0000      -0.235755        -6.4152
  32   2.0000      -0.210812        -5.7365
  33   2.0000      -0.188216        -5.1216
  34   2.0000      -0.187742        -5.1087
  35   2.0000      -0.165699        -4.5089
  36   2.0000      -0.145807        -3.9676
  37   2.0000      -0.140154        -3.8138
  38   2.0000      -0.126905        -3.4533
  39   2.0000      -0.117752        -3.2042
  40   0.0000       0.057916         1.5760
  41   0.0000       0.190813         5.1923
  42   0.0000       0.199739         5.4352
  43   0.0000       0.262519         7.1435
  44   0.0000       0.265467         7.2237

MULLIKEN ATOMIC CHARGES
-----------------------
   0 Pt:    0.153668
   1 Cl:   -0.430649
   2 Cl:   -0.301562
   3 Cl:   -0.431162
   4 C :   -0.916314
   5 H :    0.198817
   6 H :    0.259541
   7 H :    0.205561
   8 H :    0.262100
Sum of atomic charges:   -1.0000000

LOEWDIN ATOMIC CHARGES
----------------------
   0 Pt:   -0.830863
   1 Cl:   -0.123239
   2 Cl:    0.038993
   3 Cl:   -0.125724
   4 C :   -0.516470
   5 H :    0.118001
   6 H :    0.157596
   7 H :    0.122536
   8 H :    0.159171

  Mayer bond orders larger than 0.100000
B(  0-Pt,  1-Cl) :   0.8223 B(  0-Pt,  2-Cl) :   1.0284 B(  0-Pt,  3-Cl) :   0.8080
B(  1-Cl,  3-Cl) :   0.1094 B(  4-C ,  5-H ) :   0.9378 B(  4-C ,  6-H ) :   0.8974
B(  4-C ,  7-H ) :   0.9380 B(  4-C ,  8-H ) :   0.8961

Dispersion correction           -0.004386683
FINAL SINGLE POINT ENERGY     -1539.048660208481
Dispersion correction            ... done

DIPOLE MOMENT
-------------
                                X             Y             Z
Electronic contribution:     -8.99467      -3.71738       6.74443
Nuclear contribution   :      9.64676       4.33570      -7.02168
                        -----------------------------------------
Total Dipole Moment    :      0.65209       0.61832      -0.27725
                        -----------------------------------------
Magnitude (a.u.)       :      0.94043
Magnitude (Debye)      :      2.39038

Rotational constants in cm-1:     0.045928     0.043030     0.022394
Rotational constants in MHz :  1376.886419  1290.017877   671.345487

                             ****ORCA TERMINATED NORMALLY****
TOTAL RUN TIME: 0 days 0 hours 0 minutes 38 seconds 717 msec
