                         Program Version 5.0.3 -  RELEASE  -
|  1> ! EnGrad PBEh-3c
|  2> %output
|  3> xyzfile=True
|  4> end
|  5> %scf
|  6> maxiter 250
|  7> end
|  8> %output
|  9> Print[P_Hirshfeld] = 1
| 10> end
| 11> % maxcore
| 12> 4000
| 13> *xyz 0 1
| 14> C   -1.36806327   0.13219496  -0.81955527
| 15> C   -2.25426949  -0.87631819  -1.16179577
| 16> C   -2.05249605  -2.16952213  -0.71224425
| 17> C   -0.96468846  -2.46380732   0.09213506
| 18> C   -0.35399675  -0.18678702   0.05572432
| 19> C   -0.10904308  -1.46123758   0.50859997
| 20> H   -1.55885926   1.10145689  -1.27066814
| 21> H   -3.09879365  -0.65596479  -1.80477594
| 22> H   -2.75396438  -2.94552347  -0.97890287
| 23> H    0.70828937  -1.75150507   1.16230023
| 24> H   -0.80705287  -3.47972626   0.43751963
| 25> Pd   1.51551065   1.09197172  -0.20994556
| 26> O    3.52365801   1.50024953  -0.81776144
| 27> O    2.74787316  -0.51410657  -0.61286374
| 28> O    0.33160177   2.72890919   0.16810525
| 29> C   -0.16044861   2.81233980   1.28236658
| 30> O    0.23999441   2.01027084   2.21273688
| 31> H   -1.05551072   1.42729545   2.98857186
| 32> C    3.69934555   0.27057308  -0.86950330
| 33> H    4.66259751  -0.16531917  -1.16926094
| 34> H   -0.89167579   3.59454609   1.51923352
| 35> *
| 36>
| 37>                          ****END OF INPUT****

CARTESIAN COORDINATES (ANGSTROEM)
---------------------------------
  C     -1.368063    0.132195   -0.819555
  C     -2.254269   -0.876318   -1.161796
  C     -2.052496   -2.169522   -0.712244
  C     -0.964688   -2.463807    0.092135
  C     -0.353997   -0.186787    0.055724
  C     -0.109043   -1.461238    0.508600
  H     -1.558859    1.101457   -1.270668
  H     -3.098794   -0.655965   -1.804776
  H     -2.753964   -2.945523   -0.978903
  H      0.708289   -1.751505    1.162300
  H     -0.807053   -3.479726    0.437520
  Pd     1.515511    1.091972   -0.209946
  O      3.523658    1.500250   -0.817761
  O      2.747873   -0.514107   -0.612864
  O      0.331602    2.728909    0.168105
  C     -0.160449    2.812340    1.282367
  O      0.239994    2.010271    2.212737
  H     -1.055511    1.427295    2.988572
  C      3.699346    0.270573   -0.869503
  H      4.662598   -0.165319   -1.169261
  H     -0.891676    3.594546    1.519234

 Total Charge           Charge          ....    0
 Multiplicity           Mult            ....    1
 Number of Electrons    NEL             ....  106
 Basis Dimension        Dim             ....  227

ORBITAL ENERGIES
----------------

  NO   OCC          E(Eh)            E(eV)
   0   2.0000     -19.601391      -533.3810
   1   2.0000     -19.567024      -532.4458
   2   2.0000     -19.492838      -530.4271
   3   2.0000     -19.481907      -530.1296
   4   2.0000     -10.625833      -289.1436
   5   2.0000     -10.553454      -287.1741
   6   2.0000     -10.450685      -284.3776
   7   2.0000     -10.439100      -284.0623
   8   2.0000     -10.438064      -284.0342
   9   2.0000     -10.437337      -284.0144
  10   2.0000     -10.435739      -283.9709
  11   2.0000     -10.435611      -283.9674
  12   2.0000      -3.636444       -98.9527
  13   2.0000      -2.284960       -62.1769
  14   2.0000      -2.278228       -61.9937
  15   2.0000      -2.250015       -61.2260
  16   2.0000      -1.261986       -34.3404
  17   2.0000      -1.193720       -32.4828
  18   2.0000      -1.156639       -31.4737
  19   2.0000      -1.080138       -29.3920
  20   2.0000      -0.948484       -25.8095
  21   2.0000      -0.832226       -22.6460
  22   2.0000      -0.818019       -22.2594
  23   2.0000      -0.730158       -19.8686
  24   2.0000      -0.669243       -18.2110
  25   2.0000      -0.661207       -17.9924
  26   2.0000      -0.658273       -17.9125
  27   2.0000      -0.631988       -17.1973
  28   2.0000      -0.598018       -16.2729
  29   2.0000      -0.574772       -15.6404
  30   2.0000      -0.561466       -15.2783
  31   2.0000      -0.550337       -14.9754
  32   2.0000      -0.522403       -14.2153
  33   2.0000      -0.504906       -13.7392
  34   2.0000      -0.501512       -13.6468
  35   2.0000      -0.494631       -13.4596
  36   2.0000      -0.474203       -12.9037
  37   2.0000      -0.450293       -12.2531
  38   2.0000      -0.438039       -11.9197
  39   2.0000      -0.433999       -11.8097
  40   2.0000      -0.421788       -11.4774
  41   2.0000      -0.417178       -11.3520
  42   2.0000      -0.394911       -10.7461
  43   2.0000      -0.378088       -10.2883
  44   2.0000      -0.365110        -9.9352
  45   2.0000      -0.357699        -9.7335
  46   2.0000      -0.337900        -9.1947
  47   2.0000      -0.317486        -8.6392
  48   2.0000      -0.306065        -8.3284
  49   2.0000      -0.292947        -7.9715
  50   2.0000      -0.286257        -7.7894
  51   2.0000      -0.277209        -7.5432
  52   2.0000      -0.261620        -7.1190
  53   0.0000      -0.147397        -4.0109
  54   0.0000      -0.041441        -1.1277
  55   0.0000      -0.005545        -0.1509
  56   0.0000       0.028578         0.7776
  57   0.0000       0.035810         0.9744

MULLIKEN ATOMIC CHARGES
-----------------------
   0 C :   -0.223696
   1 C :   -0.233880
   2 C :   -0.218099
   3 C :   -0.230282
   4 C :   -0.164591
   5 C :   -0.218804
   6 H :    0.228755
   7 H :    0.213574
   8 H :    0.213936
   9 H :    0.238342
  10 H :    0.214632
  11 Pd:    0.355061
  12 O :   -0.471553
  13 O :   -0.470956
  14 O :   -0.374478
  15 C :    0.373960
  16 O :   -0.384567
  17 H :    0.351184
  18 C :    0.392141
  19 H :    0.182868
  20 H :    0.226452
Sum of atomic charges:    0.0000000

LOEWDIN ATOMIC CHARGES
----------------------
   0 C :   -0.136814
   1 C :   -0.135090
   2 C :   -0.144346
   3 C :   -0.129695
   4 C :   -0.034567
   5 C :   -0.117543
   6 H :    0.147694
   7 H :    0.131487
   8 H :    0.133395
   9 H :    0.154173
  10 H :    0.133143
  11 Pd:   -0.318259
  12 O :   -0.184070
  13 O :   -0.161540
  14 O :   -0.038631
  15 C :    0.138363
  16 O :   -0.160264
  17 H :    0.346741
  18 C :    0.140885
  19 H :    0.109467
  20 H :    0.125470

  Mayer bond orders larger than 0.100000
B(  0-C ,  1-C ) :   1.4178 B(  0-C ,  4-C ) :   1.3833 B(  0-C ,  6-H ) :   0.9091
B(  1-C ,  2-C ) :   1.4404 B(  1-C ,  7-H ) :   0.9170 B(  2-C ,  3-C ) :   1.4223
B(  2-C ,  8-H ) :   0.9214 B(  3-C ,  5-C ) :   1.4291 B(  3-C , 10-H ) :   0.9169
B(  4-C ,  5-C ) :   1.4049 B(  4-C , 11-Pd) :   0.7950 B(  5-C ,  9-H ) :   0.9082
B( 11-Pd, 12-O ) :   0.3978 B( 11-Pd, 13-O ) :   0.5457 B( 11-Pd, 14-O ) :   0.3938
B( 12-O , 13-O ) :   0.1154 B( 12-O , 18-C ) :   1.5628 B( 13-O , 18-C ) :   1.4486
B( 14-O , 15-C ) :   1.6954 B( 15-C , 16-O ) :   1.3077 B( 15-C , 20-H ) :   0.8690
B( 16-O , 17-H ) :   0.6926 B( 18-C , 19-H ) :   0.8871

Dispersion correction           -0.013064894
FINAL SINGLE POINT ENERGY      -736.970479644701
Dispersion correction            ... done

DIPOLE MOMENT
-------------
                                X             Y             Z
Electronic contribution:     55.47640      42.03700      -7.64591
Nuclear contribution   :    -57.23617     -41.37360       9.26785
                        -----------------------------------------
Total Dipole Moment    :     -1.75977       0.66339       1.62194
                        -----------------------------------------
Magnitude (a.u.)       :      2.48346
Magnitude (Debye)      :      6.31246

Rotational constants in cm-1:     0.029778     0.016312     0.012317
Rotational constants in MHz :   892.721565   489.010416   369.252593

                             ****ORCA TERMINATED NORMALLY****
TOTAL RUN TIME: 0 days 0 hours 3 minutes 57 seconds 650 msec
