                         Program Version 5.0.3 -  RELEASE  -
|  1> ! EnGrad PBEh-3c
|  2> %output
|  3> xyzfile=True
|  4> end
|  5> %scf
|  6> maxiter 250
|  7> end
|  8> %output
|  9> Print[P_Hirshfeld] = 1
| 10> end
| 11> % maxcore
| 12> 4000
| 13> *xyz 0 1
| 14> C   -1.42083425   0.17430623  -0.66330623
| 15> C   -2.15956066  -0.88952497  -1.18390771
| 16> C   -1.84469495  -2.21133163  -0.88999015
| 17> C   -0.91381529  -2.43574022   0.12234046
| 18> C   -0.29073108  -0.15045455   0.08661804
| 19> C   -0.15968868  -1.40934026   0.67422566
| 20> H   -1.68105159   1.20055348  -0.91358377
| 21> H   -2.86879109  -0.69320474  -1.96683668
| 22> H   -2.30678789  -3.05367844  -1.44223449
| 23> H    0.58880416  -1.58410644   1.43959302
| 24> H   -0.61236642  -3.43906115   0.33779198
| 25> Pd   1.28975028   0.95376578  -0.13612795
| 26> O    3.32477053   1.35927991  -1.10305033
| 27> O    2.61977923  -0.60210644  -0.37293549
| 28> O    0.39193782   2.71821024   0.38581223
| 29> C   -0.25965863   2.86770127   1.38429770
| 30> O    0.06334783   2.01357473   2.35906339
| 31> H   -0.80261563   1.59950657   2.54781929
| 32> C    3.47952135   0.13761149  -0.93583057
| 33> H    4.36532220  -0.35875669  -1.34429231
| 34> H   -0.82284015   3.79128607   1.60958481
| 35> *
| 36>
| 37>                          ****END OF INPUT****

CARTESIAN COORDINATES (ANGSTROEM)
---------------------------------
  C     -1.420834    0.174306   -0.663306
  C     -2.159561   -0.889525   -1.183908
  C     -1.844695   -2.211332   -0.889990
  C     -0.913815   -2.435740    0.122340
  C     -0.290731   -0.150455    0.086618
  C     -0.159689   -1.409340    0.674226
  H     -1.681052    1.200553   -0.913584
  H     -2.868791   -0.693205   -1.966837
  H     -2.306788   -3.053678   -1.442234
  H      0.588804   -1.584106    1.439593
  H     -0.612366   -3.439061    0.337792
  Pd     1.289750    0.953766   -0.136128
  O      3.324771    1.359280   -1.103050
  O      2.619779   -0.602106   -0.372935
  O      0.391938    2.718210    0.385812
  C     -0.259659    2.867701    1.384298
  O      0.063348    2.013575    2.359063
  H     -0.802616    1.599507    2.547819
  C      3.479521    0.137611   -0.935831
  H      4.365322   -0.358757   -1.344292
  H     -0.822840    3.791286    1.609585

 Total Charge           Charge          ....    0
 Multiplicity           Mult            ....    1
 Number of Electrons    NEL             ....  106
 Basis Dimension        Dim             ....  227

ORBITAL ENERGIES
----------------

  NO   OCC          E(Eh)            E(eV)
   0   2.0000     -19.587622      -533.0063
   1   2.0000     -19.583761      -532.9012
   2   2.0000     -19.484126      -530.1900
   3   2.0000     -19.468841      -529.7741
   4   2.0000     -10.648726      -289.7666
   5   2.0000     -10.543663      -286.9077
   6   2.0000     -10.458547      -284.5915
   7   2.0000     -10.448404      -284.3155
   8   2.0000     -10.444555      -284.2108
   9   2.0000     -10.441758      -284.1347
  10   2.0000     -10.441396      -284.1248
  11   2.0000     -10.440855      -284.1101
  12   2.0000      -3.643920       -99.1561
  13   2.0000      -2.293599       -62.4120
  14   2.0000      -2.287606       -62.2489
  15   2.0000      -2.257522       -61.4303
  16   2.0000      -1.296223       -35.2720
  17   2.0000      -1.196493       -32.5582
  18   2.0000      -1.176144       -32.0045
  19   2.0000      -1.071035       -29.1444
  20   2.0000      -0.949879       -25.8475
  21   2.0000      -0.832999       -22.6671
  22   2.0000      -0.824698       -22.4412
  23   2.0000      -0.767850       -20.8943
  24   2.0000      -0.695565       -18.9273
  25   2.0000      -0.676129       -18.3984
  26   2.0000      -0.662749       -18.0343
  27   2.0000      -0.649900       -17.6847
  28   2.0000      -0.624960       -17.0060
  29   2.0000      -0.599243       -16.3062
  30   2.0000      -0.576779       -15.6949
  31   2.0000      -0.542433       -14.7603
  32   2.0000      -0.515860       -14.0373
  33   2.0000      -0.508159       -13.8277
  34   2.0000      -0.506597       -13.7852
  35   2.0000      -0.496773       -13.5179
  36   2.0000      -0.482459       -13.1284
  37   2.0000      -0.477818       -13.0021
  38   2.0000      -0.457902       -12.4601
  39   2.0000      -0.452324       -12.3083
  40   2.0000      -0.434977       -11.8363
  41   2.0000      -0.428663       -11.6645
  42   2.0000      -0.399281       -10.8650
  43   2.0000      -0.377019       -10.2592
  44   2.0000      -0.374176       -10.1819
  45   2.0000      -0.358594        -9.7578
  46   2.0000      -0.342141        -9.3101
  47   2.0000      -0.331315        -9.0155
  48   2.0000      -0.312486        -8.5032
  49   2.0000      -0.303371        -8.2552
  50   2.0000      -0.288229        -7.8431
  51   2.0000      -0.281118        -7.6496
  52   2.0000      -0.257427        -7.0049
  53   0.0000      -0.060909        -1.6574
  54   0.0000      -0.025372        -0.6904
  55   0.0000       0.019280         0.5246
  56   0.0000       0.023412         0.6371
  57   0.0000       0.049661         1.3514

MULLIKEN ATOMIC CHARGES
-----------------------
   0 C :   -0.242955
   1 C :   -0.230171
   2 C :   -0.217236
   3 C :   -0.233975
   4 C :   -0.176451
   5 C :   -0.214811
   6 H :    0.220434
   7 H :    0.216965
   8 H :    0.218110
   9 H :    0.246032
  10 H :    0.221740
  11 Pd:    0.395639
  12 O :   -0.468501
  13 O :   -0.489081
  14 O :   -0.336786
  15 C :    0.338269
  16 O :   -0.526854
  17 H :    0.470554
  18 C :    0.377694
  19 H :    0.174121
  20 H :    0.257263
Sum of atomic charges:   -0.0000000

LOEWDIN ATOMIC CHARGES
----------------------
   0 C :   -0.142684
   1 C :   -0.128367
   2 C :   -0.150751
   3 C :   -0.124063
   4 C :   -0.007448
   5 C :   -0.113346
   6 H :    0.146860
   7 H :    0.135056
   8 H :    0.138020
   9 H :    0.160176
  10 H :    0.137650
  11 Pd:   -0.307135
  12 O :   -0.215232
  13 O :   -0.180519
  14 O :   -0.004347
  15 C :    0.173193
  16 O :   -0.255181
  17 H :    0.359986
  18 C :    0.130059
  19 H :    0.102679
  20 H :    0.145394

  Mayer bond orders larger than 0.100000
B(  0-C ,  1-C ) :   1.4165 B(  0-C ,  4-C ) :   1.3646 B(  0-C ,  6-H ) :   0.9114
B(  1-C ,  2-C ) :   1.4379 B(  1-C ,  7-H ) :   0.9179 B(  2-C ,  3-C ) :   1.4082
B(  2-C ,  8-H ) :   0.9207 B(  3-C ,  5-C ) :   1.4301 B(  3-C , 10-H ) :   0.9170
B(  4-C ,  5-C ) :   1.3815 B(  4-C , 11-Pd) :   0.9404 B(  5-C ,  9-H ) :   0.9071
B( 11-Pd, 12-O ) :   0.3375 B( 11-Pd, 13-O ) :   0.5326 B( 11-Pd, 14-O ) :   0.3490
B( 12-O , 13-O ) :   0.1181 B( 12-O , 18-C ) :   1.6229 B( 13-O , 18-C ) :   1.4317
B( 14-O , 15-C ) :   1.8166 B( 15-C , 16-O ) :   1.1480 B( 15-C , 20-H ) :   0.8527
B( 16-O , 17-H ) :   0.7289 B( 18-C , 19-H ) :   0.8860

Dispersion correction           -0.013146905
FINAL SINGLE POINT ENERGY      -737.083585394385
Dispersion correction            ... done

DIPOLE MOMENT
-------------
                                X             Y             Z
Electronic contribution:     46.28480      36.69883      -5.69502
Nuclear contribution   :    -48.17610     -35.70432       6.99810
                        -----------------------------------------
Total Dipole Moment    :     -1.89130       0.99451       1.30308
                        -----------------------------------------
Magnitude (a.u.)       :      2.50282
Magnitude (Debye)      :      6.36166

Rotational constants in cm-1:     0.028155     0.018217     0.013145
Rotational constants in MHz :   844.076838   546.139464   394.066892

                             ****ORCA TERMINATED NORMALLY****
TOTAL RUN TIME: 0 days 0 hours 3 minutes 45 seconds 167 msec
