                         Program Version 5.0.3 -  RELEASE  -
|  1> ! EnGrad PBEh-3c
|  2> %output
|  3> xyzfile=True
|  4> end
|  5> %scf
|  6> maxiter 250
|  7> end
|  8> %output
|  9> Print[P_Hirshfeld] = 1
| 10> end
| 11> % maxcore
| 12> 4000
| 13> *xyz 0 1
| 14> C   -1.41600469   0.16107813  -0.68177688
| 15> C   -2.16216940  -0.89738041  -1.19049243
| 16> C   -1.84664302  -2.21233355  -0.88767710
| 17> C   -0.91473052  -2.44445022   0.11623108
| 18> C   -0.27877641  -0.14468041   0.08248093
| 19> C   -0.15424593  -1.41936460   0.65793699
| 20> H   -1.66873047   1.20552202  -0.90742300
| 21> H   -2.86953003  -0.69172315  -1.96202653
| 22> H   -2.28337995  -3.04356918  -1.44921436
| 23> H    0.59789084  -1.57576980   1.43889327
| 24> H   -0.61757704  -3.44080694   0.35048106
| 25> Pd   1.31130573   0.95494498  -0.13942129
| 26> O    3.30339499   1.34618806  -1.09653941
| 27> O    2.60958996  -0.60721925  -0.37927268
| 28> O    0.37624007   2.72854496   0.36454716
| 29> C   -0.21563445   2.88307258   1.39629420
| 30> O    0.03429788   2.01535151   2.38109135
| 31> H   -0.81037858   1.60071036   2.56905384
| 32> C    3.47520626   0.12834651  -0.93827635
| 33> H    4.35437555  -0.36565885  -1.34928209
| 34> H   -0.84836070   3.80567319   1.61983396
| 35> *
| 36>
| 37>                          ****END OF INPUT****

CARTESIAN COORDINATES (ANGSTROEM)
---------------------------------
  C     -1.416005    0.161078   -0.681777
  C     -2.162169   -0.897380   -1.190492
  C     -1.846643   -2.212334   -0.887677
  C     -0.914731   -2.444450    0.116231
  C     -0.278776   -0.144680    0.082481
  C     -0.154246   -1.419365    0.657937
  H     -1.668730    1.205522   -0.907423
  H     -2.869530   -0.691723   -1.962027
  H     -2.283380   -3.043569   -1.449214
  H      0.597891   -1.575770    1.438893
  H     -0.617577   -3.440807    0.350481
  Pd     1.311306    0.954945   -0.139421
  O      3.303395    1.346188   -1.096539
  O      2.609590   -0.607219   -0.379273
  O      0.376240    2.728545    0.364547
  C     -0.215634    2.883073    1.396294
  O      0.034298    2.015352    2.381091
  H     -0.810379    1.600710    2.569054
  C      3.475206    0.128347   -0.938276
  H      4.354376   -0.365659   -1.349282
  H     -0.848361    3.805673    1.619834

 Total Charge           Charge          ....    0
 Multiplicity           Mult            ....    1
 Number of Electrons    NEL             ....  106
 Basis Dimension        Dim             ....  227

ORBITAL ENERGIES
----------------

  NO   OCC          E(Eh)            E(eV)
   0   2.0000     -19.586692      -532.9810
   1   2.0000     -19.585962      -532.9611
   2   2.0000     -19.487453      -530.2805
   3   2.0000     -19.473318      -529.8959
   4   2.0000     -10.652573      -289.8713
   5   2.0000     -10.546926      -286.9964
   6   2.0000     -10.455428      -284.5067
   7   2.0000     -10.446579      -284.2659
   8   2.0000     -10.440736      -284.1069
   9   2.0000     -10.440008      -284.0871
  10   2.0000     -10.438184      -284.0374
  11   2.0000     -10.437518      -284.0193
  12   2.0000      -3.644605       -99.1747
  13   2.0000      -2.293996       -62.4228
  14   2.0000      -2.288546       -62.2745
  15   2.0000      -2.258011       -61.4436
  16   2.0000      -1.293422       -35.1958
  17   2.0000      -1.202555       -32.7232
  18   2.0000      -1.183245       -32.1977
  19   2.0000      -1.075131       -29.2558
  20   2.0000      -0.946606       -25.7585
  21   2.0000      -0.830253       -22.5923
  22   2.0000      -0.821792       -22.3621
  23   2.0000      -0.767892       -20.8954
  24   2.0000      -0.695717       -18.9314
  25   2.0000      -0.672951       -18.3119
  26   2.0000      -0.661628       -18.0038
  27   2.0000      -0.655187       -17.8285
  28   2.0000      -0.625239       -17.0136
  29   2.0000      -0.595519       -16.2049
  30   2.0000      -0.574536       -15.6339
  31   2.0000      -0.547209       -14.8903
  32   2.0000      -0.517722       -14.0879
  33   2.0000      -0.508179       -13.8283
  34   2.0000      -0.505362       -13.7516
  35   2.0000      -0.496439       -13.5088
  36   2.0000      -0.487665       -13.2700
  37   2.0000      -0.474344       -12.9075
  38   2.0000      -0.454297       -12.3620
  39   2.0000      -0.449614       -12.2346
  40   2.0000      -0.439425       -11.9574
  41   2.0000      -0.425964       -11.5911
  42   2.0000      -0.396398       -10.7865
  43   2.0000      -0.379334       -10.3222
  44   2.0000      -0.376536       -10.2461
  45   2.0000      -0.361195        -9.8286
  46   2.0000      -0.344599        -9.3770
  47   2.0000      -0.331888        -9.0311
  48   2.0000      -0.314075        -8.5464
  49   2.0000      -0.305477        -8.3124
  50   2.0000      -0.286903        -7.8070
  51   2.0000      -0.280092        -7.6217
  52   2.0000      -0.256174        -6.9708
  53   0.0000      -0.053060        -1.4438
  54   0.0000      -0.024130        -0.6566
  55   0.0000       0.021634         0.5887
  56   0.0000       0.025357         0.6900
  57   0.0000       0.051191         1.3930

MULLIKEN ATOMIC CHARGES
-----------------------
   0 C :   -0.248098
   1 C :   -0.224138
   2 C :   -0.221117
   3 C :   -0.228118
   4 C :   -0.175613
   5 C :   -0.222598
   6 H :    0.216404
   7 H :    0.216355
   8 H :    0.217792
   9 H :    0.242552
  10 H :    0.220402
  11 Pd:    0.393562
  12 O :   -0.468018
  13 O :   -0.486850
  14 O :   -0.333501
  15 C :    0.356723
  16 O :   -0.538841
  17 H :    0.476399
  18 C :    0.382246
  19 H :    0.178677
  20 H :    0.245781
Sum of atomic charges:   -0.0000000

LOEWDIN ATOMIC CHARGES
----------------------
   0 C :   -0.139921
   1 C :   -0.132082
   2 C :   -0.149247
   3 C :   -0.127671
   4 C :   -0.015221
   5 C :   -0.112728
   6 H :    0.144809
   7 H :    0.135265
   8 H :    0.137020
   9 H :    0.158451
  10 H :    0.137492
  11 Pd:   -0.311172
  12 O :   -0.205274
  13 O :   -0.174062
  14 O :   -0.004784
  15 C :    0.180500
  16 O :   -0.260776
  17 H :    0.359417
  18 C :    0.133435
  19 H :    0.105621
  20 H :    0.140928

  Mayer bond orders larger than 0.100000
B(  0-C ,  1-C ) :   1.4206 B(  0-C ,  4-C ) :   1.3657 B(  0-C ,  6-H ) :   0.9124
B(  1-C ,  2-C ) :   1.4366 B(  1-C ,  7-H ) :   0.9186 B(  2-C ,  3-C ) :   1.4112
B(  2-C ,  8-H ) :   0.9208 B(  3-C ,  5-C ) :   1.4320 B(  3-C , 10-H ) :   0.9178
B(  4-C ,  5-C ) :   1.3820 B(  4-C , 11-Pd) :   0.9321 B(  5-C ,  9-H ) :   0.9079
B( 11-Pd, 12-O ) :   0.3504 B( 11-Pd, 13-O ) :   0.5414 B( 11-Pd, 14-O ) :   0.3431
B( 12-O , 13-O ) :   0.1172 B( 12-O , 18-C ) :   1.6121 B( 13-O , 18-C ) :   1.4284
B( 14-O , 15-C ) :   1.8290 B( 15-C , 16-O ) :   1.1390 B( 15-C , 20-H ) :   0.8529
B( 16-O , 17-H ) :   0.7235 B( 18-C , 19-H ) :   0.8871

Dispersion correction           -0.013096768
FINAL SINGLE POINT ENERGY      -737.092485738921
Dispersion correction            ... done

DIPOLE MOMENT
-------------
                                X             Y             Z
Electronic contribution:     47.54371      36.82681      -5.80977
Nuclear contribution   :    -49.23991     -35.81451       7.09169
                        -----------------------------------------
Total Dipole Moment    :     -1.69620       1.01230       1.28191
                        -----------------------------------------
Magnitude (a.u.)       :      2.35481
Magnitude (Debye)      :      5.98546

Rotational constants in cm-1:     0.028004     0.018176     0.013106
Rotational constants in MHz :   839.541170   544.903178   392.906322

                             ****ORCA TERMINATED NORMALLY****
TOTAL RUN TIME: 0 days 0 hours 3 minutes 43 seconds 492 msec
