                         Program Version 5.0.3 -  RELEASE  -
|  1> ! EnGrad PBEh-3c
|  2> %output
|  3> xyzfile=True
|  4> end
|  5> %scf
|  6> maxiter 250
|  7> end
|  8> %output
|  9> Print[P_Hirshfeld] = 1
| 10> end
| 11> % maxcore
| 12> 4000
| 13> *xyz 0 1
| 14> C   -1.40541624   0.15244516  -0.69057042
| 15> C   -2.15876262  -0.90275986  -1.19836062
| 16> C   -1.84431323  -2.21328205  -0.88689201
| 17> C   -0.90964331  -2.45026112   0.11021265
| 18> C   -0.27243943  -0.13771410   0.08715071
| 19> C   -0.14720300  -1.41799084   0.64325093
| 20> H   -1.65724201   1.20264416  -0.90144843
| 21> H   -2.87593415  -0.68919225  -1.96361250
| 22> H   -2.25781161  -3.03332062  -1.45769472
| 23> H    0.60051860  -1.56972930   1.43352239
| 24> H   -0.62163652  -3.45050751   0.36462995
| 25> Pd   1.32477236   0.95361155  -0.13818163
| 26> O    3.28366852   1.33757443  -1.09004270
| 27> O    2.59857306  -0.61173710  -0.38318801
| 28> O    0.35943828   2.74612501   0.33879834
| 29> C   -0.17879679   2.90311019   1.41949239
| 30> O    0.00716017   2.02995388   2.39531473
| 31> H   -0.82445074   1.59472579   2.59083839
| 32> C    3.46337925   0.11339421  -0.94618825
| 33> H    4.34678432  -0.37575528  -1.35552374
| 34> H   -0.85854188   3.80288373   1.62493966
| 35> *
| 36>
| 37>                          ****END OF INPUT****

CARTESIAN COORDINATES (ANGSTROEM)
---------------------------------
  C     -1.405416    0.152445   -0.690570
  C     -2.158763   -0.902760   -1.198361
  C     -1.844313   -2.213282   -0.886892
  C     -0.909643   -2.450261    0.110213
  C     -0.272439   -0.137714    0.087151
  C     -0.147203   -1.417991    0.643251
  H     -1.657242    1.202644   -0.901448
  H     -2.875934   -0.689192   -1.963612
  H     -2.257812   -3.033321   -1.457695
  H      0.600519   -1.569729    1.433522
  H     -0.621637   -3.450508    0.364630
  Pd     1.324772    0.953612   -0.138182
  O      3.283669    1.337574   -1.090043
  O      2.598573   -0.611737   -0.383188
  O      0.359438    2.746125    0.338798
  C     -0.178797    2.903110    1.419492
  O      0.007160    2.029954    2.395315
  H     -0.824451    1.594726    2.590838
  C      3.463379    0.113394   -0.946188
  H      4.346784   -0.375755   -1.355524
  H     -0.858542    3.802884    1.624940

 Total Charge           Charge          ....    0
 Multiplicity           Mult            ....    1
 Number of Electrons    NEL             ....  106
 Basis Dimension        Dim             ....  227

ORBITAL ENERGIES
----------------

  NO   OCC          E(Eh)            E(eV)
   0   2.0000     -19.588851      -533.0397
   1   2.0000     -19.586396      -532.9729
   2   2.0000     -19.490905      -530.3745
   3   2.0000     -19.475130      -529.9452
   4   2.0000     -10.655319      -289.9460
   5   2.0000     -10.549853      -287.0761
   6   2.0000     -10.451378      -284.3965
   7   2.0000     -10.444370      -284.2058
   8   2.0000     -10.439259      -284.0667
   9   2.0000     -10.438118      -284.0356
  10   2.0000     -10.437065      -284.0070
  11   2.0000     -10.434828      -283.9461
  12   2.0000      -3.644582       -99.1741
  13   2.0000      -2.293799       -62.4175
  14   2.0000      -2.288569       -62.2751
  15   2.0000      -2.257916       -61.4410
  16   2.0000      -1.287943       -35.0467
  17   2.0000      -1.201927       -32.7061
  18   2.0000      -1.187534       -32.3144
  19   2.0000      -1.076882       -29.3034
  20   2.0000      -0.944552       -25.7026
  21   2.0000      -0.827155       -22.5080
  22   2.0000      -0.821115       -22.3437
  23   2.0000      -0.775107       -21.0917
  24   2.0000      -0.696174       -18.9439
  25   2.0000      -0.671207       -18.2645
  26   2.0000      -0.661278       -17.9943
  27   2.0000      -0.657075       -17.8799
  28   2.0000      -0.621441       -16.9103
  29   2.0000      -0.591423       -16.0934
  30   2.0000      -0.573086       -15.5945
  31   2.0000      -0.550405       -14.9773
  32   2.0000      -0.520334       -14.1590
  33   2.0000      -0.506134       -13.7726
  34   2.0000      -0.503249       -13.6941
  35   2.0000      -0.492338       -13.3972
  36   2.0000      -0.490562       -13.3489
  37   2.0000      -0.470924       -12.8145
  38   2.0000      -0.452082       -12.3018
  39   2.0000      -0.447524       -12.1778
  40   2.0000      -0.442081       -12.0296
  41   2.0000      -0.424935       -11.5631
  42   2.0000      -0.394163       -10.7257
  43   2.0000      -0.381940       -10.3931
  44   2.0000      -0.376315       -10.2400
  45   2.0000      -0.362699        -9.8695
  46   2.0000      -0.345269        -9.3953
  47   2.0000      -0.331360        -9.0168
  48   2.0000      -0.314175        -8.5491
  49   2.0000      -0.306830        -8.3493
  50   2.0000      -0.285454        -7.7676
  51   2.0000      -0.278709        -7.5841
  52   2.0000      -0.255818        -6.9612
  53   0.0000      -0.052414        -1.4263
  54   0.0000      -0.024358        -0.6628
  55   0.0000       0.023036         0.6268
  56   0.0000       0.027235         0.7411
  57   0.0000       0.050577         1.3763

MULLIKEN ATOMIC CHARGES
-----------------------
   0 C :   -0.249622
   1 C :   -0.223046
   2 C :   -0.222137
   3 C :   -0.226344
   4 C :   -0.177182
   5 C :   -0.226629
   6 H :    0.215092
   7 H :    0.215218
   8 H :    0.218037
   9 H :    0.239331
  10 H :    0.218462
  11 Pd:    0.392481
  12 O :   -0.473603
  13 O :   -0.481507
  14 O :   -0.346052
  15 C :    0.376035
  16 O :   -0.539649
  17 H :    0.484126
  18 C :    0.386096
  19 H :    0.182155
  20 H :    0.238739
Sum of atomic charges:   -0.0000000

LOEWDIN ATOMIC CHARGES
----------------------
   0 C :   -0.137229
   1 C :   -0.133893
   2 C :   -0.148880
   3 C :   -0.129281
   4 C :   -0.024606
   5 C :   -0.112532
   6 H :    0.143850
   7 H :    0.135333
   8 H :    0.136299
   9 H :    0.156491
  10 H :    0.137182
  11 Pd:   -0.313239
  12 O :   -0.205009
  13 O :   -0.164642
  14 O :   -0.022457
  15 C :    0.189870
  16 O :   -0.254845
  17 H :    0.365159
  18 C :    0.137769
  19 H :    0.108027
  20 H :    0.136632

  Mayer bond orders larger than 0.100000
B(  0-C ,  1-C ) :   1.4227 B(  0-C ,  4-C ) :   1.3665 B(  0-C ,  6-H ) :   0.9124
B(  1-C ,  2-C ) :   1.4349 B(  1-C ,  7-H ) :   0.9193 B(  2-C ,  3-C ) :   1.4145
B(  2-C ,  8-H ) :   0.9205 B(  3-C ,  5-C ) :   1.4315 B(  3-C , 10-H ) :   0.9187
B(  4-C ,  5-C ) :   1.3841 B(  4-C , 11-Pd) :   0.9265 B(  5-C ,  9-H ) :   0.9084
B( 11-Pd, 12-O ) :   0.3638 B( 11-Pd, 13-O ) :   0.5428 B( 11-Pd, 14-O ) :   0.3460
B( 12-O , 13-O ) :   0.1167 B( 12-O , 18-C ) :   1.5926 B( 13-O , 18-C ) :   1.4344
B( 14-O , 15-C ) :   1.8157 B( 15-C , 16-O ) :   1.1507 B( 15-C , 20-H ) :   0.8578
B( 16-O , 17-H ) :   0.7141 B( 18-C , 19-H ) :   0.8873

Dispersion correction           -0.013065768
FINAL SINGLE POINT ENERGY      -737.096670057033
Dispersion correction            ... done

DIPOLE MOMENT
-------------
                                X             Y             Z
Electronic contribution:     48.35788      36.70579      -5.66707
Nuclear contribution   :    -49.93356     -35.72422       6.99324
                        -----------------------------------------
Total Dipole Moment    :     -1.57568       0.98157       1.32617
                        -----------------------------------------
Magnitude (a.u.)       :      2.28144
Magnitude (Debye)      :      5.79896

Rotational constants in cm-1:     0.027829     0.018197     0.013083
Rotational constants in MHz :   834.292559   545.522745   392.232698

                             ****ORCA TERMINATED NORMALLY****
TOTAL RUN TIME: 0 days 0 hours 3 minutes 31 seconds 145 msec
