                         Program Version 5.0.3 -  RELEASE  -
|  1> ! EnGrad PBEh-3c
|  2> %output
|  3> xyzfile=True
|  4> end
|  5> %scf
|  6> maxiter 250
|  7> end
|  8> %output
|  9> Print[P_Hirshfeld] = 1
| 10> end
| 11> % maxcore
| 12> 4000
| 13> *xyz 0 1
| 14> C   -1.38815252   0.14558240  -0.69386199
| 15> C   -2.14871559  -0.90344426  -1.21203444
| 16> C   -1.83303457  -2.21143586  -0.88642468
| 17> C   -0.89287038  -2.45678040   0.10443005
| 18> C   -0.27022836  -0.12677446   0.10240362
| 19> C   -0.13731016  -1.41053675   0.62697828
| 20> H   -1.64221012   1.19071461  -0.89452720
| 21> H   -2.88717088  -0.68520599  -1.96877115
| 22> H   -2.22235749  -3.02288668  -1.47312261
| 23> H    0.59832448  -1.56459446   1.42109717
| 24> H   -0.62731076  -3.46689381   0.38493969
| 25> Pd   1.33211826   0.95505653  -0.12999187
| 26> O    3.25935203   1.32206748  -1.08138557
| 27> O    2.57877686  -0.62371604  -0.38569792
| 28> O    0.32730208   2.77776397   0.32946545
| 29> C   -0.13788842   2.93286092   1.42318890
| 30> O   -0.02961304   2.05011074   2.41655675
| 31> H   -0.83944173   1.58534626   2.61527732
| 32> C    3.44336587   0.09857011  -0.96329551
| 33> H    4.33701278  -0.39268168  -1.36565932
| 34> H   -0.85417595   3.78744577   1.62866520
| 35> *
| 36>
| 37>                          ****END OF INPUT****

CARTESIAN COORDINATES (ANGSTROEM)
---------------------------------
  C     -1.388153    0.145582   -0.693862
  C     -2.148716   -0.903444   -1.212034
  C     -1.833035   -2.211436   -0.886425
  C     -0.892870   -2.456780    0.104430
  C     -0.270228   -0.126774    0.102404
  C     -0.137310   -1.410537    0.626978
  H     -1.642210    1.190715   -0.894527
  H     -2.887171   -0.685206   -1.968771
  H     -2.222357   -3.022887   -1.473123
  H      0.598324   -1.564594    1.421097
  H     -0.627311   -3.466894    0.384940
  Pd     1.332118    0.955057   -0.129992
  O      3.259352    1.322067   -1.081386
  O      2.578777   -0.623716   -0.385698
  O      0.327302    2.777764    0.329465
  C     -0.137888    2.932861    1.423189
  O     -0.029613    2.050111    2.416557
  H     -0.839442    1.585346    2.615277
  C      3.443366    0.098570   -0.963296
  H      4.337013   -0.392682   -1.365659
  H     -0.854176    3.787446    1.628665

 Total Charge           Charge          ....    0
 Multiplicity           Mult            ....    1
 Number of Electrons    NEL             ....  106
 Basis Dimension        Dim             ....  227

ORBITAL ENERGIES
----------------

  NO   OCC          E(Eh)            E(eV)
   0   2.0000     -19.589357      -533.0535
   1   2.0000     -19.580882      -532.8229
   2   2.0000     -19.493744      -530.4517
   3   2.0000     -19.479920      -530.0756
   4   2.0000     -10.652529      -289.8701
   5   2.0000     -10.554365      -287.1989
   6   2.0000     -10.447696      -284.2962
   7   2.0000     -10.442212      -284.1470
   8   2.0000     -10.439797      -284.0813
   9   2.0000     -10.437680      -284.0237
  10   2.0000     -10.435502      -283.9645
  11   2.0000     -10.433842      -283.9193
  12   2.0000      -3.645621       -99.2024
  13   2.0000      -2.295054       -62.4516
  14   2.0000      -2.289406       -62.2979
  15   2.0000      -2.259074       -61.4725
  16   2.0000      -1.285008       -34.9668
  17   2.0000      -1.204978       -32.7891
  18   2.0000      -1.192047       -32.4372
  19   2.0000      -1.079806       -29.3830
  20   2.0000      -0.943609       -25.6769
  21   2.0000      -0.825076       -22.4515
  22   2.0000      -0.821737       -22.3606
  23   2.0000      -0.777659       -21.1612
  24   2.0000      -0.694228       -18.8909
  25   2.0000      -0.671265       -18.2660
  26   2.0000      -0.662557       -18.0291
  27   2.0000      -0.657161       -17.8823
  28   2.0000      -0.622558       -16.9407
  29   2.0000      -0.586491       -15.9592
  30   2.0000      -0.571808       -15.5597
  31   2.0000      -0.553485       -15.0611
  32   2.0000      -0.524730       -14.2786
  33   2.0000      -0.505356       -13.7514
  34   2.0000      -0.502463       -13.6727
  35   2.0000      -0.494705       -13.4616
  36   2.0000      -0.491924       -13.3859
  37   2.0000      -0.469167       -12.7667
  38   2.0000      -0.449606       -12.2344
  39   2.0000      -0.443307       -12.0630
  40   2.0000      -0.440116       -11.9762
  41   2.0000      -0.425705       -11.5840
  42   2.0000      -0.393196       -10.6994
  43   2.0000      -0.385265       -10.4836
  44   2.0000      -0.376990       -10.2584
  45   2.0000      -0.365069        -9.9340
  46   2.0000      -0.347075        -9.4444
  47   2.0000      -0.332860        -9.0576
  48   2.0000      -0.316179        -8.6037
  49   2.0000      -0.309298        -8.4164
  50   2.0000      -0.285510        -7.7691
  51   2.0000      -0.278229        -7.5710
  52   2.0000      -0.256694        -6.9850
  53   0.0000      -0.049766        -1.3542
  54   0.0000      -0.027220        -0.7407
  55   0.0000       0.024068         0.6549
  56   0.0000       0.028649         0.7796
  57   0.0000       0.051187         1.3929

MULLIKEN ATOMIC CHARGES
-----------------------
   0 C :   -0.248138
   1 C :   -0.222245
   2 C :   -0.226055
   3 C :   -0.223270
   4 C :   -0.177150
   5 C :   -0.227246
   6 H :    0.213999
   7 H :    0.214590
   8 H :    0.217683
   9 H :    0.237561
  10 H :    0.217101
  11 Pd:    0.387962
  12 O :   -0.471759
  13 O :   -0.481264
  14 O :   -0.325225
  15 C :    0.388050
  16 O :   -0.564727
  17 H :    0.487475
  18 C :    0.390013
  19 H :    0.185640
  20 H :    0.227004
Sum of atomic charges:   -0.0000000

LOEWDIN ATOMIC CHARGES
----------------------
   0 C :   -0.133765
   1 C :   -0.135349
   2 C :   -0.147342
   3 C :   -0.130409
   4 C :   -0.033169
   5 C :   -0.109952
   6 H :    0.142442
   7 H :    0.135846
   8 H :    0.135399
   9 H :    0.154669
  10 H :    0.137365
  11 Pd:   -0.309563
  12 O :   -0.196124
  13 O :   -0.163934
  14 O :   -0.010057
  15 C :    0.191312
  16 O :   -0.275164
  17 H :    0.366027
  18 C :    0.142562
  19 H :    0.110545
  20 H :    0.128661

  Mayer bond orders larger than 0.100000
B(  0-C ,  1-C ) :   1.4246 B(  0-C ,  4-C ) :   1.3670 B(  0-C ,  6-H ) :   0.9121
B(  1-C ,  2-C ) :   1.4341 B(  1-C ,  7-H ) :   0.9198 B(  2-C ,  3-C ) :   1.4158
B(  2-C ,  8-H ) :   0.9200 B(  3-C ,  5-C ) :   1.4329 B(  3-C , 10-H ) :   0.9193
B(  4-C ,  5-C ) :   1.3865 B(  4-C , 11-Pd) :   0.9225 B(  5-C ,  9-H ) :   0.9080
B( 11-Pd, 12-O ) :   0.3717 B( 11-Pd, 13-O ) :   0.5513 B( 11-Pd, 14-O ) :   0.3318
B( 12-O , 13-O ) :   0.1158 B( 12-O , 18-C ) :   1.5862 B( 13-O , 18-C ) :   1.4263
B( 14-O , 15-C ) :   1.8542 B( 15-C , 16-O ) :   1.1282 B( 15-C , 20-H ) :   0.8657
B( 16-O , 17-H ) :   0.7095 B( 18-C , 19-H ) :   0.8863

Dispersion correction           -0.013052713
FINAL SINGLE POINT ENERGY      -737.096403886451
Dispersion correction            ... done

DIPOLE MOMENT
-------------
                                X             Y             Z
Electronic contribution:     48.98822      36.65102      -5.38756
Nuclear contribution   :    -50.40308     -35.70746       6.61785
                        -----------------------------------------
Total Dipole Moment    :     -1.41486       0.94356       1.23029
                        -----------------------------------------
Magnitude (a.u.)       :      2.09899
Magnitude (Debye)      :      5.33520

Rotational constants in cm-1:     0.027573     0.018293     0.013079
Rotational constants in MHz :   826.605233   548.409921   392.096020

                             ****ORCA TERMINATED NORMALLY****
TOTAL RUN TIME: 0 days 0 hours 3 minutes 43 seconds 86 msec
