                         Program Version 5.0.3 -  RELEASE  -
|  1> ! EnGrad PBEh-3c
|  2> %output
|  3> xyzfile=True
|  4> end
|  5> %scf
|  6> maxiter 250
|  7> end
|  8> %output
|  9> Print[P_Hirshfeld] = 1
| 10> end
| 11> % maxcore
| 12> 4000
| 13> *xyz 0 1
| 14> C   -1.44775017   0.13169236  -0.74389148
| 15> C   -2.22140682  -0.88746672  -1.20240544
| 16> C   -1.96327647  -2.17486682  -0.78501821
| 17> C   -0.93095705  -2.47485153   0.09332669
| 18> C   -0.28109137  -0.04600396   0.14210228
| 19> C   -0.16594056  -1.47074205   0.59841203
| 20> H   -1.62435404   1.12306397  -1.14428671
| 21> H   -3.01206916  -0.66904943  -1.87579276
| 22> H   -2.59576945  -2.96829640  -1.12664854
| 23> H    0.64128576  -1.70471938   1.26661166
| 24> H   -0.72229773  -3.47237113   0.38416066
| 25> Pd   1.37537377   0.99564095  -0.15525065
| 26> O    3.47831922   1.46900736  -0.93139341
| 27> O    2.70287459  -0.50995549  -0.50400257
| 28> O    0.34362927   2.78624137   0.15669825
| 29> C   -0.10672299   2.84634588   1.27667874
| 30> O    0.08743279   1.94730986   2.34812844
| 31> H   -0.91645753   1.47108251   2.82532838
| 32> C    3.63120280   0.21153122  -0.92459951
| 33> H    4.57655528  -0.23516780  -1.22953753
| 34> H   -0.84889993   3.63091820   1.53036994
| 35> *
| 36>
| 37>                          ****END OF INPUT****

CARTESIAN COORDINATES (ANGSTROEM)
---------------------------------
  C     -1.447750    0.131692   -0.743891
  C     -2.221407   -0.887467   -1.202405
  C     -1.963276   -2.174867   -0.785018
  C     -0.930957   -2.474852    0.093327
  C     -0.281091   -0.046004    0.142102
  C     -0.165941   -1.470742    0.598412
  H     -1.624354    1.123064   -1.144287
  H     -3.012069   -0.669049   -1.875793
  H     -2.595769   -2.968296   -1.126649
  H      0.641286   -1.704719    1.266612
  H     -0.722298   -3.472371    0.384161
  Pd     1.375374    0.995641   -0.155251
  O      3.478319    1.469007   -0.931393
  O      2.702875   -0.509955   -0.504003
  O      0.343629    2.786241    0.156698
  C     -0.106723    2.846346    1.276679
  O      0.087433    1.947310    2.348128
  H     -0.916458    1.471083    2.825328
  C      3.631203    0.211531   -0.924600
  H      4.576555   -0.235168   -1.229538
  H     -0.848900    3.630918    1.530370

 Total Charge           Charge          ....    0
 Multiplicity           Mult            ....    1
 Number of Electrons    NEL             ....  106
 Basis Dimension        Dim             ....  227

ORBITAL ENERGIES
----------------

  NO   OCC          E(Eh)            E(eV)
   0   2.0000     -19.602050      -533.3989
   1   2.0000     -19.594087      -533.1822
   2   2.0000     -19.493713      -530.4509
   3   2.0000     -19.470983      -529.8324
   4   2.0000     -10.657516      -290.0057
   5   2.0000     -10.550922      -287.1052
   6   2.0000     -10.464805      -284.7618
   7   2.0000     -10.442931      -284.1666
   8   2.0000     -10.439852      -284.0828
   9   2.0000     -10.434727      -283.9434
  10   2.0000     -10.433861      -283.9198
  11   2.0000     -10.433002      -283.8964
  12   2.0000      -3.653059       -99.4048
  13   2.0000      -2.301054       -62.6149
  14   2.0000      -2.297490       -62.5179
  15   2.0000      -2.265184       -61.6388
  16   2.0000      -1.268043       -34.5052
  17   2.0000      -1.186189       -32.2778
  18   2.0000      -1.159571       -31.5535
  19   2.0000      -1.067879       -29.0585
  20   2.0000      -0.937168       -25.5016
  21   2.0000      -0.833398       -22.6779
  22   2.0000      -0.805282       -21.9128
  23   2.0000      -0.750548       -20.4235
  24   2.0000      -0.667338       -18.1592
  25   2.0000      -0.663345       -18.0505
  26   2.0000      -0.659977       -17.9589
  27   2.0000      -0.656720       -17.8703
  28   2.0000      -0.618607       -16.8332
  29   2.0000      -0.577127       -15.7044
  30   2.0000      -0.564788       -15.3687
  31   2.0000      -0.547983       -14.9114
  32   2.0000      -0.516937       -14.0666
  33   2.0000      -0.506028       -13.7697
  34   2.0000      -0.496780       -13.5181
  35   2.0000      -0.490600       -13.3499
  36   2.0000      -0.487416       -13.2633
  37   2.0000      -0.477178       -12.9847
  38   2.0000      -0.444858       -12.1052
  39   2.0000      -0.438123       -11.9219
  40   2.0000      -0.430296       -11.7089
  41   2.0000      -0.411540       -11.1986
  42   2.0000      -0.390667       -10.6306
  43   2.0000      -0.382466       -10.4074
  44   2.0000      -0.376101       -10.2342
  45   2.0000      -0.359496        -9.7824
  46   2.0000      -0.347606        -9.4588
  47   2.0000      -0.332644        -9.0517
  48   2.0000      -0.319367        -8.6904
  49   2.0000      -0.311981        -8.4894
  50   2.0000      -0.292138        -7.9495
  51   2.0000      -0.287050        -7.8110
  52   2.0000      -0.252022        -6.8579
  53   0.0000      -0.064620        -1.7584
  54   0.0000      -0.043119        -1.1733
  55   0.0000      -0.003431        -0.0934
  56   0.0000       0.023653         0.6436
  57   0.0000       0.034761         0.9459

MULLIKEN ATOMIC CHARGES
-----------------------
   0 C :   -0.260533
   1 C :   -0.177777
   2 C :   -0.254240
   3 C :   -0.177737
   4 C :   -0.198137
   5 C :   -0.252065
   6 H :    0.212176
   7 H :    0.217770
   8 H :    0.211614
   9 H :    0.233612
  10 H :    0.219630
  11 Pd:    0.382519
  12 O :   -0.483894
  13 O :   -0.470152
  14 O :   -0.329785
  15 C :    0.422854
  16 O :   -0.553132
  17 H :    0.457487
  18 C :    0.380434
  19 H :    0.189273
  20 H :    0.230084
Sum of atomic charges:    0.0000000

LOEWDIN ATOMIC CHARGES
----------------------
   0 C :   -0.132782
   1 C :   -0.145917
   2 C :   -0.133157
   3 C :   -0.141603
   4 C :   -0.035323
   5 C :   -0.106722
   6 H :    0.136796
   7 H :    0.136748
   8 H :    0.131266
   9 H :    0.147477
  10 H :    0.137967
  11 Pd:   -0.294488
  12 O :   -0.234661
  13 O :   -0.152909
  14 O :   -0.006408
  15 C :    0.229316
  16 O :   -0.309615
  17 H :    0.393204
  18 C :    0.138057
  19 H :    0.111562
  20 H :    0.131192

  Mayer bond orders larger than 0.100000
B(  0-C ,  1-C ) :   1.4289 B(  0-C ,  4-C ) :   1.3547 B(  0-C ,  6-H ) :   0.9132
B(  1-C ,  2-C ) :   1.4418 B(  1-C ,  7-H ) :   0.9176 B(  2-C ,  3-C ) :   1.3972
B(  2-C ,  4-C ) :   0.1123 B(  2-C ,  8-H ) :   0.9202 B(  3-C ,  5-C ) :   1.4683
B(  3-C , 10-H ) :   0.9173 B(  4-C ,  5-C ) :   1.3391 B(  4-C , 11-Pd) :   0.9102
B(  5-C ,  9-H ) :   0.9111 B( 11-Pd, 12-O ) :   0.3699 B( 11-Pd, 13-O ) :   0.5476
B( 11-Pd, 14-O ) :   0.3610 B( 12-O , 13-O ) :   0.1148 B( 12-O , 18-C ) :   1.5739
B( 13-O , 18-C ) :   1.4537 B( 14-O , 15-C ) :   1.8231 B( 15-C , 16-O ) :   1.1087
B( 15-C , 20-H ) :   0.8673 B( 16-O , 17-H ) :   0.7249 B( 18-C , 19-H ) :   0.8845

Dispersion correction           -0.013039325
FINAL SINGLE POINT ENERGY      -737.042136531880
Dispersion correction            ... done

DIPOLE MOMENT
-------------
                                X             Y             Z
Electronic contribution:     49.69372      37.82319      -5.77504
Nuclear contribution   :    -51.38118     -37.02556       7.20317
                        -----------------------------------------
Total Dipole Moment    :     -1.68747       0.79763       1.42813
                        -----------------------------------------
Magnitude (a.u.)       :      2.35018
Magnitude (Debye)      :      5.97367

Rotational constants in cm-1:     0.028866     0.017011     0.012700
Rotational constants in MHz :   865.385356   509.990894   380.746114

                             ****ORCA TERMINATED NORMALLY****
TOTAL RUN TIME: 0 days 0 hours 3 minutes 26 seconds 759 msec
