                         Program Version 5.0.3 -  RELEASE  -
|  1> ! EnGrad PBEh-3c
|  2> %output
|  3> xyzfile=True
|  4> end
|  5> %scf
|  6> maxiter 250
|  7> end
|  8> %output
|  9> Print[P_Hirshfeld] = 1
| 10> end
| 11> % maxcore
| 12> 4000
| 13> *xyz 0 1
| 14> C   -1.39561015   0.13202122  -0.79339914
| 15> C   -2.24290923  -0.88017211  -1.17583409
| 16> C   -2.02165383  -2.17136973  -0.73740140
| 17> C   -0.95302789  -2.46762518   0.09254700
| 18> C   -0.32879417  -0.13811987   0.08558422
| 19> C   -0.12871191  -1.46452317   0.53964701
| 20> H   -1.58150008   1.10892622  -1.22697948
| 21> H   -3.06881395  -0.66048801  -1.82932567
| 22> H   -2.69927814  -2.95339582  -1.02997691
| 23> H    0.68512697  -1.73533177   1.19835954
| 24> H   -0.77775395  -3.47718367   0.41907402
| 25> Pd   1.46706688   1.05867124  -0.19103814
| 26> O    3.50798489   1.48944945  -0.85704275
| 27> O    2.73231765  -0.51267159  -0.57523164
| 28> O    0.33575954   2.74872829   0.16416198
| 29> C   -0.14187626   2.82409532   1.28040035
| 30> O    0.18725554   1.98850592   2.25954025
| 31> H   -1.00744157   1.44243216   2.93214040
| 32> C    3.67578935   0.25016296  -0.88854945
| 33> H    4.63285366  -0.18946507  -1.19009789
| 34> H   -0.87688865   3.60711953   1.52308326
| 35> *
| 36>
| 37>                          ****END OF INPUT****

CARTESIAN COORDINATES (ANGSTROEM)
---------------------------------
  C     -1.395610    0.132021   -0.793399
  C     -2.242909   -0.880172   -1.175834
  C     -2.021654   -2.171370   -0.737401
  C     -0.953028   -2.467625    0.092547
  C     -0.328794   -0.138120    0.085584
  C     -0.128712   -1.464523    0.539647
  H     -1.581500    1.108926   -1.226979
  H     -3.068814   -0.660488   -1.829326
  H     -2.699278   -2.953396   -1.029977
  H      0.685127   -1.735332    1.198360
  H     -0.777754   -3.477184    0.419074
  Pd     1.467067    1.058671   -0.191038
  O      3.507985    1.489449   -0.857043
  O      2.732318   -0.512672   -0.575232
  O      0.335760    2.748728    0.164162
  C     -0.141876    2.824095    1.280400
  O      0.187256    1.988506    2.259540
  H     -1.007442    1.442432    2.932140
  C      3.675789    0.250163   -0.888549
  H      4.632854   -0.189465   -1.190098
  H     -0.876889    3.607120    1.523083

 Total Charge           Charge          ....    0
 Multiplicity           Mult            ....    1
 Number of Electrons    NEL             ....  106
 Basis Dimension        Dim             ....  227

ORBITAL ENERGIES
----------------

  NO   OCC          E(Eh)            E(eV)
   0   2.0000     -19.604595      -533.4681
   1   2.0000     -19.579095      -532.7743
   2   2.0000     -19.492416      -530.4156
   3   2.0000     -19.476991      -529.9959
   4   2.0000     -10.637344      -289.4569
   5   2.0000     -10.551309      -287.1157
   6   2.0000     -10.451797      -284.4078
   7   2.0000     -10.437619      -284.0221
   8   2.0000     -10.435054      -283.9523
   9   2.0000     -10.434619      -283.9404
  10   2.0000     -10.433847      -283.9194
  11   2.0000     -10.433271      -283.9037
  12   2.0000      -3.639880       -99.0462
  13   2.0000      -2.287709       -62.2517
  14   2.0000      -2.282925       -62.1215
  15   2.0000      -2.252690       -61.2988
  16   2.0000      -1.261290       -34.3215
  17   2.0000      -1.190690       -32.4003
  18   2.0000      -1.161823       -31.6148
  19   2.0000      -1.075892       -29.2765
  20   2.0000      -0.942264       -25.6403
  21   2.0000      -0.830718       -22.6050
  22   2.0000      -0.812013       -22.0960
  23   2.0000      -0.736198       -20.0330
  24   2.0000      -0.664660       -18.0863
  25   2.0000      -0.661441       -17.9987
  26   2.0000      -0.658140       -17.9089
  27   2.0000      -0.641605       -17.4590
  28   2.0000      -0.605794       -16.4845
  29   2.0000      -0.574343       -15.6287
  30   2.0000      -0.562412       -15.3040
  31   2.0000      -0.548547       -14.9267
  32   2.0000      -0.519269       -14.1300
  33   2.0000      -0.501226       -13.6390
  34   2.0000      -0.498311       -13.5597
  35   2.0000      -0.491774       -13.3818
  36   2.0000      -0.474674       -12.9165
  37   2.0000      -0.465186       -12.6583
  38   2.0000      -0.441736       -12.0203
  39   2.0000      -0.433045       -11.7838
  40   2.0000      -0.428644       -11.6640
  41   2.0000      -0.413077       -11.2404
  42   2.0000      -0.388008       -10.5582
  43   2.0000      -0.378728       -10.3057
  44   2.0000      -0.364899        -9.9294
  45   2.0000      -0.356261        -9.6944
  46   2.0000      -0.342838        -9.3291
  47   2.0000      -0.321917        -8.7598
  48   2.0000      -0.307181        -8.3588
  49   2.0000      -0.301749        -8.2110
  50   2.0000      -0.286318        -7.7911
  51   2.0000      -0.278382        -7.5751
  52   2.0000      -0.261480        -7.1152
  53   0.0000      -0.117995        -3.2108
  54   0.0000      -0.040872        -1.1122
  55   0.0000      -0.012704        -0.3457
  56   0.0000       0.031746         0.8639
  57   0.0000       0.033371         0.9081

MULLIKEN ATOMIC CHARGES
-----------------------
   0 C :   -0.240951
   1 C :   -0.209901
   2 C :   -0.234680
   3 C :   -0.207361
   4 C :   -0.180457
   5 C :   -0.235873
   6 H :    0.222694
   7 H :    0.213376
   8 H :    0.212026
   9 H :    0.236103
  10 H :    0.214683
  11 Pd:    0.360487
  12 O :   -0.475785
  13 O :   -0.468631
  14 O :   -0.359857
  15 C :    0.396269
  16 O :   -0.440882
  17 H :    0.400398
  18 C :    0.388100
  19 H :    0.184014
  20 H :    0.226228
Sum of atomic charges:    0.0000000

LOEWDIN ATOMIC CHARGES
----------------------
   0 C :   -0.136324
   1 C :   -0.139774
   2 C :   -0.140647
   3 C :   -0.134911
   4 C :   -0.042139
   5 C :   -0.114651
   6 H :    0.143130
   7 H :    0.132711
   8 H :    0.132055
   9 H :    0.150827
  10 H :    0.134249
  11 Pd:   -0.314295
  12 O :   -0.201781
  13 O :   -0.155629
  14 O :   -0.026938
  15 C :    0.169241
  16 O :   -0.210008
  17 H :    0.380602
  18 C :    0.138467
  19 H :    0.109557
  20 H :    0.126258

  Mayer bond orders larger than 0.100000
B(  0-C ,  1-C ) :   1.4252 B(  0-C ,  4-C ) :   1.3743 B(  0-C ,  6-H ) :   0.9108
B(  1-C ,  2-C ) :   1.4421 B(  1-C ,  7-H ) :   0.9181 B(  2-C ,  3-C ) :   1.4148
B(  2-C ,  8-H ) :   0.9213 B(  3-C ,  5-C ) :   1.4454 B(  3-C , 10-H ) :   0.9180
B(  4-C ,  5-C ) :   1.3839 B(  4-C , 11-Pd) :   0.8374 B(  5-C ,  9-H ) :   0.9098
B( 11-Pd, 12-O ) :   0.3900 B( 11-Pd, 13-O ) :   0.5478 B( 11-Pd, 14-O ) :   0.3810
B( 12-O , 13-O ) :   0.1151 B( 12-O , 18-C ) :   1.5654 B( 13-O , 18-C ) :   1.4535
B( 14-O , 15-C ) :   1.7472 B( 15-C , 16-O ) :   1.2302 B( 15-C , 20-H ) :   0.8692
B( 16-O , 17-H ) :   0.7274 B( 18-C , 19-H ) :   0.8863

Dispersion correction           -0.013148902
FINAL SINGLE POINT ENERGY      -737.008188277104
Dispersion correction            ... done

DIPOLE MOMENT
-------------
                                X             Y             Z
Electronic contribution:     53.45062      40.62885      -6.89020
Nuclear contribution   :    -55.21217     -39.87053       8.55411
                        -----------------------------------------
Total Dipole Moment    :     -1.76155       0.75831       1.66391
                        -----------------------------------------
Magnitude (a.u.)       :      2.53904
Magnitude (Debye)      :      6.45372

Rotational constants in cm-1:     0.029472     0.016560     0.012454
Rotational constants in MHz :   883.551345   496.454168   373.365045

                             ****ORCA TERMINATED NORMALLY****
TOTAL RUN TIME: 0 days 0 hours 3 minutes 43 seconds 629 msec
