                         Program Version 5.0.3 -  RELEASE  -
|  1> ! EnGrad PBEh-3c
|  2> %output
|  3> xyzfile=True
|  4> end
|  5> %scf
|  6> maxiter 250
|  7> end
|  8> %output
|  9> Print[P_Hirshfeld] = 1
| 10> end
| 11> % maxcore
| 12> 4000
| 13> *xyz 0 1
| 14> C   -1.43492299   0.13975209  -0.72796128
| 15> C   -2.21660736  -0.89207140  -1.20170598
| 16> C   -1.95564909  -2.17814882  -0.79256654
| 17> C   -0.93053174  -2.47066246   0.09061376
| 18> C   -0.29513225  -0.06039595   0.14705191
| 19> C   -0.16599259  -1.44734088   0.60174780
| 20> H   -1.63235833   1.12557645  -1.13345990
| 21> H   -3.00691660  -0.67000689  -1.88479617
| 22> H   -2.58155440  -2.97182353  -1.14163399
| 23> H    0.63598809  -1.70255964   1.27834581
| 24> H   -0.71429348  -3.47580968   0.38052859
| 25> Pd   1.37291994   0.99435751  -0.15230282
| 26> O    3.46978116   1.45913774  -0.94292085
| 27> O    2.69436718  -0.51767926  -0.49398253
| 28> O    0.34800689   2.78547487   0.16123376
| 29> C   -0.11185883   2.84116610   1.29313153
| 30> O    0.06744726   1.94935187   2.34479374
| 31> H   -0.89518045   1.48025674   2.80455650
| 32> C    3.62474501   0.21863827  -0.92570420
| 33> H    4.56869559  -0.24317271  -1.23683230
| 34> H   -0.84182682   3.63512809   1.53065455
| 35> *
| 36>
| 37>                          ****END OF INPUT****

CARTESIAN COORDINATES (ANGSTROEM)
---------------------------------
  C     -1.434923    0.139752   -0.727961
  C     -2.216607   -0.892071   -1.201706
  C     -1.955649   -2.178149   -0.792567
  C     -0.930532   -2.470662    0.090614
  C     -0.295132   -0.060396    0.147052
  C     -0.165993   -1.447341    0.601748
  H     -1.632358    1.125576   -1.133460
  H     -3.006917   -0.670007   -1.884796
  H     -2.581554   -2.971824   -1.141634
  H      0.635988   -1.702560    1.278346
  H     -0.714293   -3.475810    0.380529
  Pd     1.372920    0.994358   -0.152303
  O      3.469781    1.459138   -0.942921
  O      2.694367   -0.517679   -0.493983
  O      0.348007    2.785475    0.161234
  C     -0.111859    2.841166    1.293132
  O      0.067447    1.949352    2.344794
  H     -0.895180    1.480257    2.804556
  C      3.624745    0.218638   -0.925704
  H      4.568696   -0.243173   -1.236832
  H     -0.841827    3.635128    1.530655

 Total Charge           Charge          ....    0
 Multiplicity           Mult            ....    1
 Number of Electrons    NEL             ....  106
 Basis Dimension        Dim             ....  227

ORBITAL ENERGIES
----------------

  NO   OCC          E(Eh)            E(eV)
   0   2.0000     -19.598976      -533.3152
   1   2.0000     -19.596386      -533.2448
   2   2.0000     -19.489978      -530.3493
   3   2.0000     -19.473493      -529.9007
   4   2.0000     -10.657993      -290.0187
   5   2.0000     -10.550425      -287.0917
   6   2.0000     -10.460359      -284.6408
   7   2.0000     -10.442949      -284.1671
   8   2.0000     -10.439382      -284.0700
   9   2.0000     -10.435865      -283.9743
  10   2.0000     -10.434852      -283.9468
  11   2.0000     -10.433499      -283.9099
  12   2.0000      -3.649996       -99.3214
  13   2.0000      -2.297686       -62.5232
  14   2.0000      -2.294529       -62.4373
  15   2.0000      -2.262320       -61.5609
  16   2.0000      -1.261582       -34.3294
  17   2.0000      -1.184045       -32.2195
  18   2.0000      -1.170909       -31.8621
  19   2.0000      -1.070525       -29.1305
  20   2.0000      -0.938147       -25.5283
  21   2.0000      -0.829305       -22.5665
  22   2.0000      -0.811176       -22.0732
  23   2.0000      -0.755444       -20.5567
  24   2.0000      -0.669466       -18.2171
  25   2.0000      -0.663907       -18.0658
  26   2.0000      -0.663590       -18.0572
  27   2.0000      -0.657233       -17.8842
  28   2.0000      -0.616529       -16.7766
  29   2.0000      -0.576356       -15.6835
  30   2.0000      -0.564371       -15.3573
  31   2.0000      -0.546194       -14.8627
  32   2.0000      -0.516607       -14.0576
  33   2.0000      -0.505526       -13.7561
  34   2.0000      -0.497340       -13.5333
  35   2.0000      -0.490325       -13.3424
  36   2.0000      -0.486274       -13.2322
  37   2.0000      -0.473553       -12.8860
  38   2.0000      -0.447326       -12.1724
  39   2.0000      -0.439760       -11.9665
  40   2.0000      -0.433667       -11.8007
  41   2.0000      -0.412464       -11.2237
  42   2.0000      -0.388368       -10.5680
  43   2.0000      -0.382880       -10.4187
  44   2.0000      -0.375277       -10.2118
  45   2.0000      -0.358292        -9.7496
  46   2.0000      -0.346901        -9.4397
  47   2.0000      -0.332717        -9.0537
  48   2.0000      -0.318716        -8.6727
  49   2.0000      -0.309766        -8.4292
  50   2.0000      -0.289555        -7.8792
  51   2.0000      -0.283993        -7.7278
  52   2.0000      -0.255495        -6.9524
  53   0.0000      -0.063008        -1.7145
  54   0.0000      -0.040683        -1.1070
  55   0.0000       0.004719         0.1284
  56   0.0000       0.028853         0.7851
  57   0.0000       0.031384         0.8540

MULLIKEN ATOMIC CHARGES
-----------------------
   0 C :   -0.255478
   1 C :   -0.189125
   2 C :   -0.245386
   3 C :   -0.188420
   4 C :   -0.193653
   5 C :   -0.245533
   6 H :    0.214514
   7 H :    0.217357
   8 H :    0.212119
   9 H :    0.234161
  10 H :    0.219499
  11 Pd:    0.375112
  12 O :   -0.470180
  13 O :   -0.482234
  14 O :   -0.343489
  15 C :    0.427304
  16 O :   -0.555325
  17 H :    0.470643
  18 C :    0.380818
  19 H :    0.186492
  20 H :    0.230804
Sum of atomic charges:    0.0000000

LOEWDIN ATOMIC CHARGES
----------------------
   0 C :   -0.132038
   1 C :   -0.143221
   2 C :   -0.136354
   3 C :   -0.138523
   4 C :   -0.039410
   5 C :   -0.106473
   6 H :    0.138274
   7 H :    0.136090
   8 H :    0.131613
   9 H :    0.148668
  10 H :    0.137593
  11 Pd:   -0.298335
  12 O :   -0.217537
  13 O :   -0.166854
  14 O :   -0.019703
  15 C :    0.230506
  16 O :   -0.298404
  17 H :    0.396356
  18 C :    0.136681
  19 H :    0.110216
  20 H :    0.130854

  Mayer bond orders larger than 0.100000
B(  0-C ,  1-C ) :   1.4251 B(  0-C ,  4-C ) :   1.3589 B(  0-C ,  6-H ) :   0.9122
B(  1-C ,  2-C ) :   1.4443 B(  1-C ,  7-H ) :   0.9178 B(  2-C ,  3-C ) :   1.4042
B(  2-C ,  4-C ) :   0.1015 B(  2-C ,  8-H ) :   0.9201 B(  3-C ,  5-C ) :   1.4584
B(  3-C , 10-H ) :   0.9175 B(  4-C ,  5-C ) :   1.3518 B(  4-C , 11-Pd) :   0.9073
B(  5-C ,  9-H ) :   0.9102 B( 11-Pd, 12-O ) :   0.3585 B( 11-Pd, 13-O ) :   0.5568
B( 11-Pd, 14-O ) :   0.3668 B( 12-O , 13-O ) :   0.1148 B( 12-O , 18-C ) :   1.5999
B( 13-O , 18-C ) :   1.4296 B( 14-O , 15-C ) :   1.8036 B( 15-C , 16-O ) :   1.1257
B( 15-C , 20-H ) :   0.8694 B( 16-O , 17-H ) :   0.7146 B( 18-C , 19-H ) :   0.8839

Dispersion correction           -0.013010764
FINAL SINGLE POINT ENERGY      -737.062861213463
Dispersion correction            ... done

DIPOLE MOMENT
-------------
                                X             Y             Z
Electronic contribution:     49.65425      37.81135      -5.64589
Nuclear contribution   :    -51.34677     -36.98395       7.11290
                        -----------------------------------------
Total Dipole Moment    :     -1.69253       0.82740       1.46701
                        -----------------------------------------
Magnitude (a.u.)       :      2.38775
Magnitude (Debye)      :      6.06918

Rotational constants in cm-1:     0.028872     0.017094     0.012729
Rotational constants in MHz :   865.570544   512.454162   381.619588

                             ****ORCA TERMINATED NORMALLY****
TOTAL RUN TIME: 0 days 0 hours 3 minutes 56 seconds 534 msec
