                         Program Version 5.0.3 -  RELEASE  -
|  1> ! EnGrad PBEh-3c
|  2> %output
|  3> xyzfile=True
|  4> end
|  5> %scf
|  6> maxiter 250
|  7> end
|  8> %output
|  9> Print[P_Hirshfeld] = 1
| 10> end
| 11> % maxcore
| 12> 4000
| 13> *xyz 0 1
| 14> C   -1.47598035   0.17655386  -0.58079473
| 15> C   -2.13818390  -0.90100357  -1.23127062
| 16> C   -1.81846048  -2.20658379  -0.91140821
| 17> C   -0.87820687  -2.44444518   0.08635112
| 18> C   -0.33351532  -0.00937313   0.26771055
| 19> C   -0.22242000  -1.37409599   0.72415101
| 20> H   -1.74498465   1.16359166  -0.93622025
| 21> H   -2.88231394  -0.68837064  -2.00857857
| 22> H   -2.33207756  -3.01733382  -1.38502872
| 23> H    0.53114605  -1.63680212   1.45266132
| 24> H   -0.57867966  -3.48089897   0.30319949
| 25> Pd   1.23088745   0.92168807  -0.07675764
| 26> O    3.37520200   1.38589105  -1.12948975
| 27> O    2.62687478  -0.53905276  -0.33495085
| 28> O    0.37305211   2.82819058   0.21106972
| 29> C   -0.09332816   2.85171752   1.33852101
| 30> O   -0.14626105   1.90617633   2.44196867
| 31> H   -0.66677979   1.56509531   2.53617636
| 32> C    3.49685627   0.15487172  -0.97753775
| 33> H    4.42699811  -0.35992558  -1.34077419
| 34> H   -0.75367982   3.70030830   1.54800008
| 35> *
| 36>
| 37>                          ****END OF INPUT****

CARTESIAN COORDINATES (ANGSTROEM)
---------------------------------
  C     -1.475980    0.176554   -0.580795
  C     -2.138184   -0.901004   -1.231271
  C     -1.818460   -2.206584   -0.911408
  C     -0.878207   -2.444445    0.086351
  C     -0.333515   -0.009373    0.267711
  C     -0.222420   -1.374096    0.724151
  H     -1.744985    1.163592   -0.936220
  H     -2.882314   -0.688371   -2.008579
  H     -2.332078   -3.017334   -1.385029
  H      0.531146   -1.636802    1.452661
  H     -0.578680   -3.480899    0.303199
  Pd     1.230887    0.921688   -0.076758
  O      3.375202    1.385891   -1.129490
  O      2.626875   -0.539053   -0.334951
  O      0.373052    2.828191    0.211070
  C     -0.093328    2.851718    1.338521
  O     -0.146261    1.906176    2.441969
  H     -0.666780    1.565095    2.536176
  C      3.496856    0.154872   -0.977538
  H      4.426998   -0.359926   -1.340774
  H     -0.753680    3.700308    1.548000

 Total Charge           Charge          ....    0
 Multiplicity           Mult            ....    1
 Number of Electrons    NEL             ....  106
 Basis Dimension        Dim             ....  227

ORBITAL ENERGIES
----------------

  NO   OCC          E(Eh)            E(eV)
   0   2.0000     -19.627314      -534.0864
   1   2.0000     -19.553625      -532.0812
   2   2.0000     -19.486970      -530.2674
   3   2.0000     -19.471678      -529.8513
   4   2.0000     -10.683066      -290.7010
   5   2.0000     -10.552191      -287.1397
   6   2.0000     -10.473398      -284.9956
   7   2.0000     -10.457640      -284.5669
   8   2.0000     -10.452825      -284.4358
   9   2.0000     -10.450134      -284.3626
  10   2.0000     -10.449549      -284.3467
  11   2.0000     -10.442194      -284.1466
  12   2.0000      -3.664526       -99.7168
  13   2.0000      -2.317149       -63.0528
  14   2.0000      -2.306419       -62.7609
  15   2.0000      -2.277625       -61.9773
  16   2.0000      -1.317191       -35.8426
  17   2.0000      -1.265023       -34.4230
  18   2.0000      -1.171410       -31.8757
  19   2.0000      -1.067109       -29.0375
  20   2.0000      -0.943329       -25.6693
  21   2.0000      -0.841082       -22.8870
  22   2.0000      -0.830671       -22.6037
  23   2.0000      -0.826172       -22.4813
  24   2.0000      -0.712142       -19.3784
  25   2.0000      -0.674650       -18.3582
  26   2.0000      -0.669911       -18.2292
  27   2.0000      -0.648596       -17.6492
  28   2.0000      -0.635826       -17.3017
  29   2.0000      -0.586948       -15.9717
  30   2.0000      -0.574864       -15.6428
  31   2.0000      -0.542391       -14.7592
  32   2.0000      -0.520036       -14.1509
  33   2.0000      -0.519217       -14.1286
  34   2.0000      -0.507224       -13.8023
  35   2.0000      -0.506442       -13.7810
  36   2.0000      -0.479833       -13.0569
  37   2.0000      -0.470247       -12.7961
  38   2.0000      -0.467963       -12.7339
  39   2.0000      -0.463828       -12.6214
  40   2.0000      -0.449746       -12.2382
  41   2.0000      -0.427924       -11.6444
  42   2.0000      -0.404430       -11.0051
  43   2.0000      -0.394293       -10.7293
  44   2.0000      -0.386617       -10.5204
  45   2.0000      -0.364726        -9.9247
  46   2.0000      -0.357399        -9.7253
  47   2.0000      -0.343476        -9.3465
  48   2.0000      -0.324772        -8.8375
  49   2.0000      -0.312056        -8.4915
  50   2.0000      -0.300014        -8.1638
  51   2.0000      -0.283456        -7.7132
  52   2.0000      -0.258982        -7.0473
  53   0.0000      -0.079317        -2.1583
  54   0.0000      -0.059457        -1.6179
  55   0.0000       0.013837         0.3765
  56   0.0000       0.018596         0.5060
  57   0.0000       0.048850         1.3293

MULLIKEN ATOMIC CHARGES
-----------------------
   0 C :   -0.238863
   1 C :   -0.216828
   2 C :   -0.218462
   3 C :   -0.214762
   4 C :   -0.218754
   5 C :   -0.217925
   6 H :    0.214131
   7 H :    0.222653
   8 H :    0.222578
   9 H :    0.241768
  10 H :    0.225115
  11 Pd:    0.404792
  12 O :   -0.459792
  13 O :   -0.506700
  14 O :   -0.308564
  15 C :    0.422984
  16 O :   -0.452577
  17 H :    0.297750
  18 C :    0.370435
  19 H :    0.181929
  20 H :    0.249092
Sum of atomic charges:   -0.0000000

LOEWDIN ATOMIC CHARGES
----------------------
   0 C :   -0.130982
   1 C :   -0.131130
   2 C :   -0.143108
   3 C :   -0.126710
   4 C :   -0.030852
   5 C :   -0.099674
   6 H :    0.140399
   7 H :    0.138915
   8 H :    0.136746
   9 H :    0.154947
  10 H :    0.140985
  11 Pd:   -0.264740
  12 O :   -0.233288
  13 O :   -0.197020
  14 O :    0.005427
  15 C :    0.301671
  16 O :   -0.255274
  17 H :    0.208827
  18 C :    0.134661
  19 H :    0.107277
  20 H :    0.142923

  Mayer bond orders larger than 0.100000
B(  0-C ,  1-C ) :   1.4124 B(  0-C ,  4-C ) :   1.3530 B(  0-C ,  6-H ) :   0.9113
B(  1-C ,  2-C ) :   1.4479 B(  1-C ,  7-H ) :   0.9162 B(  2-C ,  3-C ) :   1.3985
B(  2-C ,  8-H ) :   0.9161 B(  3-C ,  5-C ) :   1.4524 B(  3-C , 10-H ) :   0.9163
B(  4-C ,  5-C ) :   1.3417 B(  4-C , 11-Pd) :   0.9899 B(  5-C ,  9-H ) :   0.9073
B( 11-Pd, 12-O ) :   0.3051 B( 11-Pd, 13-O ) :   0.5563 B( 11-Pd, 14-O ) :   0.3458
B( 12-O , 13-O ) :   0.1159 B( 12-O , 18-C ) :   1.6574 B( 13-O , 18-C ) :   1.3899
B( 14-O , 15-C ) :   1.8774 B( 15-C , 16-O ) :   1.0187 B( 15-C , 20-H ) :   0.8703
B( 16-O , 17-H ) :   0.8898 B( 18-C , 19-H ) :   0.8784

Dispersion correction           -0.013352674
FINAL SINGLE POINT ENERGY      -736.779181570698
Dispersion correction            ... done

DIPOLE MOMENT
-------------
                                X             Y             Z
Electronic contribution:     44.18007      34.66485      -3.43988
Nuclear contribution   :    -45.76270     -33.81443       4.33079
                        -----------------------------------------
Total Dipole Moment    :     -1.58262       0.85042       0.89091
                        -----------------------------------------
Magnitude (a.u.)       :      2.00540
Magnitude (Debye)      :      5.09732

Rotational constants in cm-1:     0.027883     0.018164     0.013206
Rotational constants in MHz :   835.904931   544.552418   395.908167

                             ****ORCA TERMINATED NORMALLY****
TOTAL RUN TIME: 0 days 0 hours 3 minutes 48 seconds 587 msec
