                         Program Version 5.0.3 -  RELEASE  -
|  1> ! EnGrad PBEh-3c
|  2> %output
|  3> xyzfile=True
|  4> end
|  5> %scf
|  6> maxiter 250
|  7> end
|  8> %output
|  9> Print[P_Hirshfeld] = 1
| 10> end
| 11> % maxcore
| 12> 4000
| 13> *xyz 0 1
| 14> C   -1.45314481   0.15608522  -0.66264674
| 15> C   -2.18180195  -0.89603562  -1.21482717
| 16> C   -1.89476290  -2.19076865  -0.84531010
| 17> C   -0.90730925  -2.45902687   0.08872194
| 18> C   -0.31216718  -0.03775132   0.20060187
| 19> C   -0.19103585  -1.41483379   0.65607203
| 20> H   -1.68234344   1.14244812  -1.04592223
| 21> H   -2.95161623  -0.67815697  -1.93973250
| 22> H   -2.47083315  -2.99202162  -1.24965591
| 23> H    0.58945775  -1.67337555   1.35570943
| 24> H   -0.65410620  -3.47806838   0.34620887
| 25> Pd   1.30988397   0.96210581  -0.11877483
| 26> O    3.42780563   1.42662986  -1.02572269
| 27> O    2.66441312  -0.52716512  -0.42340208
| 28> O    0.35912230   2.80443269   0.18335164
| 29> C   -0.10363467   2.84584896   1.31327601
| 30> O   -0.02739942   1.93018997   2.38792131
| 31> H   -0.79381310   1.51790927   2.68544571
| 32> C    3.56798623   0.19033780  -0.94870864
| 33> H    4.50580831  -0.29498924  -1.28296314
| 34> H   -0.80270597   3.66405596   1.53835274
| 35> *
| 36>
| 37>                          ****END OF INPUT****

CARTESIAN COORDINATES (ANGSTROEM)
---------------------------------
  C     -1.453145    0.156085   -0.662647
  C     -2.181802   -0.896036   -1.214827
  C     -1.894763   -2.190769   -0.845310
  C     -0.907309   -2.459027    0.088722
  C     -0.312167   -0.037751    0.200602
  C     -0.191036   -1.414834    0.656072
  H     -1.682343    1.142448   -1.045922
  H     -2.951616   -0.678157   -1.939732
  H     -2.470833   -2.992022   -1.249656
  H      0.589458   -1.673376    1.355709
  H     -0.654106   -3.478068    0.346209
  Pd     1.309884    0.962106   -0.118775
  O      3.427806    1.426630   -1.025723
  O      2.664413   -0.527165   -0.423402
  O      0.359122    2.804433    0.183352
  C     -0.103635    2.845849    1.313276
  O     -0.027399    1.930190    2.387921
  H     -0.793813    1.517909    2.685446
  C      3.567986    0.190338   -0.948709
  H      4.505808   -0.294989   -1.282963
  H     -0.802706    3.664056    1.538353

 Total Charge           Charge          ....    0
 Multiplicity           Mult            ....    1
 Number of Electrons    NEL             ....  106
 Basis Dimension        Dim             ....  227

ORBITAL ENERGIES
----------------

  NO   OCC          E(Eh)            E(eV)
   0   2.0000     -19.610800      -533.6370
   1   2.0000     -19.579995      -532.7988
   2   2.0000     -19.488026      -530.2962
   3   2.0000     -19.471598      -529.8491
   4   2.0000     -10.669346      -290.3277
   5   2.0000     -10.549875      -287.0767
   6   2.0000     -10.464872      -284.7636
   7   2.0000     -10.448316      -284.3131
   8   2.0000     -10.443131      -284.1720
   9   2.0000     -10.442210      -284.1470
  10   2.0000     -10.440300      -284.0950
  11   2.0000     -10.436219      -283.9839
  12   2.0000      -3.655445       -99.4697
  13   2.0000      -2.304825       -62.7175
  14   2.0000      -2.299164       -62.5634
  15   2.0000      -2.268047       -61.7167
  16   2.0000      -1.272227       -34.6191
  17   2.0000      -1.202572       -32.7237
  18   2.0000      -1.179844       -32.1052
  19   2.0000      -1.069470       -29.1018
  20   2.0000      -0.940495       -25.5922
  21   2.0000      -0.828379       -22.5413
  22   2.0000      -0.819175       -22.2909
  23   2.0000      -0.789544       -21.4846
  24   2.0000      -0.695670       -18.9302
  25   2.0000      -0.668019       -18.1777
  26   2.0000      -0.666678       -18.1412
  27   2.0000      -0.653367       -17.7790
  28   2.0000      -0.625389       -17.0177
  29   2.0000      -0.580745       -15.8029
  30   2.0000      -0.569670       -15.5015
  31   2.0000      -0.544573       -14.8186
  32   2.0000      -0.516244       -14.0477
  33   2.0000      -0.509405       -13.8616
  34   2.0000      -0.503584       -13.7032
  35   2.0000      -0.499569       -13.5940
  36   2.0000      -0.484160       -13.1747
  37   2.0000      -0.471778       -12.8377
  38   2.0000      -0.455513       -12.3951
  39   2.0000      -0.449673       -12.2362
  40   2.0000      -0.440291       -11.9809
  41   2.0000      -0.418111       -11.3774
  42   2.0000      -0.394617       -10.7381
  43   2.0000      -0.386677       -10.5220
  44   2.0000      -0.380642       -10.3578
  45   2.0000      -0.360070        -9.7980
  46   2.0000      -0.350093        -9.5265
  47   2.0000      -0.337794        -9.1918
  48   2.0000      -0.321906        -8.7595
  49   2.0000      -0.310811        -8.4576
  50   2.0000      -0.293578        -7.9887
  51   2.0000      -0.284249        -7.7348
  52   2.0000      -0.256506        -6.9799
  53   0.0000      -0.065705        -1.7879
  54   0.0000      -0.046605        -1.2682
  55   0.0000       0.019933         0.5424
  56   0.0000       0.025596         0.6965
  57   0.0000       0.050653         1.3783

MULLIKEN ATOMIC CHARGES
-----------------------
   0 C :   -0.246966
   1 C :   -0.200888
   2 C :   -0.233920
   3 C :   -0.199856
   4 C :   -0.204460
   5 C :   -0.233219
   6 H :    0.213750
   7 H :    0.219542
   8 H :    0.216309
   9 H :    0.236794
  10 H :    0.222078
  11 Pd:    0.382768
  12 O :   -0.465250
  13 O :   -0.490710
  14 O :   -0.330159
  15 C :    0.430853
  16 O :   -0.597245
  17 H :    0.484475
  18 C :    0.375095
  19 H :    0.183443
  20 H :    0.237565
Sum of atomic charges:   -0.0000000

LOEWDIN ATOMIC CHARGES
----------------------
   0 C :   -0.131696
   1 C :   -0.138147
   2 C :   -0.139076
   3 C :   -0.133602
   4 C :   -0.035747
   5 C :   -0.103775
   6 H :    0.138773
   7 H :    0.137195
   8 H :    0.133535
   9 H :    0.150887
  10 H :    0.138954
  11 Pd:   -0.285265
  12 O :   -0.224028
  13 O :   -0.176871
  14 O :   -0.009710
  15 C :    0.260820
  16 O :   -0.311177
  17 H :    0.353242
  18 C :    0.132313
  19 H :    0.108307
  20 H :    0.135069

  Mayer bond orders larger than 0.100000
B(  0-C ,  1-C ) :   1.4231 B(  0-C ,  4-C ) :   1.3549 B(  0-C ,  6-H ) :   0.9117
B(  1-C ,  2-C ) :   1.4456 B(  1-C ,  7-H ) :   0.9172 B(  2-C ,  3-C ) :   1.4039
B(  2-C ,  8-H ) :   0.9185 B(  3-C ,  5-C ) :   1.4566 B(  3-C , 10-H ) :   0.9170
B(  4-C ,  5-C ) :   1.3486 B(  4-C , 11-Pd) :   0.9418 B(  5-C ,  9-H ) :   0.9091
B( 11-Pd, 12-O ) :   0.3357 B( 11-Pd, 13-O ) :   0.5559 B( 11-Pd, 14-O ) :   0.3586
B( 12-O , 13-O ) :   0.1148 B( 12-O , 18-C ) :   1.6249 B( 13-O , 18-C ) :   1.4165
B( 14-O , 15-C ) :   1.8360 B( 15-C , 16-O ) :   1.0782 B( 15-C , 20-H ) :   0.8702
B( 16-O , 17-H ) :   0.7140 B( 18-C , 19-H ) :   0.8817

Dispersion correction           -0.013188417
FINAL SINGLE POINT ENERGY      -737.073438446973
Dispersion correction            ... done

DIPOLE MOMENT
-------------
                                X             Y             Z
Electronic contribution:     47.20681      36.42051      -4.63215
Nuclear contribution   :    -48.86848     -35.57727       5.87816
                        -----------------------------------------
Total Dipole Moment    :     -1.66168       0.84324       1.24601
                        -----------------------------------------
Magnitude (a.u.)       :      2.24160
Magnitude (Debye)      :      5.69769

Rotational constants in cm-1:     0.028454     0.017570     0.012948
Rotational constants in MHz :   853.030755   526.736706   388.170065

                             ****ORCA TERMINATED NORMALLY****
TOTAL RUN TIME: 0 days 0 hours 3 minutes 46 seconds 241 msec
