                         Program Version 5.0.3 -  RELEASE  -
|  1> ! EnGrad PBEh-3c
|  2> %output
|  3> xyzfile=True
|  4> end
|  5> %scf
|  6> maxiter 250
|  7> end
|  8> %output
|  9> Print[P_Hirshfeld] = 1
| 10> end
| 11> % maxcore
| 12> 4000
| 13> *xyz 0 1
| 14> C   -1.44458710   0.16655940  -0.63271328
| 15> C   -2.16696191  -0.88984729  -1.20861084
| 16> C   -1.87161107  -2.19777128  -0.86598302
| 17> C   -0.90116060  -2.44580040   0.09887449
| 18> C   -0.31780087  -0.06036267   0.19300021
| 19> C   -0.19414672  -1.38854014   0.67232592
| 20> H   -1.69748122   1.15280121  -1.00753583
| 21> H   -2.92949586  -0.68279798  -1.96205896
| 22> H   -2.42802685  -3.01157270  -1.30395631
| 23> H    0.57491088  -1.65591380   1.38554277
| 24> H   -0.63164611  -3.47732297   0.33343053
| 25> Pd   1.27821061   0.94876014  -0.11190911
| 26> O    3.41161486   1.41367266  -1.05721102
| 27> O    2.65385405  -0.54051380  -0.39547862
| 28> O    0.36383908   2.79616372   0.24279825
| 29> C   -0.13783587   2.83098516   1.33148268
| 30> O   -0.03575374   1.95257892   2.37072920
| 31> H   -0.76144091   1.54333769   2.62512095
| 32> C    3.53757400   0.17920311  -0.95499932
| 33> H    4.47451543  -0.31545472  -1.30104411
| 34> H   -0.78097204   3.67827276   1.54540318
| 35> *
| 36>
| 37>                          ****END OF INPUT****

CARTESIAN COORDINATES (ANGSTROEM)
---------------------------------
  C     -1.444587    0.166559   -0.632713
  C     -2.166962   -0.889847   -1.208611
  C     -1.871611   -2.197771   -0.865983
  C     -0.901161   -2.445800    0.098874
  C     -0.317801   -0.060363    0.193000
  C     -0.194147   -1.388540    0.672326
  H     -1.697481    1.152801   -1.007536
  H     -2.929496   -0.682798   -1.962059
  H     -2.428027   -3.011573   -1.303956
  H      0.574911   -1.655914    1.385543
  H     -0.631646   -3.477323    0.333431
  Pd     1.278211    0.948760   -0.111909
  O      3.411615    1.413673   -1.057211
  O      2.653854   -0.540514   -0.395479
  O      0.363839    2.796164    0.242798
  C     -0.137836    2.830985    1.331483
  O     -0.035754    1.952579    2.370729
  H     -0.761441    1.543338    2.625121
  C      3.537574    0.179203   -0.954999
  H      4.474515   -0.315455   -1.301044
  H     -0.780972    3.678273    1.545403

 Total Charge           Charge          ....    0
 Multiplicity           Mult            ....    1
 Number of Electrons    NEL             ....  106
 Basis Dimension        Dim             ....  227

ORBITAL ENERGIES
----------------

  NO   OCC          E(Eh)            E(eV)
   0   2.0000     -19.603779      -533.4460
   1   2.0000     -19.581151      -532.8302
   2   2.0000     -19.485332      -530.2228
   3   2.0000     -19.468668      -529.7694
   4   2.0000     -10.660221      -290.0794
   5   2.0000     -10.547357      -287.0082
   6   2.0000     -10.463547      -284.7276
   7   2.0000     -10.450179      -284.3638
   8   2.0000     -10.447262      -284.2844
   9   2.0000     -10.444807      -284.2177
  10   2.0000     -10.443603      -284.1849
  11   2.0000     -10.439924      -284.0848
  12   2.0000      -3.654208       -99.4360
  13   2.0000      -2.304505       -62.7088
  14   2.0000      -2.297306       -62.5129
  15   2.0000      -2.267291       -61.6961
  16   2.0000      -1.291056       -35.1314
  17   2.0000      -1.225775       -33.3550
  18   2.0000      -1.174889       -31.9704
  19   2.0000      -1.067920       -29.0596
  20   2.0000      -0.945582       -25.7306
  21   2.0000      -0.828999       -22.5582
  22   2.0000      -0.826924       -22.5017
  23   2.0000      -0.804084       -21.8802
  24   2.0000      -0.710390       -19.3307
  25   2.0000      -0.672759       -18.3067
  26   2.0000      -0.667500       -18.1636
  27   2.0000      -0.648231       -17.6393
  28   2.0000      -0.630065       -17.1450
  29   2.0000      -0.590978       -16.0813
  30   2.0000      -0.574819       -15.6416
  31   2.0000      -0.541398       -14.7322
  32   2.0000      -0.514572       -14.0022
  33   2.0000      -0.511259       -13.9121
  34   2.0000      -0.505536       -13.7563
  35   2.0000      -0.503879       -13.7112
  36   2.0000      -0.480764       -13.0823
  37   2.0000      -0.471208       -12.8222
  38   2.0000      -0.460468       -12.5300
  39   2.0000      -0.455300       -12.3894
  40   2.0000      -0.446711       -12.1556
  41   2.0000      -0.424757       -11.5582
  42   2.0000      -0.397506       -10.8167
  43   2.0000      -0.385258       -10.4834
  44   2.0000      -0.381063       -10.3693
  45   2.0000      -0.358520        -9.7558
  46   2.0000      -0.349578        -9.5125
  47   2.0000      -0.338017        -9.1979
  48   2.0000      -0.319857        -8.7038
  49   2.0000      -0.308981        -8.4078
  50   2.0000      -0.294076        -8.0022
  51   2.0000      -0.284419        -7.7394
  52   2.0000      -0.259473        -7.0606
  53   0.0000      -0.057531        -1.5655
  54   0.0000      -0.040462        -1.1010
  55   0.0000       0.019406         0.5281
  56   0.0000       0.022996         0.6258
  57   0.0000       0.053106         1.4451

MULLIKEN ATOMIC CHARGES
-----------------------
   0 C :   -0.241836
   1 C :   -0.214505
   2 C :   -0.226736
   3 C :   -0.213457
   4 C :   -0.199383
   5 C :   -0.224561
   6 H :    0.217143
   7 H :    0.220149
   8 H :    0.218295
   9 H :    0.239296
  10 H :    0.223211
  11 Pd:    0.382159
  12 O :   -0.463909
  13 O :   -0.493901
  14 O :   -0.327151
  15 C :    0.415463
  16 O :   -0.570639
  17 H :    0.477328
  18 C :    0.371865
  19 H :    0.178166
  20 H :    0.233001
Sum of atomic charges:    0.0000000

LOEWDIN ATOMIC CHARGES
----------------------
   0 C :   -0.134034
   1 C :   -0.132595
   2 C :   -0.143274
   3 C :   -0.127891
   4 C :   -0.031657
   5 C :   -0.105723
   6 H :    0.142283
   7 H :    0.137074
   8 H :    0.135103
   9 H :    0.154266
  10 H :    0.139185
  11 Pd:   -0.280370
  12 O :   -0.227678
  13 O :   -0.183666
  14 O :   -0.000776
  15 C :    0.228284
  16 O :   -0.271612
  17 H :    0.339396
  18 C :    0.128838
  19 H :    0.105052
  20 H :    0.129794

  Mayer bond orders larger than 0.100000
B(  0-C ,  1-C ) :   1.4219 B(  0-C ,  4-C ) :   1.3543 B(  0-C ,  6-H ) :   0.9105
B(  1-C ,  2-C ) :   1.4434 B(  1-C ,  7-H ) :   0.9170 B(  2-C ,  3-C ) :   1.4077
B(  2-C ,  8-H ) :   0.9181 B(  3-C ,  5-C ) :   1.4464 B(  3-C , 10-H ) :   0.9167
B(  4-C ,  5-C ) :   1.3602 B(  4-C , 11-Pd) :   0.9588 B(  5-C ,  9-H ) :   0.9081
B( 11-Pd, 12-O ) :   0.3227 B( 11-Pd, 13-O ) :   0.5490 B( 11-Pd, 14-O ) :   0.3575
B( 12-O , 13-O ) :   0.1158 B( 12-O , 18-C ) :   1.6383 B( 13-O , 18-C ) :   1.4150
B( 14-O , 15-C ) :   1.8447 B( 15-C , 16-O ) :   1.1062 B( 15-C , 20-H ) :   0.8728
B( 16-O , 17-H ) :   0.7245 B( 18-C , 19-H ) :   0.8810

Dispersion correction           -0.013269361
FINAL SINGLE POINT ENERGY      -737.078498746675
Dispersion correction            ... done

DIPOLE MOMENT
-------------
                                X             Y             Z
Electronic contribution:     45.77531      35.81173      -4.46890
Nuclear contribution   :    -47.55201     -35.00853       5.72414
                        -----------------------------------------
Total Dipole Moment    :     -1.77670       0.80320       1.25524
                        -----------------------------------------
Magnitude (a.u.)       :      2.31892
Magnitude (Debye)      :      5.89424

Rotational constants in cm-1:     0.028419     0.017877     0.013061
Rotational constants in MHz :   851.984914   535.939361   391.549126

                             ****ORCA TERMINATED NORMALLY****
TOTAL RUN TIME: 0 days 0 hours 3 minutes 56 seconds 642 msec
