                         Program Version 5.0.3 -  RELEASE  -
|  1> ! EnGrad PBEh-3c
|  2> %output
|  3> xyzfile=True
|  4> end
|  5> %scf
|  6> maxiter 250
|  7> end
|  8> %output
|  9> Print[P_Hirshfeld] = 1
| 10> end
| 11> % maxcore
| 12> 4000
| 13> *xyz 0 1
| 14> C   -1.42097684   0.17378679  -0.63135344
| 15> C   -2.16472034  -0.88188703  -1.19271685
| 16> C   -1.87503571  -2.20225614  -0.86511800
| 17> C   -0.90685980  -2.43306949   0.11002068
| 18> C   -0.32473768  -0.10939156   0.15501133
| 19> C   -0.18140413  -1.37135760   0.66417293
| 20> H   -1.69058798   1.15751100  -1.00410275
| 21> H   -2.93039795  -0.68455803  -1.96147685
| 22> H   -2.42947679  -3.02497979  -1.31722434
| 23> H    0.58139527  -1.64862400   1.38357708
| 24> H   -0.63483409  -3.47540234   0.33617581
| 25> Pd   1.27936583   0.95441501  -0.12316711
| 26> O    3.40997733   1.41060825  -1.05473317
| 27> O    2.65545698  -0.55521051  -0.39724067
| 28> O    0.36980018   2.77178451   0.29786892
| 29> C   -0.19150626   2.81170108   1.35998915
| 30> O    0.01119725   1.99858015   2.32091960
| 31> H   -0.78260638   1.55311772   2.61448083
| 32> C    3.52902214   0.18221850  -0.94914253
| 33> H    4.46655022  -0.31545022  -1.30145215
| 34> H   -0.77652888   3.68380018   1.55232407
| 35> *
| 36>
| 37>                          ****END OF INPUT****

CARTESIAN COORDINATES (ANGSTROEM)
---------------------------------
  C     -1.420977    0.173787   -0.631353
  C     -2.164720   -0.881887   -1.192717
  C     -1.875036   -2.202256   -0.865118
  C     -0.906860   -2.433069    0.110021
  C     -0.324738   -0.109392    0.155011
  C     -0.181404   -1.371358    0.664173
  H     -1.690588    1.157511   -1.004103
  H     -2.930398   -0.684558   -1.961477
  H     -2.429477   -3.024980   -1.317224
  H      0.581395   -1.648624    1.383577
  H     -0.634834   -3.475402    0.336176
  Pd     1.279366    0.954415   -0.123167
  O      3.409977    1.410608   -1.054733
  O      2.655457   -0.555211   -0.397241
  O      0.369800    2.771785    0.297869
  C     -0.191506    2.811701    1.359989
  O      0.011197    1.998580    2.320920
  H     -0.782606    1.553118    2.614481
  C      3.529022    0.182219   -0.949143
  H      4.466550   -0.315450   -1.301452
  H     -0.776529    3.683800    1.552324

 Total Charge           Charge          ....    0
 Multiplicity           Mult            ....    1
 Number of Electrons    NEL             ....  106
 Basis Dimension        Dim             ....  227

ORBITAL ENERGIES
----------------

  NO   OCC          E(Eh)            E(eV)
   0   2.0000     -19.598769      -533.3096
   1   2.0000     -19.583366      -532.8905
   2   2.0000     -19.481030      -530.1058
   3   2.0000     -19.465841      -529.6925
   4   2.0000     -10.644299      -289.6461
   5   2.0000     -10.542999      -286.8896
   6   2.0000     -10.456762      -284.5429
   7   2.0000     -10.449609      -284.3483
   8   2.0000     -10.448213      -284.3103
   9   2.0000     -10.446725      -284.2698
  10   2.0000     -10.441851      -284.1372
  11   2.0000     -10.441064      -284.1158
  12   2.0000      -3.646049       -99.2141
  13   2.0000      -2.295502       -62.4638
  14   2.0000      -2.289419       -62.2982
  15   2.0000      -2.259606       -61.4870
  16   2.0000      -1.308427       -35.6041
  17   2.0000      -1.218843       -33.1664
  18   2.0000      -1.171944       -31.8902
  19   2.0000      -1.067221       -29.0405
  20   2.0000      -0.952117       -25.9084
  21   2.0000      -0.831785       -22.6340
  22   2.0000      -0.830162       -22.5899
  23   2.0000      -0.795642       -21.6505
  24   2.0000      -0.719219       -19.5709
  25   2.0000      -0.676415       -18.4062
  26   2.0000      -0.665716       -18.1151
  27   2.0000      -0.642697       -17.4887
  28   2.0000      -0.625967       -17.0334
  29   2.0000      -0.605251       -16.4697
  30   2.0000      -0.577003       -15.7010
  31   2.0000      -0.537842       -14.6354
  32   2.0000      -0.512397       -13.9430
  33   2.0000      -0.511344       -13.9144
  34   2.0000      -0.503537       -13.7019
  35   2.0000      -0.496866       -13.5204
  36   2.0000      -0.478089       -13.0095
  37   2.0000      -0.471335       -12.8257
  38   2.0000      -0.458029       -12.4636
  39   2.0000      -0.454856       -12.3773
  40   2.0000      -0.449528       -12.2323
  41   2.0000      -0.429606       -11.6902
  42   2.0000      -0.398263       -10.8373
  43   2.0000      -0.376092       -10.2340
  44   2.0000      -0.374821       -10.1994
  45   2.0000      -0.353539        -9.6203
  46   2.0000      -0.344245        -9.3674
  47   2.0000      -0.333125        -9.0648
  48   2.0000      -0.313946        -8.5429
  49   2.0000      -0.304067        -8.2741
  50   2.0000      -0.290550        -7.9063
  51   2.0000      -0.283650        -7.7185
  52   2.0000      -0.261383        -7.1126
  53   0.0000      -0.050693        -1.3794
  54   0.0000      -0.028703        -0.7810
  55   0.0000       0.017961         0.4888
  56   0.0000       0.025909         0.7050
  57   0.0000       0.047834         1.3016

MULLIKEN ATOMIC CHARGES
-----------------------
   0 C :   -0.236088
   1 C :   -0.231008
   2 C :   -0.217982
   3 C :   -0.230973
   4 C :   -0.184025
   5 C :   -0.217558
   6 H :    0.223496
   7 H :    0.218343
   8 H :    0.219003
   9 H :    0.241172
  10 H :    0.221963
  11 Pd:    0.370900
  12 O :   -0.460092
  13 O :   -0.494865
  14 O :   -0.352628
  15 C :    0.381294
  16 O :   -0.515219
  17 H :    0.491796
  18 C :    0.370682
  19 H :    0.170772
  20 H :    0.231018
Sum of atomic charges:   -0.0000000

LOEWDIN ATOMIC CHARGES
----------------------
   0 C :   -0.137374
   1 C :   -0.127202
   2 C :   -0.148100
   3 C :   -0.122176
   4 C :   -0.029516
   5 C :   -0.110696
   6 H :    0.147400
   7 H :    0.135451
   8 H :    0.136363
   9 H :    0.157554
  10 H :    0.137929
  11 Pd:   -0.291563
  12 O :   -0.221039
  13 O :   -0.187909
  14 O :   -0.018712
  15 C :    0.165250
  16 O :   -0.208698
  17 H :    0.372189
  18 C :    0.124153
  19 H :    0.100727
  20 H :    0.125968

  Mayer bond orders larger than 0.100000
B(  0-C ,  1-C ) :   1.4217 B(  0-C ,  4-C ) :   1.3556 B(  0-C ,  6-H ) :   0.9086
B(  1-C ,  2-C ) :   1.4380 B(  1-C ,  7-H ) :   0.9171 B(  2-C ,  3-C ) :   1.4163
B(  2-C ,  8-H ) :   0.9185 B(  3-C ,  5-C ) :   1.4288 B(  3-C , 10-H ) :   0.9167
B(  4-C ,  5-C ) :   1.3817 B(  4-C , 11-Pd) :   0.9475 B(  5-C ,  9-H ) :   0.9073
B( 11-Pd, 12-O ) :   0.3187 B( 11-Pd, 13-O ) :   0.5413 B( 11-Pd, 14-O ) :   0.3719
B( 12-O , 13-O ) :   0.1165 B( 12-O , 18-C ) :   1.6467 B( 13-O , 18-C ) :   1.4181
B( 14-O , 15-C ) :   1.7970 B( 15-C , 16-O ) :   1.1994 B( 15-C , 20-H ) :   0.8750
B( 16-O , 17-H ) :   0.7060 B( 18-C , 19-H ) :   0.8814

Dispersion correction           -0.013268230
FINAL SINGLE POINT ENERGY      -737.094848934148
Dispersion correction            ... done

DIPOLE MOMENT
-------------
                                X             Y             Z
Electronic contribution:     45.56219      36.05454      -4.79030
Nuclear contribution   :    -47.54188     -35.28919       6.26623
                        -----------------------------------------
Total Dipole Moment    :     -1.97970       0.76535       1.47592
                        -----------------------------------------
Magnitude (a.u.)       :      2.58521
Magnitude (Debye)      :      6.57108

Rotational constants in cm-1:     0.028593     0.017986     0.013074
Rotational constants in MHz :   857.200914   539.211624   391.949687

                             ****ORCA TERMINATED NORMALLY****
TOTAL RUN TIME: 0 days 0 hours 3 minutes 50 seconds 156 msec
