                         Program Version 5.0.3 -  RELEASE  -
|  1> ! EnGrad PBEh-3c
|  2> %output
|  3> xyzfile=True
|  4> end
|  5> %scf
|  6> maxiter 250
|  7> end
|  8> %output
|  9> Print[P_Hirshfeld] = 1
| 10> end
| 11> % maxcore
| 12> 4000
| 13> *xyz 0 1
| 14> C   -1.41763503   0.18325539  -0.61178347
| 15> C   -2.15016616  -0.87563761  -1.18409612
| 16> C   -1.84796429  -2.20834540  -0.88687537
| 17> C   -0.90214712  -2.42006687   0.12153664
| 18> C   -0.32637725  -0.13457184   0.14082048
| 19> C   -0.18044113  -1.35902624   0.68274719
| 20> H   -1.70328224   1.17260689  -0.95441041
| 21> H   -2.89864272  -0.68981806  -1.98164616
| 22> H   -2.37221075  -3.04794141  -1.38631029
| 23> H    0.56715414  -1.62225312   1.41853010
| 24> H   -0.61020111  -3.46680114   0.32398500
| 25> Pd   1.25342381   0.94463956  -0.11852599
| 26> O    3.38100655   1.39032374  -1.09126628
| 27> O    2.63739003  -0.57662803  -0.36645109
| 28> O    0.38242329   2.74934095   0.36187064
| 29> C   -0.24139469   2.81311489   1.38534809
| 30> O    0.01332726   2.01662745   2.30795288
| 31> H   -0.75269411   1.58399103   2.54488090
| 32> C    3.49914780   0.16857298  -0.95367703
| 33> H    4.42078330  -0.33981726  -1.32373150
| 34> H   -0.76250834   3.71144901   1.56690349
| 35> *
| 36>
| 37>                          ****END OF INPUT****

CARTESIAN COORDINATES (ANGSTROEM)
---------------------------------
  C     -1.417635    0.183255   -0.611783
  C     -2.150166   -0.875638   -1.184096
  C     -1.847964   -2.208345   -0.886875
  C     -0.902147   -2.420067    0.121537
  C     -0.326377   -0.134572    0.140820
  C     -0.180441   -1.359026    0.682747
  H     -1.703282    1.172607   -0.954410
  H     -2.898643   -0.689818   -1.981646
  H     -2.372211   -3.047941   -1.386310
  H      0.567154   -1.622253    1.418530
  H     -0.610201   -3.466801    0.323985
  Pd     1.253424    0.944640   -0.118526
  O      3.381007    1.390324   -1.091266
  O      2.637390   -0.576628   -0.366451
  O      0.382423    2.749341    0.361871
  C     -0.241395    2.813115    1.385348
  O      0.013327    2.016627    2.307953
  H     -0.752694    1.583991    2.544881
  C      3.499148    0.168573   -0.953677
  H      4.420783   -0.339817   -1.323732
  H     -0.762508    3.711449    1.566903

 Total Charge           Charge          ....    0
 Multiplicity           Mult            ....    1
 Number of Electrons    NEL             ....  106
 Basis Dimension        Dim             ....  227

ORBITAL ENERGIES
----------------

  NO   OCC          E(Eh)            E(eV)
   0   2.0000     -19.596932      -533.2596
   1   2.0000     -19.575688      -532.6815
   2   2.0000     -19.477576      -530.0118
   3   2.0000     -19.465284      -529.6773
   4   2.0000     -10.638872      -289.4984
   5   2.0000     -10.541305      -286.8435
   6   2.0000     -10.456474      -284.5351
   7   2.0000     -10.452451      -284.4257
   8   2.0000     -10.449366      -284.3417
   9   2.0000     -10.448918      -284.3295
  10   2.0000     -10.445280      -284.2305
  11   2.0000     -10.440719      -284.1064
  12   2.0000      -3.643429       -99.1428
  13   2.0000      -2.293586       -62.4117
  14   2.0000      -2.286329       -62.2142
  15   2.0000      -2.257440       -61.4281
  16   2.0000      -1.332398       -36.2564
  17   2.0000      -1.218993       -33.1705
  18   2.0000      -1.166100       -31.7312
  19   2.0000      -1.064265       -28.9601
  20   2.0000      -0.957231       -26.0476
  21   2.0000      -0.834160       -22.6987
  22   2.0000      -0.832780       -22.6611
  23   2.0000      -0.804022       -21.8785
  24   2.0000      -0.730133       -19.8679
  25   2.0000      -0.679387       -18.4871
  26   2.0000      -0.665452       -18.1079
  27   2.0000      -0.640538       -17.4299
  28   2.0000      -0.628433       -17.1005
  29   2.0000      -0.617092       -16.7919
  30   2.0000      -0.579195       -15.7607
  31   2.0000      -0.534734       -14.5508
  32   2.0000      -0.515574       -14.0295
  33   2.0000      -0.511474       -13.9179
  34   2.0000      -0.501522       -13.6471
  35   2.0000      -0.495672       -13.4879
  36   2.0000      -0.474322       -12.9070
  37   2.0000      -0.474188       -12.9033
  38   2.0000      -0.461248       -12.5512
  39   2.0000      -0.458029       -12.4636
  40   2.0000      -0.447203       -12.1690
  41   2.0000      -0.434925       -11.8349
  42   2.0000      -0.398978       -10.8567
  43   2.0000      -0.375277       -10.2118
  44   2.0000      -0.371436       -10.1073
  45   2.0000      -0.352638        -9.5958
  46   2.0000      -0.341305        -9.2874
  47   2.0000      -0.331975        -9.0335
  48   2.0000      -0.312137        -8.4937
  49   2.0000      -0.300535        -8.1780
  50   2.0000      -0.290042        -7.8924
  51   2.0000      -0.283416        -7.7121
  52   2.0000      -0.260686        -7.0936
  53   0.0000      -0.052592        -1.4311
  54   0.0000      -0.026568        -0.7229
  55   0.0000       0.015679         0.4267
  56   0.0000       0.026197         0.7129
  57   0.0000       0.052003         1.4151

MULLIKEN ATOMIC CHARGES
-----------------------
   0 C :   -0.234065
   1 C :   -0.240522
   2 C :   -0.212837
   3 C :   -0.241893
   4 C :   -0.174451
   5 C :   -0.209788
   6 H :    0.226155
   7 H :    0.217671
   8 H :    0.220154
   9 H :    0.244719
  10 H :    0.221792
  11 Pd:    0.375362
  12 O :   -0.456023
  13 O :   -0.504399
  14 O :   -0.355816
  15 C :    0.341866
  16 O :   -0.481311
  17 H :    0.485024
  18 C :    0.370190
  19 H :    0.168591
  20 H :    0.239582
Sum of atomic charges:   -0.0000000

LOEWDIN ATOMIC CHARGES
----------------------
   0 C :   -0.140697
   1 C :   -0.122936
   2 C :   -0.151919
   3 C :   -0.117631
   4 C :   -0.020240
   5 C :   -0.112747
   6 H :    0.150481
   7 H :    0.135045
   8 H :    0.138294
   9 H :    0.160907
  10 H :    0.137887
  11 Pd:   -0.294787
  12 O :   -0.218355
  13 O :   -0.201889
  14 O :   -0.019149
  15 C :    0.140948
  16 O :   -0.178196
  17 H :    0.358350
  18 C :    0.126534
  19 H :    0.099159
  20 H :    0.130941

  Mayer bond orders larger than 0.100000
B(  0-C ,  1-C ) :   1.4192 B(  0-C ,  4-C ) :   1.3532 B(  0-C ,  6-H ) :   0.9081
B(  1-C ,  2-C ) :   1.4332 B(  1-C ,  7-H ) :   0.9170 B(  2-C ,  3-C ) :   1.4169
B(  2-C ,  8-H ) :   0.9186 B(  3-C ,  5-C ) :   1.4171 B(  3-C , 10-H ) :   0.9165
B(  4-C ,  5-C ) :   1.3906 B(  4-C , 11-Pd) :   0.9569 B(  5-C ,  9-H ) :   0.9064
B( 11-Pd, 12-O ) :   0.3067 B( 11-Pd, 13-O ) :   0.5374 B( 11-Pd, 14-O ) :   0.3709
B( 12-O , 13-O ) :   0.1178 B( 12-O , 18-C ) :   1.6633 B( 13-O , 18-C ) :   1.4064
B( 14-O , 15-C ) :   1.7894 B( 15-C , 16-O ) :   1.2270 B( 15-C , 20-H ) :   0.8736
B( 16-O , 17-H ) :   0.7159 B( 18-C , 19-H ) :   0.8815

Dispersion correction           -0.013321842
FINAL SINGLE POINT ENERGY      -737.073981994491
Dispersion correction            ... done

DIPOLE MOMENT
-------------
                                X             Y             Z
Electronic contribution:     44.44774      35.78120      -4.75950
Nuclear contribution   :    -46.50288     -34.96331       6.22235
                        -----------------------------------------
Total Dipole Moment    :     -2.05514       0.81789       1.46285
                        -----------------------------------------
Magnitude (a.u.)       :      2.65188
Magnitude (Debye)      :      6.74054

Rotational constants in cm-1:     0.028481     0.018294     0.013186
Rotational constants in MHz :   853.838626   548.449723   395.294758

                             ****ORCA TERMINATED NORMALLY****
TOTAL RUN TIME: 0 days 0 hours 3 minutes 43 seconds 451 msec
