                         Program Version 5.0.3 -  RELEASE  -
|  1> ! EnGrad PBEh-3c
|  2> %output
|  3> xyzfile=True
|  4> end
|  5> %scf
|  6> maxiter 250
|  7> end
|  8> %output
|  9> Print[P_Hirshfeld] = 1
| 10> end
| 11> % maxcore
| 12> 4000
| 13> *xyz 0 1
| 14> C   -1.41628118   0.18462863  -0.63269172
| 15> C   -2.15287144  -0.88064458  -1.18016809
| 16> C   -1.84466409  -2.21081001  -0.88922322
| 17> C   -0.90942793  -2.42326622   0.12332182
| 18> C   -0.31452095  -0.15017772   0.10961091
| 19> C   -0.16719092  -1.38028404   0.68359550
| 20> H   -1.69424226   1.18548522  -0.93277496
| 21> H   -2.88311987  -0.69206048  -1.97656047
| 22> H   -2.34209510  -3.05518406  -1.41708616
| 23> H    0.57509856  -1.60290426   1.42916007
| 24> H   -0.60942008  -3.45303763   0.32854702
| 25> Pd   1.26761459   0.95019861  -0.12797546
| 26> O    3.35587869   1.37489316  -1.09949950
| 27> O    2.63004631  -0.59112567  -0.36740693
| 28> O    0.38934882   2.72719285   0.39258189
| 29> C   -0.26794963   2.84128333   1.37897505
| 30> O    0.06024439   2.02261845   2.32213602
| 31> H   -0.78670340   1.58873552   2.54143282
| 32> C    3.48689300   0.15657173  -0.94355106
| 33> H    4.39319171  -0.34930412  -1.33435067
| 34> H   -0.78516774   3.74813908   1.58725058
| 35> *
| 36>
| 37>                          ****END OF INPUT****

CARTESIAN COORDINATES (ANGSTROEM)
---------------------------------
  C     -1.416281    0.184629   -0.632692
  C     -2.152871   -0.880645   -1.180168
  C     -1.844664   -2.210810   -0.889223
  C     -0.909428   -2.423266    0.123322
  C     -0.314521   -0.150178    0.109611
  C     -0.167191   -1.380284    0.683596
  H     -1.694242    1.185485   -0.932775
  H     -2.883120   -0.692060   -1.976560
  H     -2.342095   -3.055184   -1.417086
  H      0.575099   -1.602904    1.429160
  H     -0.609420   -3.453038    0.328547
  Pd     1.267615    0.950199   -0.127975
  O      3.355879    1.374893   -1.099500
  O      2.630046   -0.591126   -0.367407
  O      0.389349    2.727193    0.392582
  C     -0.267950    2.841283    1.378975
  O      0.060244    2.022618    2.322136
  H     -0.786703    1.588736    2.541433
  C      3.486893    0.156572   -0.943551
  H      4.393192   -0.349304   -1.334351
  H     -0.785168    3.748139    1.587251

 Total Charge           Charge          ....    0
 Multiplicity           Mult            ....    1
 Number of Electrons    NEL             ....  106
 Basis Dimension        Dim             ....  227

ORBITAL ENERGIES
----------------

  NO   OCC          E(Eh)            E(eV)
   0   2.0000     -19.591339      -533.1074
   1   2.0000     -19.577167      -532.7218
   2   2.0000     -19.479368      -530.0606
   3   2.0000     -19.466380      -529.7071
   4   2.0000     -10.639399      -289.5128
   5   2.0000     -10.541313      -286.8437
   6   2.0000     -10.458062      -284.5783
   7   2.0000     -10.450429      -284.3706
   8   2.0000     -10.449215      -284.3376
   9   2.0000     -10.446510      -284.2640
  10   2.0000     -10.444575      -284.2113
  11   2.0000     -10.441197      -284.1194
  12   2.0000      -3.642253       -99.1108
  13   2.0000      -2.292167       -62.3730
  14   2.0000      -2.285539       -62.1927
  15   2.0000      -2.256231       -61.3952
  16   2.0000      -1.312718       -35.7209
  17   2.0000      -1.204994       -32.7896
  18   2.0000      -1.170119       -31.8406
  19   2.0000      -1.067722       -29.0542
  20   2.0000      -0.955428       -25.9985
  21   2.0000      -0.833984       -22.6938
  22   2.0000      -0.831048       -22.6140
  23   2.0000      -0.775721       -21.1084
  24   2.0000      -0.711782       -19.3686
  25   2.0000      -0.679468       -18.4893
  26   2.0000      -0.664040       -18.0694
  27   2.0000      -0.642746       -17.4900
  28   2.0000      -0.626236       -17.0408
  29   2.0000      -0.608363       -16.5544
  30   2.0000      -0.579404       -15.7664
  31   2.0000      -0.537450       -14.6248
  32   2.0000      -0.514781       -14.0079
  33   2.0000      -0.511661       -13.9230
  34   2.0000      -0.503827       -13.7098
  35   2.0000      -0.496720       -13.5164
  36   2.0000      -0.477739       -12.9999
  37   2.0000      -0.477504       -12.9935
  38   2.0000      -0.459758       -12.5107
  39   2.0000      -0.456144       -12.4123
  40   2.0000      -0.437383       -11.9018
  41   2.0000      -0.433279       -11.7901
  42   2.0000      -0.400512       -10.8985
  43   2.0000      -0.374836       -10.1998
  44   2.0000      -0.370620       -10.0851
  45   2.0000      -0.354836        -9.6556
  46   2.0000      -0.340480        -9.2649
  47   2.0000      -0.331333        -9.0160
  48   2.0000      -0.311291        -8.4707
  49   2.0000      -0.300777        -8.1846
  50   2.0000      -0.289342        -7.8734
  51   2.0000      -0.282154        -7.6778
  52   2.0000      -0.259738        -7.0678
  53   0.0000      -0.057695        -1.5700
  54   0.0000      -0.025590        -0.6963
  55   0.0000       0.015979         0.4348
  56   0.0000       0.024913         0.6779
  57   0.0000       0.047485         1.2921

MULLIKEN ATOMIC CHARGES
-----------------------
   0 C :   -0.234612
   1 C :   -0.240892
   2 C :   -0.210174
   3 C :   -0.243422
   4 C :   -0.173707
   5 C :   -0.206596
   6 H :    0.225100
   7 H :    0.216989
   8 H :    0.219583
   9 H :    0.247624
  10 H :    0.221262
  11 Pd:    0.383944
  12 O :   -0.459204
  13 O :   -0.498168
  14 O :   -0.338254
  15 C :    0.327562
  16 O :   -0.504365
  17 H :    0.474622
  18 C :    0.372772
  19 H :    0.168398
  20 H :    0.251536
Sum of atomic charges:    0.0000000

LOEWDIN ATOMIC CHARGES
----------------------
   0 C :   -0.143411
   1 C :   -0.123043
   2 C :   -0.152925
   3 C :   -0.118441
   4 C :   -0.009273
   5 C :   -0.113471
   6 H :    0.149708
   7 H :    0.134694
   8 H :    0.138880
   9 H :    0.161452
  10 H :    0.137468
  11 Pd:   -0.301983
  12 O :   -0.214679
  13 O :   -0.194166
  14 O :   -0.003786
  15 C :    0.146284
  16 O :   -0.221254
  17 H :    0.364233
  18 C :    0.125833
  19 H :    0.099168
  20 H :    0.138713

  Mayer bond orders larger than 0.100000
B(  0-C ,  1-C ) :   1.4147 B(  0-C ,  4-C ) :   1.3604 B(  0-C ,  6-H ) :   0.9094
B(  1-C ,  2-C ) :   1.4350 B(  1-C ,  7-H ) :   0.9173 B(  2-C ,  3-C ) :   1.4120
B(  2-C ,  8-H ) :   0.9196 B(  3-C ,  5-C ) :   1.4200 B(  3-C , 10-H ) :   0.9167
B(  4-C ,  5-C ) :   1.3893 B(  4-C , 11-Pd) :   0.9468 B(  5-C ,  9-H ) :   0.9062
B( 11-Pd, 12-O ) :   0.3177 B( 11-Pd, 13-O ) :   0.5338 B( 11-Pd, 14-O ) :   0.3557
B( 12-O , 13-O ) :   0.1180 B( 12-O , 18-C ) :   1.6504 B( 13-O , 18-C ) :   1.4174
B( 14-O , 15-C ) :   1.8109 B( 15-C , 16-O ) :   1.1871 B( 15-C , 20-H ) :   0.8632
B( 16-O , 17-H ) :   0.7236 B( 18-C , 19-H ) :   0.8833

Dispersion correction           -0.013243269
FINAL SINGLE POINT ENERGY      -737.076760221246
Dispersion correction            ... done

DIPOLE MOMENT
-------------
                                X             Y             Z
Electronic contribution:     45.07448      36.27160      -5.29631
Nuclear contribution   :    -47.12127     -35.36275       6.66389
                        -----------------------------------------
Total Dipole Moment    :     -2.04679       0.90885       1.36759
                        -----------------------------------------
Magnitude (a.u.)       :      2.62406
Magnitude (Debye)      :      6.66982

Rotational constants in cm-1:     0.028373     0.018285     0.013178
Rotational constants in MHz :   850.615609   548.165253   395.067866

                             ****ORCA TERMINATED NORMALLY****
TOTAL RUN TIME: 0 days 0 hours 3 minutes 49 seconds 434 msec
