                         Program Version 5.0.3 -  RELEASE  -
|  1> ! EnGrad PBEh-3c
|  2> %output
|  3> xyzfile=True
|  4> end
|  5> %scf
|  6> maxiter 250
|  7> end
|  8> %output
|  9> Print[P_Hirshfeld] = 1
| 10> end
| 11> % maxcore
| 12> 4000
| 13> *xyz -1 1
| 14> C   -2.65074840  -0.30232264   0.88454175
| 15> C   -2.04193668   0.90041172   1.27334220
| 16> C   -3.94634167  -0.59367094   1.30925331
| 17> C   -4.72199821   0.40947037   1.87346616
| 18> C   -4.10680750   1.56971839   2.30790899
| 19> C   -2.73781202   1.72261448   2.15554109
| 20> H   -2.43619039  -1.31068156  -0.43166200
| 21> H   -4.43269689  -1.52374271   1.03941894
| 22> H   -2.26803420   2.61005324   2.56561605
| 23> H   -5.76781539   0.22147223   2.08270640
| 24> H   -4.68184384   2.30837923   2.85202974
| 25> C   -0.70309939   1.34381215   0.75905523
| 26> C    0.44210226   0.55347226   1.38835353
| 27> H   -0.53237673   2.41574906   0.91489370
| 28> H   -0.73131247   1.27931327  -0.33026848
| 29> C    1.69773038   0.62282885   0.55935832
| 30> H    0.15970954  -0.49219106   1.53495770
| 31> H    0.62426171   0.93783156   2.39799344
| 32> C    1.86244256  -0.16214244  -0.59272647
| 33> C    3.00392227   0.03284774  -1.36615557
| 34> C    3.94657581   1.00010204  -1.03691893
| 35> C    2.75072269   1.42963647   0.98952061
| 36> C    3.80131817   1.73095865   0.13313817
| 37> H    3.16449110  -0.56392319  -2.25505481
| 38> H    4.78893218   1.18153880  -1.69460336
| 39> H    2.63992822   1.98028750   1.91882731
| 40> H    4.49003378   2.53381547   0.36766493
| 41> Pd   0.54704916  -1.52793005  -1.12254481
| 42> Br  -1.16457769  -3.61295562  -1.61014446
| 43> P    1.19895452  -2.96256174   0.35815019
| 44> H    0.29514486  -3.35243235   1.35548917
| 45> C    0.70379007  -0.91897306  -3.97612514
| 46> O    1.66274968  -1.64854329  -4.13640407
| 47> O   -0.21384430  -0.91976635  -3.10128559
| 48> O    0.34616130   0.00262058  -4.90933076
| 49> H    2.31021861  -2.67122028   1.17134913
| 50> H    1.63993424  -4.22078252  -0.07826991
| 51> H    1.06127138  -0.00308959  -5.55105969
| 52> *
| 53>
| 54>                          ****END OF INPUT****

CARTESIAN COORDINATES (ANGSTROEM)
---------------------------------
  C     -2.650748   -0.302323    0.884542
  C     -2.041937    0.900412    1.273342
  C     -3.946342   -0.593671    1.309253
  C     -4.721998    0.409470    1.873466
  C     -4.106808    1.569718    2.307909
  C     -2.737812    1.722614    2.155541
  H     -2.436190   -1.310682   -0.431662
  H     -4.432697   -1.523743    1.039419
  H     -2.268034    2.610053    2.565616
  H     -5.767815    0.221472    2.082706
  H     -4.681844    2.308379    2.852030
  C     -0.703099    1.343812    0.759055
  C      0.442102    0.553472    1.388354
  H     -0.532377    2.415749    0.914894
  H     -0.731312    1.279313   -0.330268
  C      1.697730    0.622829    0.559358
  H      0.159710   -0.492191    1.534958
  H      0.624262    0.937832    2.397993
  C      1.862443   -0.162142   -0.592726
  C      3.003922    0.032848   -1.366156
  C      3.946576    1.000102   -1.036919
  C      2.750723    1.429636    0.989521
  C      3.801318    1.730959    0.133138
  H      3.164491   -0.563923   -2.255055
  H      4.788932    1.181539   -1.694603
  H      2.639928    1.980287    1.918827
  H      4.490034    2.533815    0.367665
  Pd     0.547049   -1.527930   -1.122545
  Br    -1.164578   -3.612956   -1.610144
  P      1.198955   -2.962562    0.358150
  H      0.295145   -3.352432    1.355489
  C      0.703790   -0.918973   -3.976125
  O      1.662750   -1.648543   -4.136404
  O     -0.213844   -0.919766   -3.101286
  O      0.346161    0.002621   -4.909331
  H      2.310219   -2.671220    1.171349
  H      1.639934   -4.220783   -0.078270
  H      1.061271   -0.003090   -5.551060

 Total Charge           Charge          ....   -1
 Multiplicity           Mult            ....    1
 Number of Electrons    NEL             ....  200
 Basis Dimension        Dim             ....  385

ORBITAL ENERGIES
----------------

  NO   OCC          E(Eh)            E(eV)
   0   2.0000    -484.319235    -13178.9964
   1   2.0000     -77.677795     -2113.7203
   2   2.0000     -62.980697     -1713.7919
   3   2.0000     -56.684268     -1542.4573
   4   2.0000     -56.683426     -1542.4344
   5   2.0000     -56.683309     -1542.4313
   6   2.0000     -19.367515      -527.0169
   7   2.0000     -19.309130      -525.4281
   8   2.0000     -19.300398      -525.1905
   9   2.0000     -10.431403      -283.8529
  10   2.0000     -10.381301      -282.4896
  11   2.0000     -10.367417      -282.1118
  12   2.0000     -10.359617      -281.8995
  13   2.0000     -10.358031      -281.8564
  14   2.0000     -10.356098      -281.8038
  15   2.0000     -10.355210      -281.7796
  16   2.0000     -10.344278      -281.4821
  17   2.0000     -10.342684      -281.4387
  18   2.0000     -10.341463      -281.4055
  19   2.0000     -10.341005      -281.3930
  20   2.0000     -10.339943      -281.3642
  21   2.0000     -10.338806      -281.3332
  22   2.0000     -10.337458      -281.2965
  23   2.0000     -10.326526      -280.9991
  24   2.0000      -8.807796      -239.6723
  25   2.0000      -6.752600      -183.7476
  26   2.0000      -6.577036      -178.9703
  27   2.0000      -6.572867      -178.8568
  28   2.0000      -6.572041      -178.8343
  29   2.0000      -4.843673      -131.8030
  30   2.0000      -4.843434      -131.7965
  31   2.0000      -4.842071      -131.7595
  32   2.0000      -3.529978       -96.0556
  33   2.0000      -2.591136       -70.5084
  34   2.0000      -2.590188       -70.4826
  35   2.0000      -2.589440       -70.4622
  36   2.0000      -2.585866       -70.3650
  37   2.0000      -2.585819       -70.3637
  38   2.0000      -2.176705       -59.2311
  39   2.0000      -2.172672       -59.1214
  40   2.0000      -2.144126       -58.3446
  41   2.0000      -1.068892       -29.0860
  42   2.0000      -0.951750       -25.8984
  43   2.0000      -0.922870       -25.1126
  44   2.0000      -0.869872       -23.6704
  45   2.0000      -0.848160       -23.0796
  46   2.0000      -0.794423       -21.6173
  47   2.0000      -0.750650       -20.4262
  48   2.0000      -0.738359       -20.0918
  49   2.0000      -0.720107       -19.5951
  50   2.0000      -0.693747       -18.8778
  51   2.0000      -0.654460       -17.8088
  52   2.0000      -0.624949       -17.0057
  53   2.0000      -0.621675       -16.9166
  54   2.0000      -0.583504       -15.8779
  55   2.0000      -0.566153       -15.4058
  56   2.0000      -0.558508       -15.1978
  57   2.0000      -0.539861       -14.6904
  58   2.0000      -0.517961       -14.0944
  59   2.0000      -0.481836       -13.1114
  60   2.0000      -0.464086       -12.6284
  61   2.0000      -0.440248       -11.9798
  62   2.0000      -0.420386       -11.4393
  63   2.0000      -0.415937       -11.3182
  64   2.0000      -0.403667       -10.9843
  65   2.0000      -0.391627       -10.6567
  66   2.0000      -0.385491       -10.4897
  67   2.0000      -0.381273       -10.3750
  68   2.0000      -0.377581       -10.2745
  69   2.0000      -0.375071       -10.2062
  70   2.0000      -0.370704       -10.0874
  71   2.0000      -0.367163        -9.9910
  72   2.0000      -0.363235        -9.8841
  73   2.0000      -0.355793        -9.6816
  74   2.0000      -0.350963        -9.5502
  75   2.0000      -0.333426        -9.0730
  76   2.0000      -0.328285        -8.9331
  77   2.0000      -0.326354        -8.8805
  78   2.0000      -0.313842        -8.5401
  79   2.0000      -0.307024        -8.3545
  80   2.0000      -0.299914        -8.1611
  81   2.0000      -0.290519        -7.9054
  82   2.0000      -0.278237        -7.5712
  83   2.0000      -0.264872        -7.2075
  84   2.0000      -0.257942        -7.0190
  85   2.0000      -0.248567        -6.7638
  86   2.0000      -0.234933        -6.3929
  87   2.0000      -0.222819        -6.0632
  88   2.0000      -0.214518        -5.8373
  89   2.0000      -0.198826        -5.4103
  90   2.0000      -0.192173        -5.2293
  91   2.0000      -0.190295        -5.1782
  92   2.0000      -0.188914        -5.1406
  93   2.0000      -0.177085        -4.8187
  94   2.0000      -0.170403        -4.6369
  95   2.0000      -0.160003        -4.3539
  96   2.0000      -0.157101        -4.2749
  97   2.0000      -0.145631        -3.9628
  98   2.0000      -0.145340        -3.9549
  99   2.0000      -0.138749        -3.7756
 100   0.0000       0.081788         2.2256
 101   0.0000       0.095026         2.5858
 102   0.0000       0.109371         2.9761
 103   0.0000       0.126767         3.4495
 104   0.0000       0.132806         3.6138

MULLIKEN ATOMIC CHARGES
-----------------------
   0 C :   -0.181561
   1 C :    0.050338
   2 C :   -0.219277
   3 C :   -0.224736
   4 C :   -0.221212
   5 C :   -0.254816
   6 H :    0.227496
   7 H :    0.224948
   8 H :    0.195041
   9 H :    0.197034
  10 H :    0.194739
  11 C :   -0.493445
  12 C :   -0.504751
  13 H :    0.215373
  14 H :    0.305157
  15 C :    0.112934
  16 H :    0.253632
  17 H :    0.210236
  18 C :   -0.152264
  19 C :   -0.261581
  20 C :   -0.228133
  21 C :   -0.282793
  22 C :   -0.232533
  23 H :    0.261394
  24 H :    0.188938
  25 H :    0.175581
  26 H :    0.183597
  27 Pd:    0.146738
  28 Br:   -0.502816
  29 P :   -0.130212
  30 H :    0.126095
  31 C :    0.682133
  32 O :   -0.525894
  33 O :   -0.534636
  34 O :   -0.609936
  35 H :    0.081869
  36 H :    0.131834
  37 H :    0.395490
Sum of atomic charges:   -1.0000000

LOEWDIN ATOMIC CHARGES
----------------------
   0 C :   -0.107595
   1 C :   -0.047113
   2 C :   -0.145124
   3 C :   -0.159731
   4 C :   -0.148787
   5 C :   -0.144024
   6 H :    0.208253
   7 H :    0.134794
   8 H :    0.126716
   9 H :    0.125070
  10 H :    0.123887
  11 C :   -0.210215
  12 C :   -0.205763
  13 H :    0.124912
  14 H :    0.170515
  15 C :   -0.042528
  16 H :    0.147114
  17 H :    0.120275
  18 C :   -0.021575
  19 C :   -0.119675
  20 C :   -0.150002
  21 C :   -0.148489
  22 C :   -0.163278
  23 H :    0.163306
  24 H :    0.123213
  25 H :    0.119182
  26 H :    0.119610
  27 Pd:   -0.765547
  28 Br:   -0.323677
  29 P :    0.430846
  30 H :    0.058656
  31 C :    0.108758
  32 O :   -0.322965
  33 O :   -0.237042
  34 O :   -0.334568
  35 H :    0.026623
  36 H :    0.063204
  37 H :    0.302763

  Mayer bond orders larger than 0.100000
B(  0-C ,  1-C ) :   1.4044 B(  0-C ,  2-C ) :   1.3970 B(  0-C ,  6-H ) :   0.8138
B(  1-C ,  5-C ) :   1.3975 B(  1-C , 11-C ) :   0.9631 B(  2-C ,  3-C ) :   1.4268
B(  2-C ,  7-H ) :   0.9175 B(  3-C ,  4-C ) :   1.4220 B(  3-C ,  9-H ) :   0.9235
B(  4-C ,  5-C ) :   1.4389 B(  4-C , 10-H ) :   0.9259 B(  5-C ,  8-H ) :   0.9242
B( 11-C , 12-C ) :   0.9332 B( 11-C , 13-H ) :   0.9241 B( 11-C , 14-H ) :   0.8772
B( 12-C , 15-C ) :   0.9645 B( 12-C , 16-H ) :   0.8914 B( 12-C , 17-H ) :   0.9266
B( 15-C , 18-C ) :   1.3420 B( 15-C , 21-C ) :   1.4139 B( 18-C , 19-C ) :   1.4152
B( 18-C , 27-Pd) :   0.8146 B( 18-C , 28-Br) :   0.1143 B( 19-C , 20-C ) :   1.4006
B( 19-C , 23-H ) :   0.8827 B( 20-C , 22-C ) :   1.4339 B( 20-C , 24-H ) :   0.9267
B( 21-C , 22-C ) :   1.4188 B( 21-C , 25-H ) :   0.9272 B( 22-C , 26-H ) :   0.9291
B( 27-Pd, 28-Br) :   0.4730 B( 27-Pd, 29-P ) :   0.8057 B( 27-Pd, 33-O ) :   0.4850
B( 28-Br, 29-P ) :   0.1272 B( 29-P , 30-H ) :   0.9240 B( 29-P , 35-H ) :   0.9030
B( 29-P , 36-H ) :   0.9285 B( 31-C , 32-O ) :   1.8153 B( 31-C , 33-O ) :   1.3860
B( 31-C , 34-O ) :   1.0581 B( 34-O , 37-H ) :   0.7966

Dispersion correction           -0.031264989
FINAL SINGLE POINT ENERGY     -3847.644737782771
Dispersion correction            ... done

DIPOLE MOMENT
-------------
                                X             Y             Z
Electronic contribution:     27.03909     -76.29511     -48.27315
Nuclear contribution   :    -26.40964      77.24161      51.39480
                        -----------------------------------------
Total Dipole Moment    :      0.62944       0.94649       3.12165
                        -----------------------------------------
Magnitude (a.u.)       :      3.32216
Magnitude (Debye)      :      8.44426

Rotational constants in cm-1:     0.007026     0.005560     0.004047
Rotational constants in MHz :   210.640023   166.696718   121.328183

                             ****ORCA TERMINATED NORMALLY****
TOTAL RUN TIME: 0 days 0 hours 33 minutes 11 seconds 277 msec
