                         Program Version 5.0.3 -  RELEASE  -
|  1> ! EnGrad PBEh-3c
|  2> %output
|  3> xyzfile=True
|  4> end
|  5> %scf
|  6> maxiter 250
|  7> end
|  8> %output
|  9> Print[P_Hirshfeld] = 1
| 10> end
| 11> % maxcore
| 12> 4000
| 13> *xyz -1 1
| 14> C   -2.65495281  -0.37974768   0.74765183
| 15> C   -2.01950113   0.88041963   1.27823290
| 16> C   -3.94594273  -0.57085449   1.26408082
| 17> C   -4.71694806   0.39626315   1.85775028
| 18> C   -4.11618487   1.56897980   2.30717231
| 19> C   -2.76986125   1.74194315   2.13638100
| 20> H   -2.43458505  -1.19663445  -0.35322415
| 21> H   -4.40396285  -1.52376778   1.02284047
| 22> H   -2.28013853   2.60742563   2.57562577
| 23> H   -5.77368384   0.23445369   2.01225567
| 24> H   -4.70033712   2.31579242   2.81073707
| 25> C   -0.69725486   1.35405342   0.78802474
| 26> C    0.47045559   0.54466103   1.40620130
| 27> H   -0.52487936   2.41764426   0.98776740
| 28> H   -0.70812737   1.30211178  -0.29745293
| 29> C    1.72143491   0.60067346   0.59800213
| 30> H    0.15859463  -0.49019714   1.54496132
| 31> H    0.64555450   0.92994560   2.41804987
| 32> C    1.85946198  -0.14372658  -0.58593106
| 33> C    2.99910427   0.03624988  -1.36832289
| 34> C    3.93315758   1.01486261  -1.03841935
| 35> C    2.73843300   1.46024518   0.97329279
| 36> C    3.81528624   1.72044037   0.13645093
| 37> H    3.14476214  -0.55577238  -2.25952801
| 38> H    4.77101897   1.19485149  -1.70816907
| 39> H    2.66625588   1.96345344   1.93435735
| 40> H    4.49679098   2.53064852   0.36938802
| 41> Pd   0.47527693  -1.55612091  -1.19175724
| 42> Br  -1.17144616  -3.61756009  -1.54779694
| 43> P    1.22472588  -2.96649175   0.36872092
| 44> H    0.32887732  -3.36729236   1.35803938
| 45> C    0.60592325  -0.94726324  -3.97083667
| 46> O    1.68673374  -1.64348641  -4.13766423
| 47> O   -0.19413528  -0.99425712  -3.04012663
| 48> O    0.35579310   0.01290066  -4.90997413
| 49> H    2.33865016  -2.67963299   1.15001343
| 50> H    1.64402320  -4.21705039  -0.11191947
| 51> H    1.03256557   0.02533047  -5.52512761
| 52> *
| 53>
| 54>                          ****END OF INPUT****

CARTESIAN COORDINATES (ANGSTROEM)
---------------------------------
  C     -2.654953   -0.379748    0.747652
  C     -2.019501    0.880420    1.278233
  C     -3.945943   -0.570854    1.264081
  C     -4.716948    0.396263    1.857750
  C     -4.116185    1.568980    2.307172
  C     -2.769861    1.741943    2.136381
  H     -2.434585   -1.196634   -0.353224
  H     -4.403963   -1.523768    1.022840
  H     -2.280139    2.607426    2.575626
  H     -5.773684    0.234454    2.012256
  H     -4.700337    2.315792    2.810737
  C     -0.697255    1.354053    0.788025
  C      0.470456    0.544661    1.406201
  H     -0.524879    2.417644    0.987767
  H     -0.708127    1.302112   -0.297453
  C      1.721435    0.600673    0.598002
  H      0.158595   -0.490197    1.544961
  H      0.645555    0.929946    2.418050
  C      1.859462   -0.143727   -0.585931
  C      2.999104    0.036250   -1.368323
  C      3.933158    1.014863   -1.038419
  C      2.738433    1.460245    0.973293
  C      3.815286    1.720440    0.136451
  H      3.144762   -0.555772   -2.259528
  H      4.771019    1.194851   -1.708169
  H      2.666256    1.963453    1.934357
  H      4.496791    2.530649    0.369388
  Pd     0.475277   -1.556121   -1.191757
  Br    -1.171446   -3.617560   -1.547797
  P      1.224726   -2.966492    0.368721
  H      0.328877   -3.367292    1.358039
  C      0.605923   -0.947263   -3.970837
  O      1.686734   -1.643486   -4.137664
  O     -0.194135   -0.994257   -3.040127
  O      0.355793    0.012901   -4.909974
  H      2.338650   -2.679633    1.150013
  H      1.644023   -4.217050   -0.111919
  H      1.032566    0.025330   -5.525128

 Total Charge           Charge          ....   -1
 Multiplicity           Mult            ....    1
 Number of Electrons    NEL             ....  200
 Basis Dimension        Dim             ....  385

ORBITAL ENERGIES
----------------

  NO   OCC          E(Eh)            E(eV)
   0   2.0000    -484.321308    -13179.0528
   1   2.0000     -77.676179     -2113.6763
   2   2.0000     -62.982908     -1713.8521
   3   2.0000     -56.686545     -1542.5193
   4   2.0000     -56.685573     -1542.4929
   5   2.0000     -56.685517     -1542.4913
   6   2.0000     -19.372185      -527.1440
   7   2.0000     -19.333625      -526.0947
   8   2.0000     -19.285829      -524.7941
   9   2.0000     -10.443768      -284.1894
  10   2.0000     -10.382593      -282.5247
  11   2.0000     -10.378977      -282.4263
  12   2.0000     -10.359363      -281.8926
  13   2.0000     -10.358236      -281.8619
  14   2.0000     -10.355205      -281.7794
  15   2.0000     -10.352851      -281.7154
  16   2.0000     -10.341241      -281.3995
  17   2.0000     -10.339954      -281.3645
  18   2.0000     -10.339633      -281.3557
  19   2.0000     -10.337662      -281.3021
  20   2.0000     -10.336426      -281.2684
  21   2.0000     -10.336150      -281.2609
  22   2.0000     -10.334267      -281.2097
  23   2.0000     -10.322449      -280.8881
  24   2.0000      -8.810142      -239.7362
  25   2.0000      -6.751379      -183.7144
  26   2.0000      -6.579522      -179.0379
  27   2.0000      -6.574999      -178.9148
  28   2.0000      -6.574524      -178.9019
  29   2.0000      -4.842484      -131.7707
  30   2.0000      -4.842270      -131.7649
  31   2.0000      -4.840626      -131.7201
  32   2.0000      -3.522497       -95.8520
  33   2.0000      -2.593574       -70.5747
  34   2.0000      -2.592471       -70.5447
  35   2.0000      -2.592007       -70.5321
  36   2.0000      -2.588139       -70.4268
  37   2.0000      -2.588112       -70.4261
  38   2.0000      -2.168863       -59.0178
  39   2.0000      -2.164827       -58.9079
  40   2.0000      -2.136490       -58.1368
  41   2.0000      -1.072447       -29.1828
  42   2.0000      -0.978264       -26.6199
  43   2.0000      -0.894052       -24.3284
  44   2.0000      -0.860326       -23.4107
  45   2.0000      -0.846477       -23.0338
  46   2.0000      -0.791543       -21.5390
  47   2.0000      -0.747944       -20.3526
  48   2.0000      -0.739369       -20.1192
  49   2.0000      -0.715723       -19.4758
  50   2.0000      -0.687397       -18.7050
  51   2.0000      -0.655896       -17.8478
  52   2.0000      -0.628563       -17.1041
  53   2.0000      -0.623079       -16.9548
  54   2.0000      -0.576089       -15.6762
  55   2.0000      -0.562691       -15.3116
  56   2.0000      -0.557343       -15.1661
  57   2.0000      -0.547989       -14.9115
  58   2.0000      -0.536951       -14.6112
  59   2.0000      -0.482132       -13.1195
  60   2.0000      -0.461271       -12.5518
  61   2.0000      -0.438885       -11.9427
  62   2.0000      -0.421460       -11.4685
  63   2.0000      -0.415170       -11.2974
  64   2.0000      -0.410947       -11.1824
  65   2.0000      -0.398661       -10.8481
  66   2.0000      -0.383661       -10.4400
  67   2.0000      -0.382356       -10.4044
  68   2.0000      -0.378253       -10.2928
  69   2.0000      -0.376965       -10.2577
  70   2.0000      -0.372399       -10.1335
  71   2.0000      -0.366810        -9.9814
  72   2.0000      -0.366222        -9.9654
  73   2.0000      -0.354500        -9.6464
  74   2.0000      -0.347652        -9.4601
  75   2.0000      -0.328479        -8.9384
  76   2.0000      -0.325881        -8.8677
  77   2.0000      -0.322652        -8.7798
  78   2.0000      -0.311912        -8.4876
  79   2.0000      -0.303344        -8.2544
  80   2.0000      -0.296127        -8.0580
  81   2.0000      -0.291883        -7.9425
  82   2.0000      -0.278708        -7.5840
  83   2.0000      -0.273888        -7.4529
  84   2.0000      -0.257663        -7.0114
  85   2.0000      -0.253455        -6.8969
  86   2.0000      -0.244530        -6.6540
  87   2.0000      -0.226212        -6.1555
  88   2.0000      -0.213718        -5.8156
  89   2.0000      -0.200119        -5.4455
  90   2.0000      -0.186659        -5.0792
  91   2.0000      -0.182065        -4.9542
  92   2.0000      -0.181072        -4.9272
  93   2.0000      -0.172966        -4.7066
  94   2.0000      -0.163786        -4.4568
  95   2.0000      -0.161232        -4.3873
  96   2.0000      -0.150497        -4.0952
  97   2.0000      -0.147841        -4.0230
  98   2.0000      -0.144959        -3.9445
  99   2.0000      -0.137954        -3.7539
 100   0.0000       0.085236         2.3194
 101   0.0000       0.095573         2.6007
 102   0.0000       0.109441         2.9780
 103   0.0000       0.130362         3.5473
 104   0.0000       0.134650         3.6640

MULLIKEN ATOMIC CHARGES
-----------------------
   0 C :   -0.244718
   1 C :    0.028955
   2 C :   -0.216364
   3 C :   -0.212084
   4 C :   -0.218796
   5 C :   -0.244718
   6 H :    0.288300
   7 H :    0.216570
   8 H :    0.197397
   9 H :    0.199066
  10 H :    0.196051
  11 C :   -0.494036
  12 C :   -0.505422
  13 H :    0.214625
  14 H :    0.299817
  15 C :    0.122553
  16 H :    0.250902
  17 H :    0.205824
  18 C :   -0.157373
  19 C :   -0.261924
  20 C :   -0.236104
  21 C :   -0.289960
  22 C :   -0.220603
  23 H :    0.270646
  24 H :    0.185770
  25 H :    0.174156
  26 H :    0.180179
  27 Pd:    0.151779
  28 Br:   -0.498851
  29 P :   -0.121811
  30 H :    0.126315
  31 C :    0.704607
  32 O :   -0.598093
  33 O :   -0.509854
  34 O :   -0.622357
  35 H :    0.089274
  36 H :    0.134586
  37 H :    0.415698
Sum of atomic charges:   -1.0000000

LOEWDIN ATOMIC CHARGES
----------------------
   0 C :   -0.127404
   1 C :   -0.027141
   2 C :   -0.142601
   3 C :   -0.162716
   4 C :   -0.147394
   5 C :   -0.153605
   6 H :    0.222588
   7 H :    0.130439
   8 H :    0.127711
   9 H :    0.127031
  10 H :    0.124238
  11 C :   -0.216099
  12 C :   -0.206348
  13 H :    0.124334
  14 H :    0.168512
  15 C :   -0.055217
  16 H :    0.143895
  17 H :    0.119168
  18 C :   -0.025612
  19 C :   -0.123703
  20 C :   -0.148565
  21 C :   -0.147897
  22 C :   -0.166288
  23 H :    0.165677
  24 H :    0.121964
  25 H :    0.118198
  26 H :    0.119604
  27 Pd:   -0.788453
  28 Br:   -0.298905
  29 P :    0.422243
  30 H :    0.058070
  31 C :    0.158805
  32 O :   -0.415514
  33 O :   -0.166885
  34 O :   -0.335987
  35 H :    0.031500
  36 H :    0.065608
  37 H :    0.306747

  Mayer bond orders larger than 0.100000
B(  0-C ,  1-C ) :   1.3641 B(  0-C ,  2-C ) :   1.3996 B(  0-C ,  6-H ) :   0.8456
B(  1-C ,  5-C ) :   1.4102 B(  1-C , 11-C ) :   0.9606 B(  2-C ,  3-C ) :   1.4239
B(  2-C ,  7-H ) :   0.9189 B(  3-C ,  4-C ) :   1.4206 B(  3-C ,  9-H ) :   0.9247
B(  4-C ,  5-C ) :   1.4388 B(  4-C , 10-H ) :   0.9239 B(  5-C ,  8-H ) :   0.9236
B( 11-C , 12-C ) :   0.9274 B( 11-C , 13-H ) :   0.9252 B( 11-C , 14-H ) :   0.8800
B( 12-C , 15-C ) :   0.9671 B( 12-C , 16-H ) :   0.8936 B( 12-C , 17-H ) :   0.9271
B( 15-C , 18-C ) :   1.3435 B( 15-C , 21-C ) :   1.4232 B( 18-C , 19-C ) :   1.4308
B( 18-C , 27-Pd) :   0.7717 B( 18-C , 28-Br) :   0.1138 B( 19-C , 20-C ) :   1.3901
B( 19-C , 23-H ) :   0.8746 B( 20-C , 22-C ) :   1.4408 B( 20-C , 24-H ) :   0.9278
B( 21-C , 22-C ) :   1.4110 B( 21-C , 25-H ) :   0.9272 B( 22-C , 26-H ) :   0.9301
B( 27-Pd, 28-Br) :   0.5239 B( 27-Pd, 29-P ) :   0.7492 B( 27-Pd, 33-O ) :   0.4592
B( 28-Br, 29-P ) :   0.1148 B( 29-P , 30-H ) :   0.9270 B( 29-P , 35-H ) :   0.9066
B( 29-P , 36-H ) :   0.9326 B( 31-C , 32-O ) :   1.7032 B( 31-C , 33-O ) :   1.4532
B( 31-C , 34-O ) :   1.0611 B( 34-O , 37-H ) :   0.7815

Dispersion correction           -0.030542123
FINAL SINGLE POINT ENERGY     -3847.682819851539
Dispersion correction            ... done

DIPOLE MOMENT
-------------
                                X             Y             Z
Electronic contribution:     22.84446     -77.71398     -52.09407
Nuclear contribution   :    -22.49509      78.65377      55.12572
                        -----------------------------------------
Total Dipole Moment    :      0.34937       0.93979       3.03165
                        -----------------------------------------
Magnitude (a.u.)       :      3.19315
Magnitude (Debye)      :      8.11634

Rotational constants in cm-1:     0.007009     0.005588     0.004059
Rotational constants in MHz :   210.127383   167.536457   121.681911

                             ****ORCA TERMINATED NORMALLY****
TOTAL RUN TIME: 0 days 0 hours 36 minutes 0 seconds 473 msec
