                         Program Version 5.0.3 -  RELEASE  -
|  1> ! EnGrad PBEh-3c
|  2> %output
|  3> xyzfile=True
|  4> end
|  5> %scf
|  6> maxiter 250
|  7> end
|  8> %output
|  9> Print[P_Hirshfeld] = 1
| 10> end
| 11> % maxcore
| 12> 4000
| 13> *xyz -1 1
| 14> C   -2.65236738  -0.38902169   0.70592300
| 15> C   -2.02334064   0.86574200   1.27433681
| 16> C   -3.94197636  -0.57221253   1.23840446
| 17> C   -4.71432413   0.39797403   1.85289696
| 18> C   -4.12455325   1.56496596   2.30294205
| 19> C   -2.77183096   1.74146100   2.12425001
| 20> H   -2.43422704  -1.14934854  -0.31872913
| 21> H   -4.39455993  -1.52317872   1.01504150
| 22> H   -2.28589779   2.60653948   2.57829139
| 23> H   -5.77593710   0.23820208   1.98367335
| 24> H   -4.70945734   2.31995679   2.79467316
| 25> C   -0.68941504   1.35690603   0.80242421
| 26> C    0.47830896   0.54212874   1.41562924
| 27> H   -0.52202475   2.41815967   1.01850072
| 28> H   -0.69801865   1.31249117  -0.28419306
| 29> C    1.72908173   0.59317727   0.60764830
| 30> H    0.15850834  -0.49024616   1.54950834
| 31> H    0.65466135   0.92600040   2.42655641
| 32> C    1.85456061  -0.14167611  -0.58693815
| 33> C    2.99488030   0.03962175  -1.36745161
| 34> C    3.93008639   1.01800770  -1.04213704
| 35> C    2.73766577   1.47027079   0.97140968
| 36> C    3.81852981   1.72001538   0.13876615
| 37> H    3.13616492  -0.55235234  -2.26213177
| 38> H    4.76306734   1.20036460  -1.71318443
| 39> H    2.67689196   1.95742757   1.94001795
| 40> H    4.49983622   2.52900250   0.36995822
| 41> Pd   0.45709686  -1.56995281  -1.20403909
| 42> Br  -1.17556077  -3.61969905  -1.52254851
| 43> P    1.23077448  -2.96547843   0.36610375
| 44> H    0.34296135  -3.37405933   1.36016401
| 45> C    0.61148028  -0.97097230  -3.98095439
| 46> O    1.67156212  -1.62907316  -4.13612587
| 47> O   -0.20112519  -1.01840683  -3.02101770
| 48> O    0.33616931   0.01520953  -4.89111994
| 49> H    2.35239508  -2.68243543   1.14178375
| 50> H    1.64576386  -4.21522699  -0.12570095
| 51> H    1.03475472   0.03462393  -5.52315854
| 52> *
| 53>
| 54>                          ****END OF INPUT****

CARTESIAN COORDINATES (ANGSTROEM)
---------------------------------
  C     -2.652367   -0.389022    0.705923
  C     -2.023341    0.865742    1.274337
  C     -3.941976   -0.572213    1.238404
  C     -4.714324    0.397974    1.852897
  C     -4.124553    1.564966    2.302942
  C     -2.771831    1.741461    2.124250
  H     -2.434227   -1.149349   -0.318729
  H     -4.394560   -1.523179    1.015041
  H     -2.285898    2.606539    2.578291
  H     -5.775937    0.238202    1.983673
  H     -4.709457    2.319957    2.794673
  C     -0.689415    1.356906    0.802424
  C      0.478309    0.542129    1.415629
  H     -0.522025    2.418160    1.018501
  H     -0.698019    1.312491   -0.284193
  C      1.729082    0.593177    0.607648
  H      0.158508   -0.490246    1.549508
  H      0.654661    0.926000    2.426556
  C      1.854561   -0.141676   -0.586938
  C      2.994880    0.039622   -1.367452
  C      3.930086    1.018008   -1.042137
  C      2.737666    1.470271    0.971410
  C      3.818530    1.720015    0.138766
  H      3.136165   -0.552352   -2.262132
  H      4.763067    1.200365   -1.713184
  H      2.676892    1.957428    1.940018
  H      4.499836    2.529002    0.369958
  Pd     0.457097   -1.569953   -1.204039
  Br    -1.175561   -3.619699   -1.522549
  P      1.230774   -2.965478    0.366104
  H      0.342961   -3.374059    1.360164
  C      0.611480   -0.970972   -3.980954
  O      1.671562   -1.629073   -4.136126
  O     -0.201125   -1.018407   -3.021018
  O      0.336169    0.015210   -4.891120
  H      2.352395   -2.682435    1.141784
  H      1.645764   -4.215227   -0.125701
  H      1.034755    0.034624   -5.523159

 Total Charge           Charge          ....   -1
 Multiplicity           Mult            ....    1
 Number of Electrons    NEL             ....  200
 Basis Dimension        Dim             ....  385

ORBITAL ENERGIES
----------------

  NO   OCC          E(Eh)            E(eV)
   0   2.0000    -484.320655    -13179.0350
   1   2.0000     -77.673956     -2113.6158
   2   2.0000     -62.982305     -1713.8356
   3   2.0000     -56.685953     -1542.5032
   4   2.0000     -56.684963     -1542.4763
   5   2.0000     -56.684907     -1542.4747
   6   2.0000     -19.376985      -527.2746
   7   2.0000     -19.330178      -526.0009
   8   2.0000     -19.296972      -525.0973
   9   2.0000     -10.446259      -284.2571
  10   2.0000     -10.379342      -282.4363
  11   2.0000     -10.378084      -282.4020
  12   2.0000     -10.359319      -281.8914
  13   2.0000     -10.357362      -281.8381
  14   2.0000     -10.354632      -281.7639
  15   2.0000     -10.352606      -281.7087
  16   2.0000     -10.339829      -281.3610
  17   2.0000     -10.338357      -281.3210
  18   2.0000     -10.337552      -281.2991
  19   2.0000     -10.336128      -281.2604
  20   2.0000     -10.335080      -281.2318
  21   2.0000     -10.334233      -281.2088
  22   2.0000     -10.333142      -281.1791
  23   2.0000     -10.321450      -280.8609
  24   2.0000      -8.809582      -239.7209
  25   2.0000      -6.749085      -183.6520
  26   2.0000      -6.579009      -179.0239
  27   2.0000      -6.574385      -178.8981
  28   2.0000      -6.573985      -178.8872
  29   2.0000      -4.840182      -131.7081
  30   2.0000      -4.839979      -131.7025
  31   2.0000      -4.838301      -131.6569
  32   2.0000      -3.520051       -95.7855
  33   2.0000      -2.593050       -70.5605
  34   2.0000      -2.591901       -70.5292
  35   2.0000      -2.591507       -70.5185
  36   2.0000      -2.587550       -70.4108
  37   2.0000      -2.587523       -70.4101
  38   2.0000      -2.166769       -58.9608
  39   2.0000      -2.161740       -58.8239
  40   2.0000      -2.133983       -58.0686
  41   2.0000      -1.070057       -29.1177
  42   2.0000      -0.966807       -26.3082
  43   2.0000      -0.916393       -24.9363
  44   2.0000      -0.857538       -23.3348
  45   2.0000      -0.844309       -22.9748
  46   2.0000      -0.788739       -21.4627
  47   2.0000      -0.744972       -20.2717
  48   2.0000      -0.739052       -20.1106
  49   2.0000      -0.714273       -19.4363
  50   2.0000      -0.685452       -18.6521
  51   2.0000      -0.654079       -17.7984
  52   2.0000      -0.627977       -17.0881
  53   2.0000      -0.621036       -16.8992
  54   2.0000      -0.576034       -15.6747
  55   2.0000      -0.560664       -15.2564
  56   2.0000      -0.556054       -15.1310
  57   2.0000      -0.541372       -14.7315
  58   2.0000      -0.535399       -14.5689
  59   2.0000      -0.480936       -13.0869
  60   2.0000      -0.459762       -12.5108
  61   2.0000      -0.437181       -11.8963
  62   2.0000      -0.422520       -11.4973
  63   2.0000      -0.412758       -11.2317
  64   2.0000      -0.409126       -11.1329
  65   2.0000      -0.397873       -10.8267
  66   2.0000      -0.387681       -10.5493
  67   2.0000      -0.382996       -10.4218
  68   2.0000      -0.377047       -10.2600
  69   2.0000      -0.375112       -10.2073
  70   2.0000      -0.371582       -10.1113
  71   2.0000      -0.367168        -9.9912
  72   2.0000      -0.364052        -9.9063
  73   2.0000      -0.353465        -9.6183
  74   2.0000      -0.346784        -9.4365
  75   2.0000      -0.329804        -8.9744
  76   2.0000      -0.326627        -8.8880
  77   2.0000      -0.322262        -8.7692
  78   2.0000      -0.311188        -8.4679
  79   2.0000      -0.302143        -8.2217
  80   2.0000      -0.298310        -8.1174
  81   2.0000      -0.289785        -7.8854
  82   2.0000      -0.278328        -7.5737
  83   2.0000      -0.271465        -7.3869
  84   2.0000      -0.256918        -6.9911
  85   2.0000      -0.255782        -6.9602
  86   2.0000      -0.244312        -6.6481
  87   2.0000      -0.223869        -6.0918
  88   2.0000      -0.211793        -5.7632
  89   2.0000      -0.197569        -5.3761
  90   2.0000      -0.189722        -5.1626
  91   2.0000      -0.183357        -4.9894
  92   2.0000      -0.180654        -4.9158
  93   2.0000      -0.173510        -4.7214
  94   2.0000      -0.166734        -4.5370
  95   2.0000      -0.161066        -4.3828
  96   2.0000      -0.154321        -4.1993
  97   2.0000      -0.146965        -3.9991
  98   2.0000      -0.144730        -3.9383
  99   2.0000      -0.136846        -3.7238
 100   0.0000       0.088879         2.4185
 101   0.0000       0.096825         2.6347
 102   0.0000       0.109506         2.9798
 103   0.0000       0.131482         3.5778
 104   0.0000       0.135831         3.6961

MULLIKEN ATOMIC CHARGES
-----------------------
   0 C :   -0.252907
   1 C :    0.028839
   2 C :   -0.221763
   3 C :   -0.212984
   4 C :   -0.216529
   5 C :   -0.245856
   6 H :    0.302472
   7 H :    0.216987
   8 H :    0.198107
   9 H :    0.198551
  10 H :    0.195884
  11 C :   -0.492711
  12 C :   -0.504248
  13 H :    0.213439
  14 H :    0.298324
  15 C :    0.109793
  16 H :    0.250318
  17 H :    0.204173
  18 C :   -0.147392
  19 C :   -0.265872
  20 C :   -0.234061
  21 C :   -0.282878
  22 C :   -0.223868
  23 H :    0.266135
  24 H :    0.184906
  25 H :    0.173719
  26 H :    0.179056
  27 Pd:    0.150544
  28 Br:   -0.495894
  29 P :   -0.123844
  30 H :    0.124672
  31 C :    0.711781
  32 O :   -0.558933
  33 O :   -0.540530
  34 O :   -0.621756
  35 H :    0.088417
  36 H :    0.132905
  37 H :    0.413004
Sum of atomic charges:   -1.0000000

LOEWDIN ATOMIC CHARGES
----------------------
   0 C :   -0.126743
   1 C :   -0.023431
   2 C :   -0.139412
   3 C :   -0.163585
   4 C :   -0.148041
   5 C :   -0.155157
   6 H :    0.218983
   7 H :    0.129901
   8 H :    0.128012
   9 H :    0.126953
  10 H :    0.124097
  11 C :   -0.216307
  12 C :   -0.207877
  13 H :    0.123610
  14 H :    0.167859
  15 C :   -0.056433
  16 H :    0.143123
  17 H :    0.118644
  18 C :   -0.028805
  19 C :   -0.125653
  20 C :   -0.149559
  21 C :   -0.148679
  22 C :   -0.167119
  23 H :    0.162989
  24 H :    0.121435
  25 H :    0.118108
  26 H :    0.119161
  27 Pd:   -0.798626
  28 Br:   -0.290116
  29 P :    0.418463
  30 H :    0.056782
  31 C :    0.157788
  32 O :   -0.366791
  33 O :   -0.191232
  34 O :   -0.338577
  35 H :    0.030979
  36 H :    0.064665
  37 H :    0.310590

  Mayer bond orders larger than 0.100000
B(  0-C ,  1-C ) :   1.3493 B(  0-C ,  2-C ) :   1.4160 B(  0-C ,  6-H ) :   0.8509
B(  1-C ,  5-C ) :   1.4211 B(  1-C , 11-C ) :   0.9584 B(  2-C ,  3-C ) :   1.4098
B(  2-C ,  7-H ) :   0.9186 B(  3-C ,  4-C ) :   1.4361 B(  3-C ,  9-H ) :   0.9254
B(  4-C ,  5-C ) :   1.4243 B(  4-C , 10-H ) :   0.9237 B(  5-C ,  8-H ) :   0.9236
B( 11-C , 12-C ) :   0.9264 B( 11-C , 13-H ) :   0.9257 B( 11-C , 14-H ) :   0.8810
B( 12-C , 15-C ) :   0.9705 B( 12-C , 16-H ) :   0.8941 B( 12-C , 17-H ) :   0.9272
B( 15-C , 18-C ) :   1.3442 B( 15-C , 21-C ) :   1.4213 B( 18-C , 19-C ) :   1.4299
B( 18-C , 27-Pd) :   0.7601 B( 18-C , 28-Br) :   0.1124 B( 19-C , 20-C ) :   1.3926
B( 19-C , 23-H ) :   0.8790 B( 20-C , 22-C ) :   1.4393 B( 20-C , 24-H ) :   0.9279
B( 21-C , 22-C ) :   1.4133 B( 21-C , 25-H ) :   0.9270 B( 22-C , 26-H ) :   0.9301
B( 27-Pd, 28-Br) :   0.5390 B( 27-Pd, 29-P ) :   0.7369 B( 27-Pd, 33-O ) :   0.4863
B( 28-Br, 29-P ) :   0.1122 B( 29-P , 30-H ) :   0.9268 B( 29-P , 35-H ) :   0.9067
B( 29-P , 36-H ) :   0.9329 B( 31-C , 32-O ) :   1.7641 B( 31-C , 33-O ) :   1.3908
B( 31-C , 34-O ) :   1.0590 B( 34-O , 37-H ) :   0.7831

Dispersion correction           -0.030412379
FINAL SINGLE POINT ENERGY     -3847.702628914333
Dispersion correction            ... done

DIPOLE MOMENT
-------------
                                X             Y             Z
Electronic contribution:     21.96446     -78.50284     -52.95701
Nuclear contribution   :    -21.54599      79.36964      55.78515
                        -----------------------------------------
Total Dipole Moment    :      0.41847       0.86680       2.82814
                        -----------------------------------------
Magnitude (a.u.)       :      2.98745
Magnitude (Debye)      :      7.59349

Rotational constants in cm-1:     0.007003     0.005607     0.004067
Rotational constants in MHz :   209.946447   168.096653   121.936023

                             ****ORCA TERMINATED NORMALLY****
TOTAL RUN TIME: 0 days 0 hours 35 minutes 11 seconds 855 msec
