                         Program Version 5.0.3 -  RELEASE  -
|  1> ! EnGrad PBEh-3c
|  2> %output
|  3> xyzfile=True
|  4> end
|  5> %scf
|  6> maxiter 250
|  7> end
|  8> %output
|  9> Print[P_Hirshfeld] = 1
| 10> end
| 11> % maxcore
| 12> 4000
| 13> *xyz -1 1
| 14> C   -2.65023381  -0.38746082   0.66541392
| 15> C   -2.03129341   0.84816626   1.26509677
| 16> C   -3.93505241  -0.57467942   1.20384867
| 17> C   -4.71056125   0.39841569   1.84444732
| 18> C   -4.13374513   1.56050203   2.29544225
| 19> C   -2.77139615   1.73544983   2.10759136
| 20> H   -2.43263376  -1.09072243  -0.27593010
| 21> H   -4.38507044  -1.52406566   1.00333299
| 22> H   -2.29366484   2.60458921   2.57971254
| 23> H   -5.77813767   0.24191317   1.94771248
| 24> H   -4.72177655   2.32547310   2.77450317
| 25> C   -0.67837849   1.35841021   0.82192302
| 26> C    0.48629859   0.53921197   1.42858885
| 27> H   -0.51876273   2.41840670   1.05842027
| 28> H   -0.68428380   1.32652914  -0.26694847
| 29> C    1.73729251   0.58531235   0.61561878
| 30> H    0.15867274  -0.49100885   1.55572055
| 31> H    0.66664392   0.92046908   2.43797842
| 32> C    1.84611012  -0.14217780  -0.58937850
| 33> C    2.98829475   0.04461549  -1.36667691
| 34> C    3.92672800   1.02086282  -1.04671214
| 35> C    2.73889772   1.47973607   0.97155051
| 36> C    3.82111817   1.72134771   0.14066309
| 37> H    3.12492648  -0.54743985  -2.26524565
| 38> H    4.75318071   1.20739357  -1.71972262
| 39> H    2.69015656   1.95075387   1.94704887
| 40> H    4.50422615   2.52695198   0.37069763
| 41> Pd   0.44121139  -1.58866848  -1.20922328
| 42> Br  -1.18179552  -3.62276085  -1.49060420
| 43> P    1.23626890  -2.96326758   0.35966995
| 44> H    0.36129223  -3.38313434   1.36342303
| 45> C    0.61966415  -0.99652907  -3.98551495
| 46> O    1.65150033  -1.61342372  -4.13631343
| 47> O   -0.20970150  -1.04581625  -3.01107083
| 48> O    0.31239443   0.01511216  -4.86848900
| 49> H    2.37062403  -2.68570306   1.13102540
| 50> H    1.64788076  -4.21245419  -0.14316115
| 51> H    1.03277041   0.04623406  -5.51537964
| 52> *
| 53>
| 54>                          ****END OF INPUT****

CARTESIAN COORDINATES (ANGSTROEM)
---------------------------------
  C     -2.650234   -0.387461    0.665414
  C     -2.031293    0.848166    1.265097
  C     -3.935052   -0.574679    1.203849
  C     -4.710561    0.398416    1.844447
  C     -4.133745    1.560502    2.295442
  C     -2.771396    1.735450    2.107591
  H     -2.432634   -1.090722   -0.275930
  H     -4.385070   -1.524066    1.003333
  H     -2.293665    2.604589    2.579713
  H     -5.778138    0.241913    1.947712
  H     -4.721777    2.325473    2.774503
  C     -0.678378    1.358410    0.821923
  C      0.486299    0.539212    1.428589
  H     -0.518763    2.418407    1.058420
  H     -0.684284    1.326529   -0.266948
  C      1.737293    0.585312    0.615619
  H      0.158673   -0.491009    1.555721
  H      0.666644    0.920469    2.437978
  C      1.846110   -0.142178   -0.589379
  C      2.988295    0.044615   -1.366677
  C      3.926728    1.020863   -1.046712
  C      2.738898    1.479736    0.971551
  C      3.821118    1.721348    0.140663
  H      3.124926   -0.547440   -2.265246
  H      4.753181    1.207394   -1.719723
  H      2.690157    1.950754    1.947049
  H      4.504226    2.526952    0.370698
  Pd     0.441211   -1.588668   -1.209223
  Br    -1.181796   -3.622761   -1.490604
  P      1.236269   -2.963268    0.359670
  H      0.361292   -3.383134    1.363423
  C      0.619664   -0.996529   -3.985515
  O      1.651500   -1.613424   -4.136313
  O     -0.209702   -1.045816   -3.011071
  O      0.312394    0.015112   -4.868489
  H      2.370624   -2.685703    1.131025
  H      1.647881   -4.212454   -0.143161
  H      1.032770    0.046234   -5.515380

 Total Charge           Charge          ....   -1
 Multiplicity           Mult            ....    1
 Number of Electrons    NEL             ....  200
 Basis Dimension        Dim             ....  385

ORBITAL ENERGIES
----------------

  NO   OCC          E(Eh)            E(eV)
   0   2.0000    -484.320913    -13179.0420
   1   2.0000     -77.672797     -2113.5842
   2   2.0000     -62.982618     -1713.8442
   3   2.0000     -56.686280     -1542.5121
   4   2.0000     -56.685274     -1542.4847
   5   2.0000     -56.685207     -1542.4829
   6   2.0000     -19.377421      -527.2864
   7   2.0000     -19.325413      -525.8712
   8   2.0000     -19.307127      -525.3736
   9   2.0000     -10.445466      -284.2356
  10   2.0000     -10.378651      -282.4175
  11   2.0000     -10.370889      -282.2062
  12   2.0000     -10.359538      -281.8974
  13   2.0000     -10.356946      -281.8268
  14   2.0000     -10.354481      -281.7598
  15   2.0000     -10.352690      -281.7110
  16   2.0000     -10.339029      -281.3393
  17   2.0000     -10.337762      -281.3048
  18   2.0000     -10.335700      -281.2487
  19   2.0000     -10.335185      -281.2347
  20   2.0000     -10.334317      -281.2111
  21   2.0000     -10.333087      -281.1776
  22   2.0000     -10.332481      -281.1611
  23   2.0000     -10.321077      -280.8508
  24   2.0000      -8.809941      -239.7307
  25   2.0000      -6.747681      -183.6137
  26   2.0000      -6.579438      -179.0356
  27   2.0000      -6.574686      -178.9063
  28   2.0000      -6.574342      -178.8969
  29   2.0000      -4.838764      -131.6695
  30   2.0000      -4.838579      -131.6644
  31   2.0000      -4.836906      -131.6189
  32   2.0000      -3.519234       -95.7632
  33   2.0000      -2.593467       -70.5718
  34   2.0000      -2.592269       -70.5392
  35   2.0000      -2.591929       -70.5300
  36   2.0000      -2.587857       -70.4192
  37   2.0000      -2.587829       -70.4184
  38   2.0000      -2.166340       -58.9491
  39   2.0000      -2.160319       -58.7853
  40   2.0000      -2.133156       -58.0461
  41   2.0000      -1.071125       -29.1468
  42   2.0000      -0.961409       -26.1613
  43   2.0000      -0.933458       -25.4007
  44   2.0000      -0.856038       -23.2940
  45   2.0000      -0.842171       -22.9166
  46   2.0000      -0.786107       -21.3911
  47   2.0000      -0.742308       -20.1992
  48   2.0000      -0.740029       -20.1372
  49   2.0000      -0.713388       -19.4123
  50   2.0000      -0.684148       -18.6166
  51   2.0000      -0.652740       -17.7620
  52   2.0000      -0.627904       -17.0861
  53   2.0000      -0.618866       -16.8402
  54   2.0000      -0.577275       -15.7084
  55   2.0000      -0.558988       -15.2108
  56   2.0000      -0.555814       -15.1245
  57   2.0000      -0.534304       -14.5392
  58   2.0000      -0.531353       -14.4588
  59   2.0000      -0.479990       -13.0612
  60   2.0000      -0.458592       -12.4789
  61   2.0000      -0.436603       -11.8806
  62   2.0000      -0.424728       -11.5574
  63   2.0000      -0.410565       -11.1720
  64   2.0000      -0.408148       -11.1063
  65   2.0000      -0.398016       -10.8306
  66   2.0000      -0.391880       -10.6636
  67   2.0000      -0.386571       -10.5191
  68   2.0000      -0.376253       -10.2384
  69   2.0000      -0.372837       -10.1454
  70   2.0000      -0.370301       -10.0764
  71   2.0000      -0.368039       -10.0148
  72   2.0000      -0.361929        -9.8486
  73   2.0000      -0.353435        -9.6175
  74   2.0000      -0.346153        -9.4193
  75   2.0000      -0.332912        -9.0590
  76   2.0000      -0.327405        -8.9091
  77   2.0000      -0.322517        -8.7761
  78   2.0000      -0.311257        -8.4697
  79   2.0000      -0.302235        -8.2242
  80   2.0000      -0.298905        -8.1336
  81   2.0000      -0.287416        -7.8210
  82   2.0000      -0.278302        -7.5730
  83   2.0000      -0.268123        -7.2960
  84   2.0000      -0.259411        -7.0589
  85   2.0000      -0.254618        -6.9285
  86   2.0000      -0.243428        -6.6240
  87   2.0000      -0.223548        -6.0830
  88   2.0000      -0.212235        -5.7752
  89   2.0000      -0.196529        -5.3478
  90   2.0000      -0.193615        -5.2685
  91   2.0000      -0.188958        -5.1418
  92   2.0000      -0.181186        -4.9303
  93   2.0000      -0.173517        -4.7216
  94   2.0000      -0.166819        -4.5394
  95   2.0000      -0.160872        -4.3776
  96   2.0000      -0.157810        -4.2942
  97   2.0000      -0.146467        -3.9856
  98   2.0000      -0.144599        -3.9347
  99   2.0000      -0.135145        -3.6775
 100   0.0000       0.091562         2.4915
 101   0.0000       0.098644         2.6842
 102   0.0000       0.109082         2.9683
 103   0.0000       0.131923         3.5898
 104   0.0000       0.136541         3.7155

MULLIKEN ATOMIC CHARGES
-----------------------
   0 C :   -0.250929
   1 C :    0.030695
   2 C :   -0.229529
   3 C :   -0.215911
   4 C :   -0.214604
   5 C :   -0.247203
   6 H :    0.310747
   7 H :    0.218242
   8 H :    0.198013
   9 H :    0.197617
  10 H :    0.195906
  11 C :   -0.491277
  12 C :   -0.502413
  13 H :    0.212032
  14 H :    0.295990
  15 C :    0.092222
  16 H :    0.249660
  17 H :    0.202940
  18 C :   -0.134776
  19 C :   -0.270976
  20 C :   -0.230317
  21 C :   -0.273220
  22 C :   -0.228916
  23 H :    0.261012
  24 H :    0.184730
  25 H :    0.173759
  26 H :    0.178464
  27 Pd:    0.145602
  28 Br:   -0.489652
  29 P :   -0.124873
  30 H :    0.122772
  31 C :    0.707802
  32 O :   -0.512001
  33 O :   -0.562116
  34 O :   -0.623488
  35 H :    0.086865
  36 H :    0.131317
  37 H :    0.405812
Sum of atomic charges:   -1.0000000

LOEWDIN ATOMIC CHARGES
----------------------
   0 C :   -0.122807
   1 C :   -0.021009
   2 C :   -0.135033
   3 C :   -0.163866
   4 C :   -0.149106
   5 C :   -0.155656
   6 H :    0.209808
   7 H :    0.129883
   8 H :    0.128063
   9 H :    0.126600
  10 H :    0.124061
  11 C :   -0.215721
  12 C :   -0.209958
  13 H :    0.122921
  14 H :    0.166785
  15 C :   -0.056150
  16 H :    0.142364
  17 H :    0.118262
  18 C :   -0.032559
  19 C :   -0.126979
  20 C :   -0.150974
  21 C :   -0.150095
  22 C :   -0.167207
  23 H :    0.160105
  24 H :    0.121239
  25 H :    0.118302
  26 H :    0.118723
  27 Pd:   -0.807899
  28 Br:   -0.278557
  29 P :    0.417861
  30 H :    0.055330
  31 C :    0.143780
  32 O :   -0.309724
  33 O :   -0.210109
  34 O :   -0.345355
  35 H :    0.030113
  36 H :    0.063706
  37 H :    0.310861

  Mayer bond orders larger than 0.100000
B(  0-C ,  1-C ) :   1.3369 B(  0-C ,  2-C ) :   1.4375 B(  0-C ,  6-H ) :   0.8573
B(  1-C ,  5-C ) :   1.4325 B(  1-C , 11-C ) :   0.9553 B(  2-C ,  3-C ) :   1.3942
B(  2-C ,  7-H ) :   0.9179 B(  3-C ,  4-C ) :   1.4539 B(  3-C ,  9-H ) :   0.9260
B(  4-C ,  5-C ) :   1.4075 B(  4-C , 10-H ) :   0.9235 B(  5-C ,  8-H ) :   0.9240
B( 11-C , 12-C ) :   0.9255 B( 11-C , 13-H ) :   0.9265 B( 11-C , 14-H ) :   0.8825
B( 12-C , 15-C ) :   0.9739 B( 12-C , 16-H ) :   0.8948 B( 12-C , 17-H ) :   0.9273
B( 15-C , 18-C ) :   1.3446 B( 15-C , 21-C ) :   1.4176 B( 18-C , 19-C ) :   1.4270
B( 18-C , 27-Pd) :   0.7486 B( 18-C , 28-Br) :   0.1118 B( 19-C , 20-C ) :   1.3963
B( 19-C , 23-H ) :   0.8835 B( 20-C , 22-C ) :   1.4367 B( 20-C , 24-H ) :   0.9279
B( 21-C , 22-C ) :   1.4173 B( 21-C , 25-H ) :   0.9268 B( 22-C , 26-H ) :   0.9300
B( 27-Pd, 28-Br) :   0.5549 B( 27-Pd, 29-P ) :   0.7372 B( 27-Pd, 33-O ) :   0.5093
B( 28-Br, 29-P ) :   0.1109 B( 29-P , 30-H ) :   0.9258 B( 29-P , 35-H ) :   0.9063
B( 29-P , 36-H ) :   0.9324 B( 31-C , 32-O ) :   1.8339 B( 31-C , 33-O ) :   1.3424
B( 31-C , 34-O ) :   1.0485 B( 34-O , 37-H ) :   0.7886

Dispersion correction           -0.030398807
FINAL SINGLE POINT ENERGY     -3847.715924508668
Dispersion correction            ... done

DIPOLE MOMENT
-------------
                                X             Y             Z
Electronic contribution:     21.22033     -79.56419     -53.36072
Nuclear contribution   :    -20.73145      80.34288      56.04330
                        -----------------------------------------
Total Dipole Moment    :      0.48888       0.77869       2.68258
                        -----------------------------------------
Magnitude (a.u.)       :      2.83577
Magnitude (Debye)      :      7.20796

Rotational constants in cm-1:     0.006996     0.005631     0.004079
Rotational constants in MHz :   209.726686   168.804746   122.275938

                             ****ORCA TERMINATED NORMALLY****
TOTAL RUN TIME: 0 days 0 hours 38 minutes 21 seconds 335 msec
