                         Program Version 5.0.3 -  RELEASE  -
|  1> ! EnGrad PBEh-3c
|  2> %output
|  3> xyzfile=True
|  4> end
|  5> %scf
|  6> maxiter 250
|  7> end
|  8> %output
|  9> Print[P_Hirshfeld] = 1
| 10> end
| 11> % maxcore
| 12> 4000
| 13> *xyz -1 1
| 14> C   -2.65282641  -0.35923775   0.60006645
| 15> C   -2.04553745   0.81713631   1.23674495
| 16> C   -3.92098731  -0.57324150   1.12525809
| 17> C   -4.70186874   0.38894401   1.81665794
| 18> C   -4.14756183   1.55388324   2.27479343
| 19> C   -2.77274700   1.71586829   2.06985254
| 20> H   -2.42124920  -0.96232698  -0.18676885
| 21> H   -4.36721375  -1.53105201   0.97052824
| 22> H   -2.31250410   2.59546546   2.57693966
| 23> H   -5.78095329   0.24848217   1.86426340
| 24> H   -4.75062054   2.33730811   2.72673726
| 25> C   -0.65536968   1.35742753   0.86767161
| 26> C    0.50366992   0.53147709   1.45934446
| 27> H   -0.51255690   2.41660773   1.15411913
| 28> H   -0.64906568   1.36074595  -0.22485905
| 29> C    1.75298734   0.57025770   0.62832295
| 30> H    0.15945483  -0.49430580   1.57132451
| 31> H    0.69580707   0.90652172   2.46659805
| 32> C    1.82431493  -0.14705528  -0.59440325
| 33> C    2.97069658   0.05598205  -1.36779365
| 34> C    3.91765891   1.02714816  -1.05384052
| 35> C    2.74373225   1.49413575   0.97377719
| 36> C    3.82495512   1.72618560   0.14107476
| 37> H    3.09799063  -0.53421663  -2.27158176
| 38> H    4.73115043   1.22378160  -1.73612292
| 39> H    2.72046923   1.93737251   1.96364693
| 40> H    4.51617268   2.52239639   0.37274792
| 41> Pd   0.41398895  -1.63350079  -1.20820309
| 42> Br  -1.19809204  -3.63031692  -1.41509047
| 43> P    1.24822067  -2.95853801   0.34381442
| 44> H    0.40569242  -3.40518302   1.37153819
| 45> C    0.60011960  -1.02396955  -3.97686382
| 46> O    1.63880656  -1.60291332  -4.14507168
| 47> O   -0.22707245  -1.10664061  -3.00711786
| 48> O    0.27001754   0.00864323  -4.82690877
| 49> H    2.41284568  -2.69301828   1.10369858
| 50> H    1.65233436  -4.20453879  -0.18410161
| 51> H    1.01202555   0.07395964  -5.48282801
| 52> *
| 53>
| 54>                          ****END OF INPUT****

CARTESIAN COORDINATES (ANGSTROEM)
---------------------------------
  C     -2.652826   -0.359238    0.600066
  C     -2.045537    0.817136    1.236745
  C     -3.920987   -0.573241    1.125258
  C     -4.701869    0.388944    1.816658
  C     -4.147562    1.553883    2.274793
  C     -2.772747    1.715868    2.069853
  H     -2.421249   -0.962327   -0.186769
  H     -4.367214   -1.531052    0.970528
  H     -2.312504    2.595465    2.576940
  H     -5.780953    0.248482    1.864263
  H     -4.750621    2.337308    2.726737
  C     -0.655370    1.357428    0.867672
  C      0.503670    0.531477    1.459344
  H     -0.512557    2.416608    1.154119
  H     -0.649066    1.360746   -0.224859
  C      1.752987    0.570258    0.628323
  H      0.159455   -0.494306    1.571325
  H      0.695807    0.906522    2.466598
  C      1.824315   -0.147055   -0.594403
  C      2.970697    0.055982   -1.367794
  C      3.917659    1.027148   -1.053841
  C      2.743732    1.494136    0.973777
  C      3.824955    1.726186    0.141075
  H      3.097991   -0.534217   -2.271582
  H      4.731150    1.223782   -1.736123
  H      2.720469    1.937373    1.963647
  H      4.516173    2.522396    0.372748
  Pd     0.413989   -1.633501   -1.208203
  Br    -1.198092   -3.630317   -1.415090
  P      1.248221   -2.958538    0.343814
  H      0.405692   -3.405183    1.371538
  C      0.600120   -1.023970   -3.976864
  O      1.638807   -1.602913   -4.145072
  O     -0.227072   -1.106641   -3.007118
  O      0.270018    0.008643   -4.826909
  H      2.412846   -2.693018    1.103699
  H      1.652334   -4.204539   -0.184102
  H      1.012026    0.073960   -5.482828

 Total Charge           Charge          ....   -1
 Multiplicity           Mult            ....    1
 Number of Electrons    NEL             ....  200
 Basis Dimension        Dim             ....  385

ORBITAL ENERGIES
----------------

  NO   OCC          E(Eh)            E(eV)
   0   2.0000    -484.324482    -13179.1392
   1   2.0000     -77.674044     -2113.6182
   2   2.0000     -62.986310     -1713.9446
   3   2.0000     -56.690004     -1542.6134
   4   2.0000     -56.688962     -1542.5851
   5   2.0000     -56.688859     -1542.5823
   6   2.0000     -19.377243      -527.2816
   7   2.0000     -19.324830      -525.8554
   8   2.0000     -19.308197      -525.4028
   9   2.0000     -10.444031      -284.1965
  10   2.0000     -10.376135      -282.3490
  11   2.0000     -10.360365      -281.9199
  12   2.0000     -10.357837      -281.8511
  13   2.0000     -10.355066      -281.7757
  14   2.0000     -10.353448      -281.7316
  15   2.0000     -10.352832      -281.7149
  16   2.0000     -10.339973      -281.3650
  17   2.0000     -10.338946      -281.3370
  18   2.0000     -10.335178      -281.2345
  19   2.0000     -10.334290      -281.2103
  20   2.0000     -10.334280      -281.2100
  21   2.0000     -10.333456      -281.1876
  22   2.0000     -10.332202      -281.1535
  23   2.0000     -10.321008      -280.8489
  24   2.0000      -8.813731      -239.8338
  25   2.0000      -6.748315      -183.6310
  26   2.0000      -6.583413      -179.1438
  27   2.0000      -6.578366      -179.0064
  28   2.0000      -6.578066      -178.9983
  29   2.0000      -4.839378      -131.6862
  30   2.0000      -4.839229      -131.6821
  31   2.0000      -4.837623      -131.6384
  32   2.0000      -3.521582       -95.8271
  33   2.0000      -2.597410       -70.6791
  34   2.0000      -2.596124       -70.6441
  35   2.0000      -2.595832       -70.6362
  36   2.0000      -2.591497       -70.5182
  37   2.0000      -2.591468       -70.5174
  38   2.0000      -2.169624       -59.0385
  39   2.0000      -2.161890       -58.8280
  40   2.0000      -2.135431       -58.1080
  41   2.0000      -1.072165       -29.1751
  42   2.0000      -0.959218       -26.1016
  43   2.0000      -0.937848       -25.5201
  44   2.0000      -0.857672       -23.3384
  45   2.0000      -0.839284       -22.8381
  46   2.0000      -0.783169       -21.3111
  47   2.0000      -0.748158       -20.3584
  48   2.0000      -0.738109       -20.0850
  49   2.0000      -0.712591       -19.3906
  50   2.0000      -0.683078       -18.5875
  51   2.0000      -0.653459       -17.7815
  52   2.0000      -0.629928       -17.1412
  53   2.0000      -0.616969       -16.7886
  54   2.0000      -0.582633       -15.8543
  55   2.0000      -0.558504       -15.1977
  56   2.0000      -0.556648       -15.1472
  57   2.0000      -0.533030       -14.5045
  58   2.0000      -0.525862       -14.3094
  59   2.0000      -0.481731       -13.1086
  60   2.0000      -0.457290       -12.4435
  61   2.0000      -0.442251       -12.0342
  62   2.0000      -0.429193       -11.6789
  63   2.0000      -0.412311       -11.2196
  64   2.0000      -0.410060       -11.1583
  65   2.0000      -0.398674       -10.8485
  66   2.0000      -0.394262       -10.7284
  67   2.0000      -0.391745       -10.6599
  68   2.0000      -0.376445       -10.2436
  69   2.0000      -0.369792       -10.0626
  70   2.0000      -0.368672       -10.0321
  71   2.0000      -0.366002        -9.9594
  72   2.0000      -0.359710        -9.7882
  73   2.0000      -0.354678        -9.6513
  74   2.0000      -0.345471        -9.4008
  75   2.0000      -0.334442        -9.1006
  76   2.0000      -0.328207        -8.9310
  77   2.0000      -0.325203        -8.8492
  78   2.0000      -0.311746        -8.4830
  79   2.0000      -0.303229        -8.2513
  80   2.0000      -0.297053        -8.0832
  81   2.0000      -0.284845        -7.7510
  82   2.0000      -0.278619        -7.5816
  83   2.0000      -0.263555        -7.1717
  84   2.0000      -0.259868        -7.0714
  85   2.0000      -0.255618        -6.9557
  86   2.0000      -0.246235        -6.7004
  87   2.0000      -0.224342        -6.1047
  88   2.0000      -0.215122        -5.8538
  89   2.0000      -0.197658        -5.3785
  90   2.0000      -0.195423        -5.3177
  91   2.0000      -0.190512        -5.1841
  92   2.0000      -0.182102        -4.9553
  93   2.0000      -0.173518        -4.7217
  94   2.0000      -0.167232        -4.5506
  95   2.0000      -0.162418        -4.4196
  96   2.0000      -0.159759        -4.3473
  97   2.0000      -0.148167        -4.0318
  98   2.0000      -0.146216        -3.9787
  99   2.0000      -0.136877        -3.7246
 100   0.0000       0.091720         2.4958
 101   0.0000       0.100890         2.7454
 102   0.0000       0.108339         2.9481
 103   0.0000       0.131392         3.5753
 104   0.0000       0.136435         3.7126

MULLIKEN ATOMIC CHARGES
-----------------------
   0 C :   -0.212923
   1 C :    0.033017
   2 C :   -0.249130
   3 C :   -0.222655
   4 C :   -0.213348
   5 C :   -0.249137
   6 H :    0.304869
   7 H :    0.220532
   8 H :    0.195574
   9 H :    0.195247
  10 H :    0.196672
  11 C :   -0.489645
  12 C :   -0.499270
  13 H :    0.209303
  14 H :    0.290120
  15 C :    0.061046
  16 H :    0.248568
  17 H :    0.201600
  18 C :   -0.116501
  19 C :   -0.280718
  20 C :   -0.223488
  21 C :   -0.257391
  22 C :   -0.236040
  23 H :    0.259359
  24 H :    0.185566
  25 H :    0.174167
  26 H :    0.178526
  27 Pd:    0.137042
  28 Br:   -0.470634
  29 P :   -0.121631
  30 H :    0.119910
  31 C :    0.703807
  32 O :   -0.503596
  33 O :   -0.563888
  34 O :   -0.622017
  35 H :    0.085097
  36 H :    0.130963
  37 H :    0.401027
Sum of atomic charges:   -1.0000000

LOEWDIN ATOMIC CHARGES
----------------------
   0 C :   -0.111853
   1 C :   -0.018891
   2 C :   -0.125257
   3 C :   -0.163578
   4 C :   -0.151556
   5 C :   -0.153750
   6 H :    0.181950
   7 H :    0.131537
   8 H :    0.127132
   9 H :    0.125717
  10 H :    0.124550
  11 C :   -0.213656
  12 C :   -0.213917
  13 H :    0.122185
  14 H :    0.164093
  15 C :   -0.054471
  16 H :    0.141070
  17 H :    0.117946
  18 C :   -0.039730
  19 C :   -0.127661
  20 C :   -0.153469
  21 C :   -0.153461
  22 C :   -0.166076
  23 H :    0.158348
  24 H :    0.121538
  25 H :    0.118855
  26 H :    0.118229
  27 Pd:   -0.818431
  28 Br:   -0.249934
  29 P :    0.424540
  30 H :    0.053146
  31 C :    0.132685
  32 O :   -0.299002
  33 O :   -0.207341
  34 O :   -0.346539
  35 H :    0.029434
  36 H :    0.063554
  37 H :    0.312067

  Mayer bond orders larger than 0.100000
B(  0-C ,  1-C ) :   1.3385 B(  0-C ,  2-C ) :   1.4701 B(  0-C ,  6-H ) :   0.8724
B(  1-C ,  5-C ) :   1.4385 B(  1-C , 11-C ) :   0.9487 B(  2-C ,  3-C ) :   1.3778
B(  2-C ,  7-H ) :   0.9171 B(  3-C ,  4-C ) :   1.4717 B(  3-C ,  9-H ) :   0.9269
B(  4-C ,  5-C ) :   1.3905 B(  4-C , 10-H ) :   0.9233 B(  5-C ,  8-H ) :   0.9257
B( 11-C , 12-C ) :   0.9232 B( 11-C , 13-H ) :   0.9285 B( 11-C , 14-H ) :   0.8860
B( 12-C , 15-C ) :   0.9789 B( 12-C , 16-H ) :   0.8965 B( 12-C , 17-H ) :   0.9278
B( 15-C , 18-C ) :   1.3420 B( 15-C , 21-C ) :   1.4093 B( 18-C , 19-C ) :   1.4224
B( 18-C , 27-Pd) :   0.7262 B( 18-C , 28-Br) :   0.1136 B( 19-C , 20-C ) :   1.3995
B( 19-C , 23-H ) :   0.8845 B( 20-C , 22-C ) :   1.4335 B( 20-C , 24-H ) :   0.9279
B( 21-C , 22-C ) :   1.4226 B( 21-C , 25-H ) :   0.9265 B( 22-C , 26-H ) :   0.9294
B( 27-Pd, 28-Br) :   0.5859 B( 27-Pd, 29-P ) :   0.7647 B( 27-Pd, 33-O ) :   0.5093
B( 28-Br, 29-P ) :   0.1113 B( 29-P , 30-H ) :   0.9233 B( 29-P , 35-H ) :   0.9051
B( 29-P , 36-H ) :   0.9305 B( 31-C , 32-O ) :   1.8490 B( 31-C , 33-O ) :   1.3406
B( 31-C , 34-O ) :   1.0445 B( 34-O , 37-H ) :   0.7920

Dispersion correction           -0.030419515
FINAL SINGLE POINT ENERGY     -3847.716328690035
Dispersion correction            ... done

DIPOLE MOMENT
-------------
                                X             Y             Z
Electronic contribution:     19.79183     -81.95961     -53.29228
Nuclear contribution   :    -19.33506      82.66884      55.91495
                        -----------------------------------------
Total Dipole Moment    :      0.45677       0.70923       2.62266
                        -----------------------------------------
Magnitude (a.u.)       :      2.75500
Magnitude (Debye)      :      7.00264

Rotational constants in cm-1:     0.006977     0.005676     0.004102
Rotational constants in MHz :   209.178686   170.158506   122.987067

                             ****ORCA TERMINATED NORMALLY****
TOTAL RUN TIME: 0 days 0 hours 25 minutes 46 seconds 976 msec
