                         Program Version 5.0.3 -  RELEASE  -
|  1> ! EnGrad PBEh-3c
|  2> %output
|  3> xyzfile=True
|  4> end
|  5> %scf
|  6> maxiter 250
|  7> end
|  8> %output
|  9> Print[P_Hirshfeld] = 1
| 10> end
| 11> % maxcore
| 12> 4000
| 13> *xyz -1 1
| 14> C   -2.67832035  -0.23509421   0.62535692
| 15> C   -2.06091786   0.80020832   1.19329733
| 16> C   -3.91833071  -0.57254842   1.03569539
| 17> C   -4.69362986   0.37299058   1.77416026
| 18> C   -4.15822182   1.54304892   2.24067681
| 19> C   -2.77122855   1.68454469   2.02758240
| 20> H   -2.37311307  -0.86038692  -0.14301581
| 21> H   -4.35269235  -1.54294187   0.92031345
| 22> H   -2.33526031   2.57232865   2.55918223
| 23> H   -5.77956203   0.25025271   1.76914950
| 24> H   -4.78275590   2.34771020   2.67009627
| 25> C   -0.63073714   1.35039841   0.91943316
| 26> C    0.52045167   0.51972592   1.49655900
| 27> H   -0.50970517   2.40579137   1.26923815
| 28> H   -0.60001530   1.40227402  -0.17359167
| 29> C    1.76163616   0.55909826   0.63029956
| 30> H    0.16114728  -0.50192532   1.59182621
| 31> H    0.73206356   0.88778615   2.50306089
| 32> C    1.79692864  -0.16146525  -0.60077118
| 33> C    2.94346029   0.06935158  -1.37220826
| 34> C    3.90652435   1.03142014  -1.06036434
| 35> C    2.75422795   1.49598254   0.98158266
| 36> C    3.82389982   1.73764217   0.13680466
| 37> H    3.06499637  -0.51592779  -2.27970018
| 38> H    4.70598906   1.24245243  -1.75612789
| 39> H    2.75382015   1.92586689   1.98099160
| 40> H    4.53388433   2.51621290   0.37599366
| 41> Pd   0.40536392  -1.68971460  -1.17931467
| 42> Br  -1.22049242  -3.63990807  -1.32405128
| 43> P    1.26099423  -2.95483694   0.32451274
| 44> H    0.46092304  -3.43264163   1.38249696
| 45> C    0.61501120  -1.04736590  -3.96822462
| 46> O    1.61125363  -1.59085739  -4.15798129
| 47> O   -0.26649823  -1.16464328  -3.02033246
| 48> O    0.21203364  -0.00274436  -4.77767813
| 49> H    2.46124006  -2.70002324   1.06820146
| 50> H    1.65681469  -4.19190616  -0.23177041
| 51> H    0.98105735   0.10153885  -5.43485740
| 52> *
| 53>
| 54>                          ****END OF INPUT****

CARTESIAN COORDINATES (ANGSTROEM)
---------------------------------
  C     -2.678320   -0.235094    0.625357
  C     -2.060918    0.800208    1.193297
  C     -3.918331   -0.572548    1.035695
  C     -4.693630    0.372991    1.774160
  C     -4.158222    1.543049    2.240677
  C     -2.771229    1.684545    2.027582
  H     -2.373113   -0.860387   -0.143016
  H     -4.352692   -1.542942    0.920313
  H     -2.335260    2.572329    2.559182
  H     -5.779562    0.250253    1.769149
  H     -4.782756    2.347710    2.670096
  C     -0.630737    1.350398    0.919433
  C      0.520452    0.519726    1.496559
  H     -0.509705    2.405791    1.269238
  H     -0.600015    1.402274   -0.173592
  C      1.761636    0.559098    0.630300
  H      0.161147   -0.501925    1.591826
  H      0.732064    0.887786    2.503061
  C      1.796929   -0.161465   -0.600771
  C      2.943460    0.069352   -1.372208
  C      3.906524    1.031420   -1.060364
  C      2.754228    1.495983    0.981583
  C      3.823900    1.737642    0.136805
  H      3.064996   -0.515928   -2.279700
  H      4.705989    1.242452   -1.756128
  H      2.753820    1.925867    1.980992
  H      4.533884    2.516213    0.375994
  Pd     0.405364   -1.689715   -1.179315
  Br    -1.220492   -3.639908   -1.324051
  P      1.260994   -2.954837    0.324513
  H      0.460923   -3.432642    1.382497
  C      0.615011   -1.047366   -3.968225
  O      1.611254   -1.590857   -4.157981
  O     -0.266498   -1.164643   -3.020332
  O      0.212034   -0.002744   -4.777678
  H      2.461240   -2.700023    1.068201
  H      1.656815   -4.191906   -0.231770
  H      0.981057    0.101539   -5.434857

 Total Charge           Charge          ....   -1
 Multiplicity           Mult            ....    1
 Number of Electrons    NEL             ....  200
 Basis Dimension        Dim             ....  385

ORBITAL ENERGIES
----------------

  NO   OCC          E(Eh)            E(eV)
   0   2.0000    -484.327618    -13179.2245
   1   2.0000     -77.675347     -2113.6537
   2   2.0000     -62.989531     -1714.0323
   3   2.0000     -56.693258     -1542.7020
   4   2.0000     -56.692160     -1542.6721
   5   2.0000     -56.692053     -1542.6692
   6   2.0000     -19.373423      -527.1776
   7   2.0000     -19.318698      -525.6885
   8   2.0000     -19.315095      -525.5904
   9   2.0000     -10.439147      -284.0636
  10   2.0000     -10.359648      -281.9004
  11   2.0000     -10.357869      -281.8519
  12   2.0000     -10.357156      -281.8326
  13   2.0000     -10.352859      -281.7156
  14   2.0000     -10.349346      -281.6200
  15   2.0000     -10.342569      -281.4356
  16   2.0000     -10.342349      -281.4296
  17   2.0000     -10.337067      -281.2859
  18   2.0000     -10.336034      -281.2578
  19   2.0000     -10.335282      -281.2373
  20   2.0000     -10.334580      -281.2182
  21   2.0000     -10.333727      -281.1950
  22   2.0000     -10.333720      -281.1948
  23   2.0000     -10.322880      -280.8998
  24   2.0000      -8.817043      -239.9239
  25   2.0000      -6.749193      -183.6549
  26   2.0000      -6.586939      -179.2397
  27   2.0000      -6.581592      -179.0942
  28   2.0000      -6.581247      -179.0848
  29   2.0000      -4.840181      -131.7080
  30   2.0000      -4.840088      -131.7055
  31   2.0000      -4.838685      -131.6673
  32   2.0000      -3.525978       -95.9467
  33   2.0000      -2.600901       -70.7741
  34   2.0000      -2.599544       -70.7372
  35   2.0000      -2.599221       -70.7284
  36   2.0000      -2.594629       -70.6034
  37   2.0000      -2.594606       -70.6028
  38   2.0000      -2.174730       -59.1774
  39   2.0000      -2.165652       -58.9304
  40   2.0000      -2.139812       -58.2272
  41   2.0000      -1.082633       -29.4600
  42   2.0000      -0.970734       -26.4150
  43   2.0000      -0.926620       -25.2146
  44   2.0000      -0.870379       -23.6842
  45   2.0000      -0.837223       -22.7820
  46   2.0000      -0.782591       -21.2954
  47   2.0000      -0.752756       -20.4835
  48   2.0000      -0.738442       -20.0940
  49   2.0000      -0.713292       -19.4097
  50   2.0000      -0.684090       -18.6150
  51   2.0000      -0.655119       -17.8267
  52   2.0000      -0.630855       -17.1664
  53   2.0000      -0.612999       -16.6806
  54   2.0000      -0.587180       -15.9780
  55   2.0000      -0.562617       -15.3096
  56   2.0000      -0.555998       -15.1295
  57   2.0000      -0.532916       -14.5014
  58   2.0000      -0.510450       -13.8901
  59   2.0000      -0.480170       -13.0661
  60   2.0000      -0.456836       -12.4311
  61   2.0000      -0.440734       -11.9930
  62   2.0000      -0.424477       -11.5506
  63   2.0000      -0.415786       -11.3141
  64   2.0000      -0.404897       -11.0178
  65   2.0000      -0.400031       -10.8854
  66   2.0000      -0.396944       -10.8014
  67   2.0000      -0.394461       -10.7338
  68   2.0000      -0.380535       -10.3549
  69   2.0000      -0.370683       -10.0868
  70   2.0000      -0.367132        -9.9902
  71   2.0000      -0.365762        -9.9529
  72   2.0000      -0.362536        -9.8651
  73   2.0000      -0.353708        -9.6249
  74   2.0000      -0.346754        -9.4356
  75   2.0000      -0.338667        -9.2156
  76   2.0000      -0.330057        -8.9813
  77   2.0000      -0.319416        -8.6918
  78   2.0000      -0.312519        -8.5041
  79   2.0000      -0.306361        -8.3365
  80   2.0000      -0.291084        -7.9208
  81   2.0000      -0.287395        -7.8204
  82   2.0000      -0.278612        -7.5814
  83   2.0000      -0.261740        -7.1223
  84   2.0000      -0.258402        -7.0315
  85   2.0000      -0.254669        -6.9299
  86   2.0000      -0.244971        -6.6660
  87   2.0000      -0.227233        -6.1833
  88   2.0000      -0.220662        -6.0045
  89   2.0000      -0.202848        -5.5198
  90   2.0000      -0.199441        -5.4271
  91   2.0000      -0.197189        -5.3658
  92   2.0000      -0.183199        -4.9851
  93   2.0000      -0.174622        -4.7517
  94   2.0000      -0.169263        -4.6059
  95   2.0000      -0.165197        -4.4952
  96   2.0000      -0.162771        -4.4292
  97   2.0000      -0.149295        -4.0625
  98   2.0000      -0.147438        -4.0120
  99   2.0000      -0.139472        -3.7952
 100   0.0000       0.090989         2.4759
 101   0.0000       0.102518         2.7897
 102   0.0000       0.117792         3.2053
 103   0.0000       0.130944         3.5632
 104   0.0000       0.136059         3.7024

MULLIKEN ATOMIC CHARGES
-----------------------
   0 C :   -0.263765
   1 C :    0.131944
   2 C :   -0.225274
   3 C :   -0.250837
   4 C :   -0.204441
   5 C :   -0.285142
   6 H :    0.298061
   7 H :    0.230571
   8 H :    0.190974
   9 H :    0.189389
  10 H :    0.195093
  11 C :   -0.493618
  12 C :   -0.498405
  13 H :    0.206776
  14 H :    0.287119
  15 C :    0.038333
  16 H :    0.250148
  17 H :    0.201396
  18 C :   -0.099781
  19 C :   -0.288848
  20 C :   -0.218493
  21 C :   -0.248337
  22 C :   -0.239441
  23 H :    0.252532
  24 H :    0.185858
  25 H :    0.175467
  26 H :    0.179733
  27 Pd:    0.116482
  28 Br:   -0.449925
  29 P :   -0.120021
  30 H :    0.116303
  31 C :    0.686454
  32 O :   -0.448528
  33 O :   -0.576523
  34 O :   -0.617596
  35 H :    0.081166
  36 H :    0.129806
  37 H :    0.385373
Sum of atomic charges:   -1.0000000

LOEWDIN ATOMIC CHARGES
----------------------
   0 C :   -0.117733
   1 C :   -0.036029
   2 C :   -0.124558
   3 C :   -0.157039
   4 C :   -0.159460
   5 C :   -0.138206
   6 H :    0.179960
   7 H :    0.139097
   8 H :    0.123224
   9 H :    0.121867
  10 H :    0.125098
  11 C :   -0.206373
  12 C :   -0.217157
  13 H :    0.122398
  14 H :    0.162622
  15 C :   -0.048870
  16 H :    0.141515
  17 H :    0.117830
  18 C :   -0.045873
  19 C :   -0.127550
  20 C :   -0.156522
  21 C :   -0.157033
  22 C :   -0.164178
  23 H :    0.154642
  24 H :    0.121932
  25 H :    0.119656
  26 H :    0.118030
  27 Pd:   -0.831982
  28 Br:   -0.224010
  29 P :    0.436214
  30 H :    0.050928
  31 C :    0.103286
  32 O :   -0.234064
  33 O :   -0.237913
  34 O :   -0.350037
  35 H :    0.027545
  36 H :    0.062905
  37 H :    0.305835

  Mayer bond orders larger than 0.100000
B(  0-C ,  1-C ) :   1.3814 B(  0-C ,  2-C ) :   1.4476 B(  0-C ,  6-H ) :   0.8747
B(  1-C ,  5-C ) :   1.4025 B(  1-C , 11-C ) :   0.9367 B(  2-C ,  3-C ) :   1.3926
B(  2-C ,  5-C ) :   0.1098 B(  2-C ,  7-H ) :   0.9142 B(  3-C ,  4-C ) :   1.4613
B(  3-C ,  9-H ) :   0.9270 B(  4-C ,  5-C ) :   1.4051 B(  4-C , 10-H ) :   0.9253
B(  5-C ,  8-H ) :   0.9271 B( 11-C , 12-C ) :   0.9217 B( 11-C , 13-H ) :   0.9311
B( 11-C , 14-H ) :   0.8892 B( 12-C , 15-C ) :   0.9790 B( 12-C , 16-H ) :   0.8976
B( 12-C , 17-H ) :   0.9290 B( 15-C , 18-C ) :   1.3373 B( 15-C , 21-C ) :   1.4009
B( 18-C , 19-C ) :   1.4179 B( 18-C , 27-Pd) :   0.7088 B( 18-C , 28-Br) :   0.1160
B( 19-C , 20-C ) :   1.4003 B( 19-C , 23-H ) :   0.8894 B( 20-C , 22-C ) :   1.4318
B( 20-C , 24-H ) :   0.9281 B( 21-C , 22-C ) :   1.4273 B( 21-C , 25-H ) :   0.9267
B( 22-C , 26-H ) :   0.9286 B( 27-Pd, 28-Br) :   0.6078 B( 27-Pd, 29-P ) :   0.8287
B( 27-Pd, 33-O ) :   0.5292 B( 28-Br, 29-P ) :   0.1148 B( 29-P , 30-H ) :   0.9193
B( 29-P , 35-H ) :   0.9025 B( 29-P , 36-H ) :   0.9269 B( 31-C , 32-O ) :   1.9300
B( 31-C , 33-O ) :   1.3002 B( 31-C , 34-O ) :   1.0327 B( 34-O , 37-H ) :   0.8039

Dispersion correction           -0.030430570
FINAL SINGLE POINT ENERGY     -3847.704867304298
Dispersion correction            ... done

DIPOLE MOMENT
-------------
                                X             Y             Z
Electronic contribution:     19.59668     -85.02581     -51.71678
Nuclear contribution   :    -18.99934      85.63504      54.28940
                        -----------------------------------------
Total Dipole Moment    :      0.59734       0.60924       2.57263
                        -----------------------------------------
Magnitude (a.u.)       :      2.71042
Magnitude (Debye)      :      6.88935

Rotational constants in cm-1:     0.006955     0.005710     0.004127
Rotational constants in MHz :   208.510259   171.185020   123.725555

                             ****ORCA TERMINATED NORMALLY****
TOTAL RUN TIME: 0 days 0 hours 30 minutes 53 seconds 781 msec
