                         Program Version 5.0.3 -  RELEASE  -
|  1> ! EnGrad PBEh-3c
|  2> %output
|  3> xyzfile=True
|  4> end
|  5> %scf
|  6> maxiter 250
|  7> end
|  8> %output
|  9> Print[P_Hirshfeld] = 1
| 10> end
| 11> % maxcore
| 12> 4000
| 13> *xyz 0 1
| 14> Lu   0.15178620  -0.40548017   0.28409167
| 15> C    0.55413395   0.45685866   2.68232532
| 16> C    1.71083886  -0.23998380   2.29116652
| 17> C    2.34262417   0.50395916   1.28220752
| 18> C    1.56138821   1.63691537   1.01297506
| 19> C    0.47915995   1.62016358   1.90828685
| 20> H    1.78865694   2.41551847   0.30104404
| 21> H   -0.25326333   2.40173794   2.03254290
| 22> H   -0.11920546   0.18208453   3.47760552
| 23> H    2.05123508  -1.17195835   2.71723958
| 24> H    3.26257811   0.23979040   0.78654033
| 25> C    0.63711091  -0.16306304  -2.25678729
| 26> C   -0.51451164  -0.96629476  -2.19166845
| 27> C    1.19860709  -2.14004073  -1.28158374
| 28> C    1.70375893  -0.90437103  -1.72121436
| 29> H    0.70668446   0.81229670  -2.71388703
| 30> C   -0.18010954  -2.17489500  -1.56846621
| 31> H   -1.48507166  -0.74624206  -2.60592585
| 32> H    2.73063969  -0.58057187  -1.65988618
| 33> H    1.76051192  -2.94068552  -0.82336482
| 34> H   -0.85579068  -2.99775012  -1.39500933
| 35> C   -2.02683861  -1.31420443   1.12650530
| 36> H   -2.38017828  -0.94278849   2.09241227
| 37> H   -2.08364384  -2.41006295   1.19407658
| 38> H   -2.79977490  -1.06630755   0.39005932
| 39> C   -1.91782595   2.23250017  -1.11920242
| 40> H   -2.21886313   1.12872378  -0.11470136
| 41> H   -0.93548721   2.67241665  -1.27586441
| 42> H   -2.59484305   3.01814535  -0.78022382
| 43> H   -2.27431719   1.84361133  -2.07130770
| 44> *
| 45>
| 46>                          ****END OF INPUT****

CARTESIAN COORDINATES (ANGSTROEM)
---------------------------------
  Lu     0.151786   -0.405480    0.284092
  C      0.554134    0.456859    2.682325
  C      1.710839   -0.239984    2.291167
  C      2.342624    0.503959    1.282208
  C      1.561388    1.636915    1.012975
  C      0.479160    1.620164    1.908287
  H      1.788657    2.415518    0.301044
  H     -0.253263    2.401738    2.032543
  H     -0.119205    0.182085    3.477606
  H      2.051235   -1.171958    2.717240
  H      3.262578    0.239790    0.786540
  C      0.637111   -0.163063   -2.256787
  C     -0.514512   -0.966295   -2.191668
  C      1.198607   -2.140041   -1.281584
  C      1.703759   -0.904371   -1.721214
  H      0.706684    0.812297   -2.713887
  C     -0.180110   -2.174895   -1.568466
  H     -1.485072   -0.746242   -2.605926
  H      2.730640   -0.580572   -1.659886
  H      1.760512   -2.940686   -0.823365
  H     -0.855791   -2.997750   -1.395009
  C     -2.026839   -1.314204    1.126505
  H     -2.380178   -0.942788    2.092412
  H     -2.083644   -2.410063    1.194077
  H     -2.799775   -1.066308    0.390059
  C     -1.917826    2.232500   -1.119202
  H     -2.218863    1.128724   -0.114701
  H     -0.935487    2.672417   -1.275864
  H     -2.594843    3.018145   -0.780224
  H     -2.274317    1.843611   -2.071308

 Total Charge           Charge          ....    0
 Multiplicity           Mult            ....    1
 Number of Electrons    NEL             ....  132
 Basis Dimension        Dim             ....  295

ORBITAL ENERGIES
----------------

  NO   OCC          E(Eh)            E(eV)
   0   2.0000     -19.249933      -523.8173
   1   2.0000     -12.622463      -343.4747
   2   2.0000     -12.619862      -343.4039
   3   2.0000     -12.619520      -343.3946
   4   2.0000     -10.475812      -285.0613
   5   2.0000     -10.446906      -284.2748
   6   2.0000     -10.446787      -284.2715
   7   2.0000     -10.445120      -284.2262
   8   2.0000     -10.444980      -284.2224
   9   2.0000     -10.443939      -284.1940
  10   2.0000     -10.443805      -284.1904
  11   2.0000     -10.443674      -284.1868
  12   2.0000     -10.442889      -284.1655
  13   2.0000     -10.441421      -284.1255
  14   2.0000     -10.440887      -284.1110
  15   2.0000     -10.360298      -281.9181
  16   2.0000      -5.891491      -160.3156
  17   2.0000      -5.891137      -160.3060
  18   2.0000      -5.890691      -160.2938
  19   2.0000      -5.889139      -160.2516
  20   2.0000      -5.889052      -160.2493
  21   2.0000      -2.433558       -66.2205
  22   2.0000      -1.273157       -34.6444
  23   2.0000      -1.271678       -34.6041
  24   2.0000      -1.259837       -34.2819
  25   2.0000      -0.985379       -26.8135
  26   2.0000      -0.975111       -26.5341
  27   2.0000      -0.796922       -21.6854
  28   2.0000      -0.796596       -21.6765
  29   2.0000      -0.794883       -21.6299
  30   2.0000      -0.794011       -21.6061
  31   2.0000      -0.780496       -21.2384
  32   2.0000      -0.692558       -18.8455
  33   2.0000      -0.617443       -16.8015
  34   2.0000      -0.613123       -16.6839
  35   2.0000      -0.611964       -16.6524
  36   2.0000      -0.610131       -16.6025
  37   2.0000      -0.599534       -16.3142
  38   2.0000      -0.594469       -16.1763
  39   2.0000      -0.559353       -15.2208
  40   2.0000      -0.557929       -15.1820
  41   2.0000      -0.557587       -15.1727
  42   2.0000      -0.556624       -15.1465
  43   2.0000      -0.556232       -15.1358
  44   2.0000      -0.554888       -15.0993
  45   2.0000      -0.553271       -15.0553
  46   2.0000      -0.477586       -12.9958
  47   2.0000      -0.471624       -12.8335
  48   2.0000      -0.468800       -12.7567
  49   2.0000      -0.454581       -12.3698
  50   2.0000      -0.453614       -12.3435
  51   2.0000      -0.452345       -12.3089
  52   2.0000      -0.449932       -12.2433
  53   2.0000      -0.435538       -11.8516
  54   2.0000      -0.434785       -11.8311
  55   2.0000      -0.433267       -11.7898
  56   2.0000      -0.432803       -11.7772
  57   2.0000      -0.430001       -11.7009
  58   2.0000      -0.409074       -11.1315
  59   2.0000      -0.387496       -10.5443
  60   2.0000      -0.373632       -10.1670
  61   2.0000      -0.290048        -7.8926
  62   2.0000      -0.289618        -7.8809
  63   2.0000      -0.279896        -7.6164
  64   2.0000      -0.270876        -7.3709
  65   2.0000      -0.245314        -6.6753
  66   0.0000      -0.016866        -0.4590
  67   0.0000      -0.001445        -0.0393
  68   0.0000       0.033188         0.9031
  69   0.0000       0.049257         1.3404
  70   0.0000       0.052035         1.4159

MULLIKEN ATOMIC CHARGES
-----------------------
   0 Lu:    0.811503
   1 C :   -0.265159
   2 C :   -0.322834
   3 C :   -0.257623
   4 C :   -0.315815
   5 C :   -0.267371
   6 H :    0.235551
   7 H :    0.238271
   8 H :    0.245421
   9 H :    0.245428
  10 H :    0.236616
  11 C :   -0.315638
  12 C :   -0.259424
  13 C :   -0.317728
  14 C :   -0.260906
  15 H :    0.231634
  16 C :   -0.266215
  17 H :    0.234353
  18 H :    0.235010
  19 H :    0.242304
  20 H :    0.247055
  21 C :   -1.034609
  22 H :    0.207426
  23 H :    0.208269
  24 H :    0.197243
  25 C :   -0.855413
  26 H :    0.176368
  27 H :    0.242127
  28 H :    0.253362
  29 H :    0.250794
Sum of atomic charges:   -0.0000000

LOEWDIN ATOMIC CHARGES
----------------------
   0 Lu:   -0.024197
   1 C :   -0.124874
   2 C :   -0.150529
   3 C :   -0.129873
   4 C :   -0.150543
   5 C :   -0.133824
   6 H :    0.153607
   7 H :    0.154548
   8 H :    0.160508
   9 H :    0.157538
  10 H :    0.153096
  11 C :   -0.152328
  12 C :   -0.130358
  13 C :   -0.152426
  14 C :   -0.129798
  15 H :    0.151847
  16 C :   -0.125619
  17 H :    0.153555
  18 H :    0.152816
  19 H :    0.155995
  20 H :    0.160503
  21 C :   -0.654002
  22 H :    0.123448
  23 H :    0.129242
  24 H :    0.123804
  25 C :   -0.476306
  26 H :    0.179974
  27 H :    0.145915
  28 H :    0.139189
  29 H :    0.139091

  Mayer bond orders larger than 0.100000
B(  0-Lu,  1-C ) :   0.2375 B(  0-Lu,  2-C ) :   0.2847 B(  0-Lu,  3-C ) :   0.2662
B(  0-Lu,  4-C ) :   0.2713 B(  0-Lu,  5-C ) :   0.2561 B(  0-Lu, 11-C ) :   0.2697
B(  0-Lu, 12-C ) :   0.2466 B(  0-Lu, 13-C ) :   0.2847 B(  0-Lu, 14-C ) :   0.2664
B(  0-Lu, 16-C ) :   0.2400 B(  0-Lu, 21-C ) :   0.8015 B(  1-C ,  2-C ) :   1.2792
B(  1-C ,  5-C ) :   1.3144 B(  1-C ,  8-H ) :   0.9172 B(  2-C ,  3-C ) :   1.2849
B(  2-C ,  9-H ) :   0.9113 B(  3-C ,  4-C ) :   1.2901 B(  3-C , 10-H ) :   0.9146
B(  4-C ,  5-C ) :   1.2780 B(  4-C ,  6-H ) :   0.9174 B(  5-C ,  7-H ) :   0.9189
B( 11-C , 12-C ) :   1.2776 B( 11-C , 14-C ) :   1.2924 B( 11-C , 15-H ) :   0.9196
B( 12-C , 16-C ) :   1.3230 B( 12-C , 17-H ) :   0.9204 B( 13-C , 14-C ) :   1.2826
B( 13-C , 16-C ) :   1.2771 B( 13-C , 19-H ) :   0.9125 B( 14-C , 18-H ) :   0.9163
B( 16-C , 20-H ) :   0.9146 B( 21-C , 22-H ) :   0.9167 B( 21-C , 23-H ) :   0.9136
B( 21-C , 24-H ) :   0.9064 B( 25-C , 26-H ) :   0.8789 B( 25-C , 27-H ) :   0.9066
B( 25-C , 28-H ) :   0.9073 B( 25-C , 29-H ) :   0.9051

Dispersion correction           -0.017897330
FINAL SINGLE POINT ENERGY     -1702.327579690946
Dispersion correction            ... done

DIPOLE MOMENT
-------------
                                X             Y             Z
Electronic contribution:      0.82057     -17.60372      13.42566
Nuclear contribution   :     -0.40780      18.27959     -13.90413
                        -----------------------------------------
Total Dipole Moment    :      0.41277       0.67587      -0.47848
                        -----------------------------------------
Magnitude (a.u.)       :      0.92527
Magnitude (Debye)      :      2.35185

Rotational constants in cm-1:     0.028018     0.019396     0.017592
Rotational constants in MHz :   839.955129   581.475191   527.381238

                             ****ORCA TERMINATED NORMALLY****
TOTAL RUN TIME: 0 days 0 hours 9 minutes 26 seconds 918 msec
