                         Program Version 5.0.3 -  RELEASE  -
|  1> ! EnGrad PBEh-3c
|  2> %output
|  3> xyzfile=True
|  4> end
|  5> %scf
|  6> maxiter 250
|  7> end
|  8> %output
|  9> Print[P_Hirshfeld] = 1
| 10> end
| 11> % maxcore
| 12> 4000
| 13> *xyz 0 1
| 14> Lu   0.01363379  -0.07865812   0.05800173
| 15> C    0.37972116   0.97529442   2.42270683
| 16> C    1.31100204  -0.07545725   2.20549447
| 17> C    2.28658390   0.39586117   1.28592259
| 18> C    1.94014999   1.72134862   0.90621198
| 19> C    0.77080179   2.08045039   1.63318293
| 20> H    2.58742209   2.39440933   0.34063045
| 21> H    0.28265468   3.04337660   1.57536810
| 22> H   -0.42865970   0.96658302   3.14346144
| 23> H    1.31302470  -1.03172172   2.70297337
| 24> H    3.18449536  -0.13391749   1.02881888
| 25> C    1.04068191  -0.05432391  -2.51592178
| 26> C   -0.25873663  -0.61956951  -2.59389322
| 27> C    0.99284242  -1.96059038  -1.23140862
| 28> C    1.82814392  -0.90197201  -1.68902652
| 29> H    1.42574182   0.76849482  -3.11059542
| 30> C   -0.28408056  -1.77714118  -1.80234926
| 31> H   -1.07230272  -0.19767907  -3.17590371
| 32> H    2.88677165  -0.85301891  -1.56187309
| 33> H    1.32165544  -2.80150244  -0.63879875
| 34> H   -1.12792021  -2.45656465  -1.66789959
| 35> C   -2.29613315  -1.51052195   1.23006023
| 36> H   -2.15190451  -1.49772106   2.34099013
| 37> H   -1.96258385  -2.54654182   0.97561576
| 38> H   -3.43275977  -1.45120229   1.11393316
| 39> C   -2.08612066   1.50647029  -0.56635945
| 40> H   -1.91020354   0.52436953  -0.00282056
| 41> H   -1.18551418   2.11079650  -1.02880863
| 42> H   -2.59072149   2.16531770   0.15102018
| 43> H   -2.76361086   1.27530467  -1.37726596
| 44> *
| 45>
| 46>                          ****END OF INPUT****

CARTESIAN COORDINATES (ANGSTROEM)
---------------------------------
  Lu     0.013634   -0.078658    0.058002
  C      0.379721    0.975294    2.422707
  C      1.311002   -0.075457    2.205494
  C      2.286584    0.395861    1.285923
  C      1.940150    1.721349    0.906212
  C      0.770802    2.080450    1.633183
  H      2.587422    2.394409    0.340630
  H      0.282655    3.043377    1.575368
  H     -0.428660    0.966583    3.143461
  H      1.313025   -1.031722    2.702973
  H      3.184495   -0.133917    1.028819
  C      1.040682   -0.054324   -2.515922
  C     -0.258737   -0.619570   -2.593893
  C      0.992842   -1.960590   -1.231409
  C      1.828144   -0.901972   -1.689027
  H      1.425742    0.768495   -3.110595
  C     -0.284081   -1.777141   -1.802349
  H     -1.072303   -0.197679   -3.175904
  H      2.886772   -0.853019   -1.561873
  H      1.321655   -2.801502   -0.638799
  H     -1.127920   -2.456565   -1.667900
  C     -2.296133   -1.510522    1.230060
  H     -2.151905   -1.497721    2.340990
  H     -1.962584   -2.546542    0.975616
  H     -3.432760   -1.451202    1.113933
  C     -2.086121    1.506470   -0.566359
  H     -1.910204    0.524370   -0.002821
  H     -1.185514    2.110797   -1.028809
  H     -2.590721    2.165318    0.151020
  H     -2.763611    1.275305   -1.377266

 Total Charge           Charge          ....    0
 Multiplicity           Mult            ....    1
 Number of Electrons    NEL             ....  132
 Basis Dimension        Dim             ....  295

ORBITAL ENERGIES
----------------

  NO   OCC          E(Eh)            E(eV)
   0   2.0000     -19.271778      -524.4117
   1   2.0000     -12.643553      -344.0486
   2   2.0000     -12.642030      -344.0071
   3   2.0000     -12.641972      -344.0055
   4   2.0000     -10.468969      -284.8751
   5   2.0000     -10.454319      -284.4765
   6   2.0000     -10.454275      -284.4753
   7   2.0000     -10.453521      -284.4548
   8   2.0000     -10.453423      -284.4521
   9   2.0000     -10.452974      -284.4399
  10   2.0000     -10.451369      -284.3962
  11   2.0000     -10.447611      -284.2939
  12   2.0000     -10.446734      -284.2701
  13   2.0000     -10.446328      -284.2590
  14   2.0000     -10.446128      -284.2536
  15   2.0000     -10.370844      -282.2050
  16   2.0000      -5.912868      -160.8973
  17   2.0000      -5.912642      -160.8912
  18   2.0000      -5.912541      -160.8884
  19   2.0000      -5.911620      -160.8634
  20   2.0000      -5.911591      -160.8626
  21   2.0000      -2.454759       -66.7974
  22   2.0000      -1.292802       -35.1789
  23   2.0000      -1.290276       -35.1102
  24   2.0000      -1.281742       -34.8780
  25   2.0000      -0.979049       -26.6413
  26   2.0000      -0.970307       -26.4034
  27   2.0000      -0.812161       -22.1000
  28   2.0000      -0.796803       -21.6821
  29   2.0000      -0.795455       -21.6454
  30   2.0000      -0.793946       -21.6044
  31   2.0000      -0.790808       -21.5190
  32   2.0000      -0.670644       -18.2492
  33   2.0000      -0.618495       -16.8301
  34   2.0000      -0.614860       -16.7312
  35   2.0000      -0.612777       -16.6745
  36   2.0000      -0.612371       -16.6635
  37   2.0000      -0.597578       -16.2609
  38   2.0000      -0.592916       -16.1341
  39   2.0000      -0.580459       -15.7951
  40   2.0000      -0.579723       -15.7751
  41   2.0000      -0.578571       -15.7437
  42   2.0000      -0.578383       -15.7386
  43   2.0000      -0.578011       -15.7285
  44   2.0000      -0.577747       -15.7213
  45   2.0000      -0.575581       -15.6624
  46   2.0000      -0.502644       -13.6776
  47   2.0000      -0.484702       -13.1894
  48   2.0000      -0.483256       -13.1501
  49   2.0000      -0.458010       -12.4631
  50   2.0000      -0.455977       -12.4078
  51   2.0000      -0.454910       -12.3787
  52   2.0000      -0.453732       -12.3467
  53   2.0000      -0.452879       -12.3235
  54   2.0000      -0.439935       -11.9712
  55   2.0000      -0.434926       -11.8349
  56   2.0000      -0.431714       -11.7475
  57   2.0000      -0.430282       -11.7086
  58   2.0000      -0.428457       -11.6589
  59   2.0000      -0.372974       -10.1491
  60   2.0000      -0.357697        -9.7334
  61   2.0000      -0.295331        -8.0364
  62   2.0000      -0.287408        -7.8208
  63   2.0000      -0.282281        -7.6812
  64   2.0000      -0.266194        -7.2435
  65   2.0000      -0.215254        -5.8574
  66   0.0000      -0.021835        -0.5941
  67   0.0000       0.021396         0.5822
  68   0.0000       0.033997         0.9251
  69   0.0000       0.044304         1.2056
  70   0.0000       0.051590         1.4038

MULLIKEN ATOMIC CHARGES
-----------------------
   0 Lu:    0.663377
   1 C :   -0.290208
   2 C :   -0.330070
   3 C :   -0.269269
   4 C :   -0.293771
   5 C :   -0.244564
   6 H :    0.227108
   7 H :    0.233424
   8 H :    0.250782
   9 H :    0.259029
  10 H :    0.235960
  11 C :   -0.286851
  12 C :   -0.253000
  13 C :   -0.343101
  14 C :   -0.257471
  15 H :    0.229340
  16 C :   -0.274870
  17 H :    0.233287
  18 H :    0.231674
  19 H :    0.254951
  20 H :    0.265545
  21 C :   -0.955150
  22 H :    0.178061
  23 H :    0.174960
  24 H :    0.174768
  25 C :   -0.939162
  26 H :    0.316590
  27 H :    0.234541
  28 H :    0.286013
  29 H :    0.288080
Sum of atomic charges:   -0.0000000

LOEWDIN ATOMIC CHARGES
----------------------
   0 Lu:   -0.098450
   1 C :   -0.136887
   2 C :   -0.153992
   3 C :   -0.131034
   4 C :   -0.147345
   5 C :   -0.139592
   6 H :    0.151597
   7 H :    0.149327
   8 H :    0.163112
   9 H :    0.164812
  10 H :    0.152663
  11 C :   -0.147202
  12 C :   -0.135652
  13 C :   -0.156637
  14 C :   -0.122176
  15 H :    0.150538
  16 C :   -0.132706
  17 H :    0.151492
  18 H :    0.151643
  19 H :    0.163727
  20 H :    0.170171
  21 C :   -0.672666
  22 H :    0.104917
  23 H :    0.106500
  24 H :    0.109651
  25 C :   -0.440068
  26 H :    0.225819
  27 H :    0.178216
  28 H :    0.160904
  29 H :    0.159317

  Mayer bond orders larger than 0.100000
B(  0-Lu,  1-C ) :   0.2522 B(  0-Lu,  2-C ) :   0.3127 B(  0-Lu,  3-C ) :   0.2710
B(  0-Lu,  4-C ) :   0.2442 B(  0-Lu,  5-C ) :   0.2386 B(  0-Lu, 11-C ) :   0.2451
B(  0-Lu, 12-C ) :   0.2491 B(  0-Lu, 13-C ) :   0.3325 B(  0-Lu, 14-C ) :   0.2658
B(  0-Lu, 16-C ) :   0.2617 B(  0-Lu, 21-C ) :   0.7145 B(  0-Lu, 25-C ) :   0.2922
B(  0-Lu, 26-H ) :   0.1439 B(  1-C ,  2-C ) :   1.2654 B(  1-C ,  5-C ) :   1.3074
B(  1-C ,  8-H ) :   0.9159 B(  2-C ,  3-C ) :   1.2661 B(  2-C ,  9-H ) :   0.9055
B(  3-C ,  4-C ) :   1.2989 B(  3-C , 10-H ) :   0.9207 B(  4-C ,  5-C ) :   1.2942
B(  4-C ,  6-H ) :   0.9275 B(  5-C ,  7-H ) :   0.9166 B( 11-C , 12-C ) :   1.2827
B( 11-C , 14-C ) :   1.3169 B( 11-C , 15-H ) :   0.9246 B( 12-C , 16-C ) :   1.3112
B( 12-C , 17-H ) :   0.9166 B( 13-C , 14-C ) :   1.2583 B( 13-C , 16-C ) :   1.2494
B( 13-C , 19-H ) :   0.9082 B( 14-C , 18-H ) :   0.9256 B( 16-C , 20-H ) :   0.9043
B( 21-C , 22-H ) :   0.9254 B( 21-C , 23-H ) :   0.9215 B( 21-C , 24-H ) :   0.9325
B( 25-C , 26-H ) :   0.6817 B( 25-C , 27-H ) :   0.8616 B( 25-C , 28-H ) :   0.8881
B( 25-C , 29-H ) :   0.8858

Dispersion correction           -0.017610597
FINAL SINGLE POINT ENERGY     -1702.321520777963
Dispersion correction            ... done

DIPOLE MOMENT
-------------
                                X             Y             Z
Electronic contribution:     -5.97674      -2.51539       2.89027
Nuclear contribution   :      6.57107       3.60235      -3.62881
                        -----------------------------------------
Total Dipole Moment    :      0.59433       1.08696      -0.73853
                        -----------------------------------------
Magnitude (a.u.)       :      1.44227
Magnitude (Debye)      :      3.66595

Rotational constants in cm-1:     0.028531     0.020290     0.016913
Rotational constants in MHz :   855.331750   608.280585   507.038984

                             ****ORCA TERMINATED NORMALLY****
TOTAL RUN TIME: 0 days 0 hours 10 minutes 31 seconds 997 msec
