                         Program Version 5.0.3 -  RELEASE  -
|  1> ! EnGrad PBEh-3c
|  2> %output
|  3> xyzfile=True
|  4> end
|  5> %scf
|  6> maxiter 250
|  7> end
|  8> %output
|  9> Print[P_Hirshfeld] = 1
| 10> end
| 11> % maxcore
| 12> 4000
| 13> *xyz 0 1
| 14> Lu  -0.04212795  -0.12923448   0.10947726
| 15> C    0.41813801   0.87228046   2.50201522
| 16> C    1.40094339  -0.12084855   2.24042760
| 17> C    2.31442261   0.40686591   1.28449548
| 18> C    1.88142505   1.71435121   0.93953476
| 19> C    0.71020669   2.00363083   1.69621011
| 20> H    2.42019256   2.40977206   0.30820447
| 21> H    0.16173011   2.93623693   1.67094001
| 22> H   -0.36823597   0.80600746   3.23928182
| 23> H    1.46885400  -1.08631094   2.72038450
| 24> H    3.23304171  -0.06706322   0.97692537
| 25> C    0.96584855  -0.08294287  -2.47712151
| 26> C   -0.31956949  -0.69014525  -2.51909409
| 27> C    1.04151983  -2.01319578  -1.23622553
| 28> C    1.81083558  -0.90837964  -1.69680247
| 29> H    1.27058499   0.79908335  -3.02232484
| 30> C   -0.26606383  -1.87864159  -1.76354918
| 31> H   -1.16849381  -0.30880255  -3.07358628
| 32> H    2.87423829  -0.79841190  -1.58494170
| 33> H    1.42232372  -2.85420389  -0.67307087
| 34> H   -1.07854883  -2.57909138  -1.60889730
| 35> C   -2.20305278  -1.51441606   1.20101422
| 36> H   -2.20107436  -1.40855262   2.29794446
| 37> H   -1.98174927  -2.58989814   1.07386659
| 38> H   -3.28309689  -1.40983570   0.94097675
| 39> C   -2.08556526   1.70333496  -0.68867749
| 40> H   -1.91036104   0.75462133  -0.08084068
| 41> H   -1.16003462   2.20689400  -1.05003377
| 42> H   -2.63068350   2.41216501  -0.05360318
| 43> H   -2.69128007   1.40230499  -1.53894808
| 44> *
| 45>
| 46>                          ****END OF INPUT****

CARTESIAN COORDINATES (ANGSTROEM)
---------------------------------
  Lu    -0.042128   -0.129234    0.109477
  C      0.418138    0.872280    2.502015
  C      1.400943   -0.120849    2.240428
  C      2.314423    0.406866    1.284495
  C      1.881425    1.714351    0.939535
  C      0.710207    2.003631    1.696210
  H      2.420193    2.409772    0.308204
  H      0.161730    2.936237    1.670940
  H     -0.368236    0.806007    3.239282
  H      1.468854   -1.086311    2.720384
  H      3.233042   -0.067063    0.976925
  C      0.965849   -0.082943   -2.477122
  C     -0.319569   -0.690145   -2.519094
  C      1.041520   -2.013196   -1.236226
  C      1.810836   -0.908380   -1.696802
  H      1.270585    0.799083   -3.022325
  C     -0.266064   -1.878642   -1.763549
  H     -1.168494   -0.308803   -3.073586
  H      2.874238   -0.798412   -1.584942
  H      1.422324   -2.854204   -0.673071
  H     -1.078549   -2.579091   -1.608897
  C     -2.203053   -1.514416    1.201014
  H     -2.201074   -1.408553    2.297944
  H     -1.981749   -2.589898    1.073867
  H     -3.283097   -1.409836    0.940977
  C     -2.085565    1.703335   -0.688677
  H     -1.910361    0.754621   -0.080841
  H     -1.160035    2.206894   -1.050034
  H     -2.630683    2.412165   -0.053603
  H     -2.691280    1.402305   -1.538948

 Total Charge           Charge          ....    0
 Multiplicity           Mult            ....    1
 Number of Electrons    NEL             ....  132
 Basis Dimension        Dim             ....  295

ORBITAL ENERGIES
----------------

  NO   OCC          E(Eh)            E(eV)
   0   2.0000     -19.273048      -524.4463
   1   2.0000     -12.645156      -344.0922
   2   2.0000     -12.643206      -344.0391
   3   2.0000     -12.643108      -344.0365
   4   2.0000     -10.472160      -284.9620
   5   2.0000     -10.452192      -284.4186
   6   2.0000     -10.451054      -284.3876
   7   2.0000     -10.450695      -284.3779
   8   2.0000     -10.450409      -284.3701
   9   2.0000     -10.449865      -284.3553
  10   2.0000     -10.449853      -284.3549
  11   2.0000     -10.446083      -284.2524
  12   2.0000     -10.445492      -284.2363
  13   2.0000     -10.445161      -284.2273
  14   2.0000     -10.444002      -284.1957
  15   2.0000     -10.365660      -282.0639
  16   2.0000      -5.914445      -160.9402
  17   2.0000      -5.914117      -160.9313
  18   2.0000      -5.913940      -160.9265
  19   2.0000      -5.912800      -160.8955
  20   2.0000      -5.912710      -160.8930
  21   2.0000      -2.455720       -66.8235
  22   2.0000      -1.293441       -35.1963
  23   2.0000      -1.289398       -35.0863
  24   2.0000      -1.280423       -34.8421
  25   2.0000      -0.974449       -26.5161
  26   2.0000      -0.966978       -26.3128
  27   2.0000      -0.821378       -22.3508
  28   2.0000      -0.793169       -21.5832
  29   2.0000      -0.791651       -21.5419
  30   2.0000      -0.790529       -21.5114
  31   2.0000      -0.788191       -21.4478
  32   2.0000      -0.681463       -18.5435
  33   2.0000      -0.615147       -16.7390
  34   2.0000      -0.612359       -16.6631
  35   2.0000      -0.610440       -16.6109
  36   2.0000      -0.609767       -16.5926
  37   2.0000      -0.594990       -16.1905
  38   2.0000      -0.590500       -16.0683
  39   2.0000      -0.581692       -15.8287
  40   2.0000      -0.581409       -15.8209
  41   2.0000      -0.580140       -15.7864
  42   2.0000      -0.579471       -15.7682
  43   2.0000      -0.579397       -15.7662
  44   2.0000      -0.578624       -15.7452
  45   2.0000      -0.576508       -15.6876
  46   2.0000      -0.505641       -13.7592
  47   2.0000      -0.493300       -13.4234
  48   2.0000      -0.490352       -13.3431
  49   2.0000      -0.457038       -12.4366
  50   2.0000      -0.454361       -12.3638
  51   2.0000      -0.451475       -12.2853
  52   2.0000      -0.451075       -12.2744
  53   2.0000      -0.450132       -12.2487
  54   2.0000      -0.434648       -11.8274
  55   2.0000      -0.432141       -11.7592
  56   2.0000      -0.430083       -11.7031
  57   2.0000      -0.429117       -11.6769
  58   2.0000      -0.427299       -11.6274
  59   2.0000      -0.373414       -10.1611
  60   2.0000      -0.367522       -10.0008
  61   2.0000      -0.292546        -7.9606
  62   2.0000      -0.282879        -7.6975
  63   2.0000      -0.279326        -7.6008
  64   2.0000      -0.261859        -7.1256
  65   2.0000      -0.231137        -6.2895
  66   0.0000      -0.017648        -0.4802
  67   0.0000       0.019782         0.5383
  68   0.0000       0.033922         0.9231
  69   0.0000       0.046186         1.2568
  70   0.0000       0.052433         1.4268

MULLIKEN ATOMIC CHARGES
-----------------------
   0 Lu:    0.715044
   1 C :   -0.286026
   2 C :   -0.321446
   3 C :   -0.274305
   4 C :   -0.278324
   5 C :   -0.276241
   6 H :    0.228800
   7 H :    0.231927
   8 H :    0.249087
   9 H :    0.253246
  10 H :    0.232289
  11 C :   -0.278682
  12 C :   -0.289433
  13 C :   -0.342833
  14 C :   -0.254123
  15 H :    0.230292
  16 C :   -0.256362
  17 H :    0.231040
  18 H :    0.228889
  19 H :    0.248181
  20 H :    0.262234
  21 C :   -0.983040
  22 H :    0.190138
  23 H :    0.186388
  24 H :    0.185480
  25 C :   -0.917986
  26 H :    0.274192
  27 H :    0.250798
  28 H :    0.278692
  29 H :    0.282086
Sum of atomic charges:   -0.0000000

LOEWDIN ATOMIC CHARGES
----------------------
   0 Lu:   -0.036233
   1 C :   -0.141786
   2 C :   -0.153538
   3 C :   -0.134594
   4 C :   -0.149458
   5 C :   -0.149903
   6 H :    0.149440
   7 H :    0.149229
   8 H :    0.161279
   9 H :    0.161306
  10 H :    0.151493
  11 C :   -0.150680
  12 C :   -0.147874
  13 C :   -0.156561
  14 C :   -0.126304
  15 H :    0.148983
  16 C :   -0.131783
  17 H :    0.150621
  18 H :    0.150265
  19 H :    0.160012
  20 H :    0.167291
  21 C :   -0.659301
  22 H :    0.111656
  23 H :    0.113139
  24 H :    0.112775
  25 C :   -0.434103
  26 H :    0.200016
  27 H :    0.167808
  28 H :    0.158814
  29 H :    0.157991

  Mayer bond orders larger than 0.100000
B(  0-Lu,  1-C ) :   0.2494 B(  0-Lu,  2-C ) :   0.2976 B(  0-Lu,  3-C ) :   0.2549
B(  0-Lu,  4-C ) :   0.2354 B(  0-Lu,  5-C ) :   0.2521 B(  0-Lu, 11-C ) :   0.2448
B(  0-Lu, 12-C ) :   0.2611 B(  0-Lu, 13-C ) :   0.3132 B(  0-Lu, 14-C ) :   0.2500
B(  0-Lu, 16-C ) :   0.2531 B(  0-Lu, 21-C ) :   0.7772 B(  0-Lu, 25-C ) :   0.2363
B(  0-Lu, 26-H ) :   0.1235 B(  1-C ,  2-C ) :   1.2750 B(  1-C ,  5-C ) :   1.2999
B(  1-C ,  8-H ) :   0.9153 B(  2-C ,  3-C ) :   1.2748 B(  2-C ,  9-H ) :   0.9080
B(  3-C ,  4-C ) :   1.3119 B(  3-C , 10-H ) :   0.9222 B(  4-C ,  5-C ) :   1.2923
B(  4-C ,  6-H ) :   0.9233 B(  5-C ,  7-H ) :   0.9172 B( 11-C , 12-C ) :   1.2750
B( 11-C , 14-C ) :   1.3253 B( 11-C , 15-H ) :   0.9211 B( 12-C , 16-C ) :   1.3081
B( 12-C , 17-H ) :   0.9182 B( 13-C , 14-C ) :   1.2683 B( 13-C , 16-C ) :   1.2632
B( 13-C , 19-H ) :   0.9128 B( 14-C , 18-H ) :   0.9251 B( 16-C , 20-H ) :   0.9052
B( 21-C , 22-H ) :   0.9213 B( 21-C , 23-H ) :   0.9212 B( 21-C , 24-H ) :   0.9289
B( 25-C , 26-H ) :   0.7493 B( 25-C , 27-H ) :   0.8727 B( 25-C , 28-H ) :   0.8958
B( 25-C , 29-H ) :   0.8916

Dispersion correction           -0.017376929
FINAL SINGLE POINT ENERGY     -1702.346844502854
Dispersion correction            ... done

DIPOLE MOMENT
-------------
                                X             Y             Z
Electronic contribution:     -9.06869      -4.63254       5.26542
Nuclear contribution   :      9.38749       5.75377      -5.95236
                        -----------------------------------------
Total Dipole Moment    :      0.31881       1.12123      -0.68694
                        -----------------------------------------
Magnitude (a.u.)       :      1.35303
Magnitude (Debye)      :      3.43912

Rotational constants in cm-1:     0.028143     0.019775     0.016978
Rotational constants in MHz :   843.708713   592.829517   508.995327

                             ****ORCA TERMINATED NORMALLY****
TOTAL RUN TIME: 0 days 0 hours 10 minutes 9 seconds 485 msec
