                         Program Version 5.0.3 -  RELEASE  -
|  1> ! EnGrad PBEh-3c
|  2> %output
|  3> xyzfile=True
|  4> end
|  5> %scf
|  6> maxiter 250
|  7> end
|  8> %output
|  9> Print[P_Hirshfeld] = 1
| 10> end
| 11> % maxcore
| 12> 4000
| 13> *xyz 0 1
| 14> Lu   0.08838372  -0.05394043   0.04127973
| 15> C    0.35511975   1.00858134   2.39353832
| 16> C    1.27852439  -0.04632005   2.18040097
| 17> C    2.25792227   0.40269148   1.29095560
| 18> C    1.95621519   1.70992312   0.89866643
| 19> C    0.79184962   2.09734550   1.58622155
| 20> H    2.64233094   2.38237600   0.35855367
| 21> H    0.32883708   3.07458715   1.54268774
| 22> H   -0.45268415   1.02019875   3.08145961
| 23> H    1.25656937  -1.00516437   2.69181375
| 24> H    3.16067209  -0.15720690   1.03712539
| 25> C    1.07365989  -0.05610582  -2.51374740
| 26> C   -0.23411480  -0.56954523  -2.61423658
| 27> C    0.98784060  -1.92718055  -1.23571764
| 28> C    1.80594650  -0.89845481  -1.69644236
| 29> H    1.48422604   0.75145353  -3.14514996
| 30> C   -0.31293251  -1.75834445  -1.80693465
| 31> H   -1.03209865  -0.16067893  -3.20329255
| 32> H    2.89733767  -0.86269677  -1.54490461
| 33> H    1.28150396  -2.77279549  -0.62532870
| 34> H   -1.13447354  -2.39144358  -1.68998917
| 35> C   -2.33359885  -1.45658621   1.23311809
| 36> H   -2.13284595  -1.49885150   2.34142147
| 37> H   -1.96707725  -2.46934595   0.89520007
| 38> H   -3.47552995  -1.44002201   1.18527282
| 39> C   -2.05675537   1.39859614  -0.50280418
| 40> H   -1.97950911   0.39710085   0.04183853
| 41> H   -1.19526089   2.03886144  -1.00334839
| 42> H   -2.54162950   2.02230765   0.24322055
| 43> H   -2.77432262   1.20232748  -1.31078471
| 44> *
| 45>
| 46>                          ****END OF INPUT****

CARTESIAN COORDINATES (ANGSTROEM)
---------------------------------
  Lu     0.088384   -0.053940    0.041280
  C      0.355120    1.008581    2.393538
  C      1.278524   -0.046320    2.180401
  C      2.257922    0.402691    1.290956
  C      1.956215    1.709923    0.898666
  C      0.791850    2.097345    1.586222
  H      2.642331    2.382376    0.358554
  H      0.328837    3.074587    1.542688
  H     -0.452684    1.020199    3.081460
  H      1.256569   -1.005164    2.691814
  H      3.160672   -0.157207    1.037125
  C      1.073660   -0.056106   -2.513747
  C     -0.234115   -0.569545   -2.614237
  C      0.987841   -1.927181   -1.235718
  C      1.805946   -0.898455   -1.696442
  H      1.484226    0.751454   -3.145150
  C     -0.312933   -1.758344   -1.806935
  H     -1.032099   -0.160679   -3.203293
  H      2.897338   -0.862697   -1.544905
  H      1.281504   -2.772795   -0.625329
  H     -1.134474   -2.391444   -1.689989
  C     -2.333599   -1.456586    1.233118
  H     -2.132846   -1.498852    2.341421
  H     -1.967077   -2.469346    0.895200
  H     -3.475530   -1.440022    1.185273
  C     -2.056755    1.398596   -0.502804
  H     -1.979509    0.397101    0.041839
  H     -1.195261    2.038861   -1.003348
  H     -2.541629    2.022308    0.243221
  H     -2.774323    1.202327   -1.310785

 Total Charge           Charge          ....    0
 Multiplicity           Mult            ....    1
 Number of Electrons    NEL             ....  132
 Basis Dimension        Dim             ....  295

ORBITAL ENERGIES
----------------

  NO   OCC          E(Eh)            E(eV)
   0   2.0000     -19.268758      -524.3296
   1   2.0000     -12.640383      -343.9623
   2   2.0000     -12.639046      -343.9259
   3   2.0000     -12.638984      -343.9242
   4   2.0000     -10.455309      -284.5034
   5   2.0000     -10.455149      -284.4991
   6   2.0000     -10.454567      -284.4832
   7   2.0000     -10.454240      -284.4743
   8   2.0000     -10.453917      -284.4655
   9   2.0000     -10.452441      -284.4254
  10   2.0000     -10.451158      -284.3905
  11   2.0000     -10.448532      -284.3190
  12   2.0000     -10.447481      -284.2904
  13   2.0000     -10.447098      -284.2800
  14   2.0000     -10.446914      -284.2750
  15   2.0000     -10.370185      -282.1871
  16   2.0000      -5.909674      -160.8104
  17   2.0000      -5.909524      -160.8063
  18   2.0000      -5.909462      -160.8046
  19   2.0000      -5.908609      -160.7814
  20   2.0000      -5.908576      -160.7805
  21   2.0000      -2.451986       -66.7219
  22   2.0000      -1.289848       -35.0986
  23   2.0000      -1.289508       -35.0893
  24   2.0000      -1.280832       -34.8532
  25   2.0000      -0.987115       -26.8608
  26   2.0000      -0.978104       -26.6156
  27   2.0000      -0.802500       -21.8371
  28   2.0000      -0.799854       -21.7651
  29   2.0000      -0.799561       -21.7571
  30   2.0000      -0.799249       -21.7487
  31   2.0000      -0.796414       -21.6715
  32   2.0000      -0.667278       -18.1576
  33   2.0000      -0.623531       -16.9671
  34   2.0000      -0.619716       -16.8633
  35   2.0000      -0.615123       -16.7383
  36   2.0000      -0.610180       -16.6038
  37   2.0000      -0.601965       -16.3803
  38   2.0000      -0.597304       -16.2535
  39   2.0000      -0.577360       -15.7108
  40   2.0000      -0.576380       -15.6841
  41   2.0000      -0.575429       -15.6582
  42   2.0000      -0.575315       -15.6551
  43   2.0000      -0.574855       -15.6426
  44   2.0000      -0.574767       -15.6402
  45   2.0000      -0.573067       -15.5939
  46   2.0000      -0.497606       -13.5406
  47   2.0000      -0.479811       -13.0563
  48   2.0000      -0.472544       -12.8586
  49   2.0000      -0.459773       -12.5111
  50   2.0000      -0.458901       -12.4873
  51   2.0000      -0.456947       -12.4342
  52   2.0000      -0.455438       -12.3931
  53   2.0000      -0.450377       -12.2554
  54   2.0000      -0.445892       -12.1333
  55   2.0000      -0.441506       -12.0140
  56   2.0000      -0.433414       -11.7938
  57   2.0000      -0.432695       -11.7742
  58   2.0000      -0.428185       -11.6515
  59   2.0000      -0.371361       -10.1053
  60   2.0000      -0.354604        -9.6493
  61   2.0000      -0.296502        -8.0682
  62   2.0000      -0.292952        -7.9716
  63   2.0000      -0.286358        -7.7922
  64   2.0000      -0.272362        -7.4114
  65   2.0000      -0.208236        -5.6664
  66   0.0000      -0.022669        -0.6168
  67   0.0000       0.016065         0.4371
  68   0.0000       0.035777         0.9735
  69   0.0000       0.046171         1.2564
  70   0.0000       0.049568         1.3488

MULLIKEN ATOMIC CHARGES
-----------------------
   0 Lu:    0.662626
   1 C :   -0.272832
   2 C :   -0.338205
   3 C :   -0.267838
   4 C :   -0.287131
   5 C :   -0.252166
   6 H :    0.228623
   7 H :    0.234656
   8 H :    0.253882
   9 H :    0.262699
  10 H :    0.240212
  11 C :   -0.277825
  12 C :   -0.254722
  13 C :   -0.347150
  14 C :   -0.255619
  15 H :    0.229183
  16 C :   -0.274462
  17 H :    0.234221
  18 H :    0.234237
  19 H :    0.258122
  20 H :    0.264369
  21 C :   -0.962733
  22 H :    0.173446
  23 H :    0.167837
  24 H :    0.176252
  25 C :   -0.991866
  26 H :    0.355018
  27 H :    0.233812
  28 H :    0.290251
  29 H :    0.283099
Sum of atomic charges:   -0.0000000

LOEWDIN ATOMIC CHARGES
----------------------
   0 Lu:   -0.116655
   1 C :   -0.126785
   2 C :   -0.149982
   3 C :   -0.131732
   4 C :   -0.141279
   5 C :   -0.132769
   6 H :    0.154643
   7 H :    0.150089
   8 H :    0.163760
   9 H :    0.167714
  10 H :    0.156025
  11 C :   -0.144169
  12 C :   -0.127637
  13 C :   -0.155643
  14 C :   -0.124657
  15 H :    0.153122
  16 C :   -0.127625
  17 H :    0.150524
  18 H :    0.154975
  19 H :    0.165335
  20 H :    0.166355
  21 C :   -0.694155
  22 H :    0.102238
  23 H :    0.103459
  24 H :    0.109623
  25 C :   -0.474332
  26 H :    0.247184
  27 H :    0.184188
  28 H :    0.159479
  29 H :    0.158708

  Mayer bond orders larger than 0.100000
B(  0-Lu,  1-C ) :   0.2542 B(  0-Lu,  2-C ) :   0.3195 B(  0-Lu,  3-C ) :   0.2858
B(  0-Lu,  4-C ) :   0.2558 B(  0-Lu,  5-C ) :   0.2403 B(  0-Lu, 11-C ) :   0.2458
B(  0-Lu, 12-C ) :   0.2456 B(  0-Lu, 13-C ) :   0.3397 B(  0-Lu, 14-C ) :   0.2747
B(  0-Lu, 16-C ) :   0.2667 B(  0-Lu, 21-C ) :   0.6512 B(  0-Lu, 25-C ) :   0.3096
B(  0-Lu, 26-H ) :   0.1364 B(  1-C ,  2-C ) :   1.2681 B(  1-C ,  5-C ) :   1.3070
B(  1-C ,  8-H ) :   0.9159 B(  2-C ,  3-C ) :   1.2598 B(  2-C ,  9-H ) :   0.9032
B(  3-C ,  4-C ) :   1.2832 B(  3-C , 10-H ) :   0.9167 B(  4-C ,  5-C ) :   1.2977
B(  4-C ,  6-H ) :   0.9281 B(  5-C ,  7-H ) :   0.9180 B( 11-C , 12-C ) :   1.2934
B( 11-C , 14-C ) :   1.3030 B( 11-C , 15-H ) :   0.9251 B( 12-C , 16-C ) :   1.3117
B( 12-C , 17-H ) :   0.9177 B( 13-C , 14-C ) :   1.2547 B( 13-C , 16-C ) :   1.2489
B( 13-C , 19-H ) :   0.9044 B( 14-C , 18-H ) :   0.9218 B( 16-C , 20-H ) :   0.9078
B( 21-C , 22-H ) :   0.9276 B( 21-C , 23-H ) :   0.9226 B( 21-C , 24-H ) :   0.9309
B( 25-C , 26-H ) :   0.6425 B( 25-C , 27-H ) :   0.8516 B( 25-C , 28-H ) :   0.8840
B( 25-C , 29-H ) :   0.8886

Dispersion correction           -0.017832501
FINAL SINGLE POINT ENERGY     -1702.311110570628
Dispersion correction            ... done

DIPOLE MOMENT
-------------
                                X             Y             Z
Electronic contribution:     -1.94874      -1.52614       2.19255
Nuclear contribution   :      2.79747       2.53654      -2.89157
                        -----------------------------------------
Total Dipole Moment    :      0.84873       1.01040      -0.69902
                        -----------------------------------------
Magnitude (a.u.)       :      1.49328
Magnitude (Debye)      :      3.79561

Rotational constants in cm-1:     0.029206     0.020719     0.017025
Rotational constants in MHz :   875.585511   621.135502   510.401321

                             ****ORCA TERMINATED NORMALLY****
TOTAL RUN TIME: 0 days 0 hours 10 minutes 25 seconds 42 msec
