                         Program Version 5.0.3 -  RELEASE  -
|  1> ! EnGrad PBEh-3c
|  2> %output
|  3> xyzfile=True
|  4> end
|  5> %scf
|  6> maxiter 250
|  7> end
|  8> %output
|  9> Print[P_Hirshfeld] = 1
| 10> end
| 11> % maxcore
| 12> 4000
| 13> *xyz 0 1
| 14> Lu  -0.00185750  -0.10600188   0.08843435
| 15> C    0.39869321   0.91433722   2.46854378
| 16> C    1.36317000  -0.09785217   2.22190589
| 17> C    2.29698896   0.40557785   1.28648880
| 18> C    1.90450217   1.71298489   0.92692450
| 19> C    0.73539829   2.03254726   1.66227223
| 20> H    2.48873519   2.40131878   0.32374013
| 21> H    0.21329234   2.97892603   1.63136671
| 22> H   -0.39429315   0.87209795   3.19058448
| 23> H    1.40335183  -1.06127250   2.71156876
| 24> H    3.21071147  -0.09487779   0.99550058
| 25> C    0.99911463  -0.07466208  -2.48842273
| 26> C   -0.29320174  -0.65293312  -2.54845109
| 27> C    1.02495666  -1.98665507  -1.23606882
| 28> C    1.80932701  -0.90531725  -1.69669135
| 29> H    1.33650570   0.78438678  -3.06022354
| 30> C   -0.28052555  -1.84152292  -1.77693612
| 31> H   -1.12640795  -0.26309779  -3.11360822
| 32> H    2.88136579  -0.81824753  -1.57258793
| 33> H    1.37887262  -2.82908466  -0.65833963
| 34> H   -1.09580486  -2.52119110  -1.63391886
| 35> C   -2.24333385  -1.49657218   1.21092013
| 36> H   -2.18002192  -1.43641509   2.31135965
| 37> H   -1.97722210  -2.55270077   1.01873756
| 38> H   -3.34247370  -1.41914993   1.01635631
| 39> C   -2.07667573   1.60930528  -0.63132475
| 40> H   -1.93169725   0.64430544  -0.04298700
| 41> H   -1.17090397   2.15504617  -1.03562861
| 42> H   -2.60320515   2.29187131   0.03798422
| 43> H   -2.71690353   1.34060028  -1.46854639
| 44> *
| 45>
| 46>                          ****END OF INPUT****

CARTESIAN COORDINATES (ANGSTROEM)
---------------------------------
  Lu    -0.001857   -0.106002    0.088434
  C      0.398693    0.914337    2.468544
  C      1.363170   -0.097852    2.221906
  C      2.296989    0.405578    1.286489
  C      1.904502    1.712985    0.926924
  C      0.735398    2.032547    1.662272
  H      2.488735    2.401319    0.323740
  H      0.213292    2.978926    1.631367
  H     -0.394293    0.872098    3.190584
  H      1.403352   -1.061273    2.711569
  H      3.210711   -0.094878    0.995501
  C      0.999115   -0.074662   -2.488423
  C     -0.293202   -0.652933   -2.548451
  C      1.024957   -1.986655   -1.236069
  C      1.809327   -0.905317   -1.696691
  H      1.336506    0.784387   -3.060224
  C     -0.280526   -1.841523   -1.776936
  H     -1.126408   -0.263098   -3.113608
  H      2.881366   -0.818248   -1.572588
  H      1.378873   -2.829085   -0.658340
  H     -1.095805   -2.521191   -1.633919
  C     -2.243334   -1.496572    1.210920
  H     -2.180022   -1.436415    2.311360
  H     -1.977222   -2.552701    1.018738
  H     -3.342474   -1.419150    1.016356
  C     -2.076676    1.609305   -0.631325
  H     -1.931697    0.644305   -0.042987
  H     -1.170904    2.155046   -1.035629
  H     -2.603205    2.291871    0.037984
  H     -2.716904    1.340600   -1.468546

 Total Charge           Charge          ....    0
 Multiplicity           Mult            ....    1
 Number of Electrons    NEL             ....  132
 Basis Dimension        Dim             ....  295

ORBITAL ENERGIES
----------------

  NO   OCC          E(Eh)            E(eV)
   0   2.0000     -19.271529      -524.4050
   1   2.0000     -12.643487      -344.0468
   2   2.0000     -12.641729      -343.9989
   3   2.0000     -12.641653      -343.9969
   4   2.0000     -10.466745      -284.8146
   5   2.0000     -10.452667      -284.4315
   6   2.0000     -10.451497      -284.3997
   7   2.0000     -10.451107      -284.3891
   8   2.0000     -10.451005      -284.3863
   9   2.0000     -10.450585      -284.3749
  10   2.0000     -10.449891      -284.3560
  11   2.0000     -10.446163      -284.2545
  12   2.0000     -10.445547      -284.2378
  13   2.0000     -10.445320      -284.2316
  14   2.0000     -10.444525      -284.2100
  15   2.0000     -10.365341      -282.0553
  16   2.0000      -5.912782      -160.8950
  17   2.0000      -5.912512      -160.8876
  18   2.0000      -5.912355      -160.8834
  19   2.0000      -5.911320      -160.8552
  20   2.0000      -5.911261      -160.8536
  21   2.0000      -2.454352       -66.7863
  22   2.0000      -1.292066       -35.1589
  23   2.0000      -1.289167       -35.0800
  24   2.0000      -1.280195       -34.8359
  25   2.0000      -0.978511       -26.6266
  26   2.0000      -0.971057       -26.4238
  27   2.0000      -0.816618       -22.2213
  28   2.0000      -0.795343       -21.6424
  29   2.0000      -0.794094       -21.6084
  30   2.0000      -0.793467       -21.5913
  31   2.0000      -0.791056       -21.5257
  32   2.0000      -0.678338       -18.4585
  33   2.0000      -0.615691       -16.7538
  34   2.0000      -0.614984       -16.7346
  35   2.0000      -0.613242       -16.6872
  36   2.0000      -0.610237       -16.6054
  37   2.0000      -0.597406       -16.2562
  38   2.0000      -0.592931       -16.1345
  39   2.0000      -0.580186       -15.7877
  40   2.0000      -0.579689       -15.7741
  41   2.0000      -0.578452       -15.7405
  42   2.0000      -0.578010       -15.7285
  43   2.0000      -0.577930       -15.7263
  44   2.0000      -0.577291       -15.7089
  45   2.0000      -0.575291       -15.6545
  46   2.0000      -0.504133       -13.7182
  47   2.0000      -0.487238       -13.2584
  48   2.0000      -0.486366       -13.2347
  49   2.0000      -0.458018       -12.4633
  50   2.0000      -0.455901       -12.4057
  51   2.0000      -0.453153       -12.3309
  52   2.0000      -0.452912       -12.3244
  53   2.0000      -0.452376       -12.3098
  54   2.0000      -0.435224       -11.8430
  55   2.0000      -0.434479       -11.8228
  56   2.0000      -0.432934       -11.7807
  57   2.0000      -0.431251       -11.7349
  58   2.0000      -0.429244       -11.6803
  59   2.0000      -0.372788       -10.1441
  60   2.0000      -0.364937        -9.9304
  61   2.0000      -0.293887        -7.9971
  62   2.0000      -0.285827        -7.7777
  63   2.0000      -0.281571        -7.6619
  64   2.0000      -0.265120        -7.2143
  65   2.0000      -0.223311        -6.0766
  66   0.0000      -0.019222        -0.5230
  67   0.0000       0.021541         0.5861
  68   0.0000       0.034719         0.9448
  69   0.0000       0.047437         1.2908
  70   0.0000       0.053958         1.4683

MULLIKEN ATOMIC CHARGES
-----------------------
   0 Lu:    0.691470
   1 C :   -0.281733
   2 C :   -0.327147
   3 C :   -0.271973
   4 C :   -0.280882
   5 C :   -0.267994
   6 H :    0.228740
   7 H :    0.232375
   8 H :    0.250502
   9 H :    0.255887
  10 H :    0.234639
  11 C :   -0.278480
  12 C :   -0.277988
  13 C :   -0.344920
  14 C :   -0.253937
  15 H :    0.229882
  16 C :   -0.261734
  17 H :    0.231710
  18 H :    0.230423
  19 H :    0.251003
  20 H :    0.263157
  21 C :   -0.975225
  22 H :    0.185938
  23 H :    0.181450
  24 H :    0.182560
  25 C :   -0.940419
  26 H :    0.301830
  27 H :    0.245593
  28 H :    0.282152
  29 H :    0.283119
Sum of atomic charges:    0.0000000

LOEWDIN ATOMIC CHARGES
----------------------
   0 Lu:   -0.065778
   1 C :   -0.137380
   2 C :   -0.152807
   3 C :   -0.133223
   4 C :   -0.147001
   5 C :   -0.144255
   6 H :    0.150816
   7 H :    0.149315
   8 H :    0.162019
   9 H :    0.163032
  10 H :    0.152752
  11 C :   -0.148797
  12 C :   -0.141404
  13 C :   -0.156741
  14 C :   -0.125399
  15 H :    0.150072
  16 C :   -0.130549
  17 H :    0.150476
  18 H :    0.151648
  19 H :    0.161350
  20 H :    0.167174
  21 C :   -0.666579
  22 H :    0.108820
  23 H :    0.109923
  24 H :    0.111229
  25 C :   -0.444538
  26 H :    0.215832
  27 H :    0.173103
  28 H :    0.158678
  29 H :    0.158210

  Mayer bond orders larger than 0.100000
B(  0-Lu,  1-C ) :   0.2511 B(  0-Lu,  2-C ) :   0.3050 B(  0-Lu,  3-C ) :   0.2648
B(  0-Lu,  4-C ) :   0.2414 B(  0-Lu,  5-C ) :   0.2485 B(  0-Lu, 11-C ) :   0.2451
B(  0-Lu, 12-C ) :   0.2562 B(  0-Lu, 13-C ) :   0.3221 B(  0-Lu, 14-C ) :   0.2580
B(  0-Lu, 16-C ) :   0.2573 B(  0-Lu, 21-C ) :   0.7465 B(  0-Lu, 25-C ) :   0.2584
B(  0-Lu, 26-H ) :   0.1299 B(  1-C ,  2-C ) :   1.2723 B(  1-C ,  5-C ) :   1.3027
B(  1-C ,  8-H ) :   0.9156 B(  2-C ,  3-C ) :   1.2708 B(  2-C ,  9-H ) :   0.9067
B(  3-C ,  4-C ) :   1.3034 B(  3-C , 10-H ) :   0.9207 B(  4-C ,  5-C ) :   1.2948
B(  4-C ,  6-H ) :   0.9251 B(  5-C ,  7-H ) :   0.9177 B( 11-C , 12-C ) :   1.2810
B( 11-C , 14-C ) :   1.3187 B( 11-C , 15-H ) :   0.9227 B( 12-C , 16-C ) :   1.3102
B( 12-C , 17-H ) :   0.9183 B( 13-C , 14-C ) :   1.2644 B( 13-C , 16-C ) :   1.2580
B( 13-C , 19-H ) :   0.9105 B( 14-C , 18-H ) :   0.9243 B( 16-C , 20-H ) :   0.9059
B( 21-C , 22-H ) :   0.9235 B( 21-C , 23-H ) :   0.9218 B( 21-C , 24-H ) :   0.9311
B( 25-C , 26-H ) :   0.7188 B( 25-C , 27-H ) :   0.8683 B( 25-C , 28-H ) :   0.8921
B( 25-C , 29-H ) :   0.8902

Dispersion correction           -0.017510603
FINAL SINGLE POINT ENERGY     -1702.340915637052
Dispersion correction            ... done

DIPOLE MOMENT
-------------
                                X             Y             Z
Electronic contribution:     -6.87435      -3.67172       4.31909
Nuclear contribution   :      7.35409       4.76107      -5.00793
                        -----------------------------------------
Total Dipole Moment    :      0.47973       1.08935      -0.68884
                        -----------------------------------------
Magnitude (a.u.)       :      1.37525
Magnitude (Debye)      :      3.49562

Rotational constants in cm-1:     0.028530     0.020065     0.017013
Rotational constants in MHz :   855.304305   601.535172   510.027862

                             ****ORCA TERMINATED NORMALLY****
TOTAL RUN TIME: 0 days 0 hours 10 minutes 16 seconds 463 msec
