                         Program Version 5.0.3 -  RELEASE  -
|  1> ! EnGrad PBEh-3c
|  2> %output
|  3> xyzfile=True
|  4> end
|  5> %scf
|  6> maxiter 250
|  7> end
|  8> %output
|  9> Print[P_Hirshfeld] = 1
| 10> end
| 11> % maxcore
| 12> 4000
| 13> *xyz 0 1
| 14> Lu   0.09820706  -0.06792491   0.05612640
| 15> C    0.38038800   0.97684856   2.39538373
| 16> C    1.30052394  -0.05571297   2.19273450
| 17> C    2.27030991   0.40358827   1.28962894
| 18> C    1.93055353   1.70882884   0.90567746
| 19> C    0.76572494   2.05695179   1.60644650
| 20> H    2.58277034   2.38067501   0.35536171
| 21> H    0.29099712   3.03139934   1.57404198
| 22> H   -0.44258953   0.96294674   3.10571613
| 23> H    1.30879587  -1.01447316   2.69142021
| 24> H    3.16211195  -0.12921917   1.01764619
| 25> C    1.04114501  -0.05552486  -2.50402279
| 26> C   -0.25222581  -0.60472918  -2.57194552
| 27> C    0.99018682  -1.94557359  -1.24231994
| 28> C    1.81590344  -0.90169560  -1.69487540
| 29> H    1.43333915   0.75091491  -3.11376586
| 30> C   -0.28529360  -1.76252464  -1.79633593
| 31> H   -1.06354354  -0.19624066  -3.16482810
| 32> H    2.87912274  -0.84043158  -1.55017720
| 33> H    1.31367929  -2.78109398  -0.63703773
| 34> H   -1.12780272  -2.43563046  -1.66767274
| 35> C   -2.30899475  -1.43128850   1.22552560
| 36> H   -2.14816382  -1.44982315   2.31637916
| 37> H   -1.98018254  -2.44075985   0.89886673
| 38> H   -3.42484738  -1.40543856   1.13284332
| 39> C   -2.02173088   1.44287080  -0.54195195
| 40> H   -2.01387649   0.42813480   0.03543833
| 41> H   -1.19485108   2.05263994  -1.00556373
| 42> H   -2.53635685   2.07392290   0.18752136
| 43> H   -2.73867558   1.23393252  -1.35811409
| 44> *
| 45>
| 46>                          ****END OF INPUT****

CARTESIAN COORDINATES (ANGSTROEM)
---------------------------------
  Lu     0.098207   -0.067925    0.056126
  C      0.380388    0.976849    2.395384
  C      1.300524   -0.055713    2.192734
  C      2.270310    0.403588    1.289629
  C      1.930554    1.708829    0.905677
  C      0.765725    2.056952    1.606446
  H      2.582770    2.380675    0.355362
  H      0.290997    3.031399    1.574042
  H     -0.442590    0.962947    3.105716
  H      1.308796   -1.014473    2.691420
  H      3.162112   -0.129219    1.017646
  C      1.041145   -0.055525   -2.504023
  C     -0.252226   -0.604729   -2.571946
  C      0.990187   -1.945574   -1.242320
  C      1.815903   -0.901696   -1.694875
  H      1.433339    0.750915   -3.113766
  C     -0.285294   -1.762525   -1.796336
  H     -1.063544   -0.196241   -3.164828
  H      2.879123   -0.840432   -1.550177
  H      1.313679   -2.781094   -0.637038
  H     -1.127803   -2.435630   -1.667673
  C     -2.308995   -1.431288    1.225526
  H     -2.148164   -1.449823    2.316379
  H     -1.980183   -2.440760    0.898867
  H     -3.424847   -1.405439    1.132843
  C     -2.021731    1.442871   -0.541952
  H     -2.013876    0.428135    0.035438
  H     -1.194851    2.052640   -1.005564
  H     -2.536357    2.073923    0.187521
  H     -2.738676    1.233933   -1.358114

 Total Charge           Charge          ....    0
 Multiplicity           Mult            ....    1
 Number of Electrons    NEL             ....  132
 Basis Dimension        Dim             ....  295

ORBITAL ENERGIES
----------------

  NO   OCC          E(Eh)            E(eV)
   0   2.0000     -19.267031      -524.2826
   1   2.0000     -12.638680      -343.9160
   2   2.0000     -12.637318      -343.8789
   3   2.0000     -12.637247      -343.8770
   4   2.0000     -10.451609      -284.4027
   5   2.0000     -10.451252      -284.3930
   6   2.0000     -10.450996      -284.3861
   7   2.0000     -10.450536      -284.3735
   8   2.0000     -10.450189      -284.3641
   9   2.0000     -10.449524      -284.3460
  10   2.0000     -10.448759      -284.3252
  11   2.0000     -10.446007      -284.2503
  12   2.0000     -10.444796      -284.2174
  13   2.0000     -10.444427      -284.2073
  14   2.0000     -10.444140      -284.1995
  15   2.0000     -10.364482      -282.0319
  16   2.0000      -5.907971      -160.7641
  17   2.0000      -5.907838      -160.7605
  18   2.0000      -5.907709      -160.7569
  19   2.0000      -5.906878      -160.7343
  20   2.0000      -5.906841      -160.7333
  21   2.0000      -2.450252       -66.6748
  22   2.0000      -1.288841       -35.0712
  23   2.0000      -1.287488       -35.0343
  24   2.0000      -1.278666       -34.7943
  25   2.0000      -0.991676       -26.9849
  26   2.0000      -0.981888       -26.7185
  27   2.0000      -0.802486       -21.8368
  28   2.0000      -0.801285       -21.8041
  29   2.0000      -0.800379       -21.7794
  30   2.0000      -0.798946       -21.7404
  31   2.0000      -0.798031       -21.7155
  32   2.0000      -0.675525       -18.3820
  33   2.0000      -0.620269       -16.8784
  34   2.0000      -0.617324       -16.7982
  35   2.0000      -0.615013       -16.7354
  36   2.0000      -0.614852       -16.7310
  37   2.0000      -0.603021       -16.4090
  38   2.0000      -0.598305       -16.2807
  39   2.0000      -0.575629       -15.6637
  40   2.0000      -0.574642       -15.6368
  41   2.0000      -0.573740       -15.6123
  42   2.0000      -0.573584       -15.6080
  43   2.0000      -0.573295       -15.6001
  44   2.0000      -0.573129       -15.5956
  45   2.0000      -0.571263       -15.5449
  46   2.0000      -0.502526       -13.6744
  47   2.0000      -0.479838       -13.0570
  48   2.0000      -0.467687       -12.7264
  49   2.0000      -0.458832       -12.4855
  50   2.0000      -0.457851       -12.4588
  51   2.0000      -0.456402       -12.4193
  52   2.0000      -0.455094       -12.3837
  53   2.0000      -0.446450       -12.1485
  54   2.0000      -0.441184       -12.0052
  55   2.0000      -0.438934       -11.9440
  56   2.0000      -0.436423       -11.8757
  57   2.0000      -0.435043       -11.8381
  58   2.0000      -0.433401       -11.7934
  59   2.0000      -0.373377       -10.1601
  60   2.0000      -0.363900        -9.9022
  61   2.0000      -0.297867        -8.1054
  62   2.0000      -0.292941        -7.9713
  63   2.0000      -0.285314        -7.7638
  64   2.0000      -0.273750        -7.4491
  65   2.0000      -0.211179        -5.7465
  66   0.0000      -0.021956        -0.5975
  67   0.0000       0.019984         0.5438
  68   0.0000       0.037625         1.0238
  69   0.0000       0.048262         1.3133
  70   0.0000       0.053484         1.4554

MULLIKEN ATOMIC CHARGES
-----------------------
   0 Lu:    0.682079
   1 C :   -0.266803
   2 C :   -0.334018
   3 C :   -0.272890
   4 C :   -0.290028
   5 C :   -0.251786
   6 H :    0.229020
   7 H :    0.234164
   8 H :    0.253059
   9 H :    0.260776
  10 H :    0.240391
  11 C :   -0.286828
  12 C :   -0.249065
  13 C :   -0.342075
  14 C :   -0.264958
  15 H :    0.229181
  16 C :   -0.266848
  17 H :    0.232830
  18 H :    0.234807
  19 H :    0.255742
  20 H :    0.262075
  21 C :   -0.980061
  22 H :    0.182995
  23 H :    0.174213
  24 H :    0.182688
  25 C :   -1.020174
  26 H :    0.353402
  27 H :    0.251966
  28 H :    0.286616
  29 H :    0.279529
Sum of atomic charges:   -0.0000000

LOEWDIN ATOMIC CHARGES
----------------------
   0 Lu:   -0.104563
   1 C :   -0.125650
   2 C :   -0.150040
   3 C :   -0.131027
   4 C :   -0.140403
   5 C :   -0.133701
   6 H :    0.153464
   7 H :    0.151034
   8 H :    0.165104
   9 H :    0.166348
  10 H :    0.154846
  11 C :   -0.145028
  12 C :   -0.128918
  13 C :   -0.156499
  14 C :   -0.124776
  15 H :    0.151552
  16 C :   -0.128252
  17 H :    0.151513
  18 H :    0.153188
  19 H :    0.163908
  20 H :    0.168656
  21 C :   -0.693838
  22 H :    0.106106
  23 H :    0.106490
  24 H :    0.110774
  25 C :   -0.494882
  26 H :    0.255445
  27 H :    0.183664
  28 H :    0.158061
  29 H :    0.157423

  Mayer bond orders larger than 0.100000
B(  0-Lu,  1-C ) :   0.2501 B(  0-Lu,  2-C ) :   0.3172 B(  0-Lu,  3-C ) :   0.2865
B(  0-Lu,  4-C ) :   0.2607 B(  0-Lu,  5-C ) :   0.2427 B(  0-Lu, 11-C ) :   0.2522
B(  0-Lu, 12-C ) :   0.2426 B(  0-Lu, 13-C ) :   0.3342 B(  0-Lu, 14-C ) :   0.2774
B(  0-Lu, 16-C ) :   0.2573 B(  0-Lu, 21-C ) :   0.6538 B(  0-Lu, 25-C ) :   0.2948
B(  0-Lu, 26-H ) :   0.1341 B(  1-C ,  2-C ) :   1.2721 B(  1-C ,  5-C ) :   1.3108
B(  1-C ,  8-H ) :   0.9144 B(  2-C ,  3-C ) :   1.2612 B(  2-C ,  9-H ) :   0.9039
B(  3-C ,  4-C ) :   1.2895 B(  3-C , 10-H ) :   0.9170 B(  4-C ,  5-C ) :   1.2923
B(  4-C ,  6-H ) :   0.9283 B(  5-C ,  7-H ) :   0.9190 B( 11-C , 12-C ) :   1.2887
B( 11-C , 14-C ) :   1.3069 B( 11-C , 15-H ) :   0.9259 B( 12-C , 16-C ) :   1.3195
B( 12-C , 17-H ) :   0.9184 B( 13-C , 14-C ) :   1.2573 B( 13-C , 16-C ) :   1.2529
B( 13-C , 19-H ) :   0.9052 B( 14-C , 18-H ) :   0.9223 B( 16-C , 20-H ) :   0.9070
B( 21-C , 22-H ) :   0.9263 B( 21-C , 23-H ) :   0.9226 B( 21-C , 24-H ) :   0.9316
B( 21-C , 26-H ) :   0.1018 B( 25-C , 26-H ) :   0.6447 B( 25-C , 27-H ) :   0.8539
B( 25-C , 28-H ) :   0.8867 B( 25-C , 29-H ) :   0.8912

Dispersion correction           -0.017861327
FINAL SINGLE POINT ENERGY     -1702.325736244823
Dispersion correction            ... done

DIPOLE MOMENT
-------------
                                X             Y             Z
Electronic contribution:     -1.57603      -2.19427       2.93367
Nuclear contribution   :      2.38302       3.14255      -3.57742
                        -----------------------------------------
Total Dipole Moment    :      0.80699       0.94828      -0.64375
                        -----------------------------------------
Magnitude (a.u.)       :      1.40174
Magnitude (Debye)      :      3.56294

Rotational constants in cm-1:     0.029495     0.020728     0.017181
Rotational constants in MHz :   884.234175   621.394821   515.076251

                             ****ORCA TERMINATED NORMALLY****
TOTAL RUN TIME: 0 days 0 hours 10 minutes 23 seconds 129 msec
