                         Program Version 5.0.3 -  RELEASE  -
|  1> ! EnGrad PBEh-3c
|  2> %output
|  3> xyzfile=True
|  4> end
|  5> %scf
|  6> maxiter 250
|  7> end
|  8> %output
|  9> Print[P_Hirshfeld] = 1
| 10> end
| 11> % maxcore
| 12> 4000
| 13> *xyz 0 1
| 14> Lu   0.08972842  -0.35958372   0.27212623
| 15> C    0.53654516   0.51240014   2.67753027
| 16> C    1.67779946  -0.23857077   2.29602132
| 17> C    2.36473420   0.48252699   1.27950201
| 18> C    1.61327839   1.65772366   1.00593813
| 19> C    0.49091416   1.68220503   1.88367336
| 20> H    1.86340353   2.41665772   0.29222532
| 21> H   -0.19771885   2.47709604   1.98912683
| 22> H   -0.15002188   0.26224894   3.45232921
| 23> H    1.97769182  -1.16727834   2.72079386
| 24> H    3.26727680   0.19966894   0.81099417
| 25> C    0.68294987  -0.14930188  -2.29516986
| 26> C   -0.50623899  -0.93527076  -2.23169652
| 27> C    1.18431194  -2.14226580  -1.27406358
| 28> C    1.73495525  -0.90806020  -1.72456715
| 29> H    0.77413810   0.81802459  -2.74771133
| 30> C   -0.19182747  -2.14583009  -1.59875843
| 31> H   -1.44499117  -0.69191795  -2.67364570
| 32> H    2.75372061  -0.60726666  -1.65052883
| 33> H    1.71990055  -2.93513886  -0.80488782
| 34> H   -0.88605066  -2.94429220  -1.42133714
| 35> C   -2.00902255  -1.35570841   1.12670442
| 36> H   -2.36433016  -1.00795710   2.12597899
| 37> H   -2.07524485  -2.46035454   1.20101988
| 38> H   -2.86203575  -1.12817584   0.44279698
| 39> C   -2.01578973   2.07568364  -0.97391360
| 40> H   -2.16849669   1.18139127  -0.17831097
| 41> H   -0.94959508   2.63983893  -1.25882343
| 42> H   -2.59161810   2.96764066  -0.71244047
| 43> H   -2.32165642   1.80636656  -2.01078966
| 44> *
| 45>
| 46>                          ****END OF INPUT****

CARTESIAN COORDINATES (ANGSTROEM)
---------------------------------
  Lu     0.089728   -0.359584    0.272126
  C      0.536545    0.512400    2.677530
  C      1.677799   -0.238571    2.296021
  C      2.364734    0.482527    1.279502
  C      1.613278    1.657724    1.005938
  C      0.490914    1.682205    1.883673
  H      1.863404    2.416658    0.292225
  H     -0.197719    2.477096    1.989127
  H     -0.150022    0.262249    3.452329
  H      1.977692   -1.167278    2.720794
  H      3.267277    0.199669    0.810994
  C      0.682950   -0.149302   -2.295170
  C     -0.506239   -0.935271   -2.231697
  C      1.184312   -2.142266   -1.274064
  C      1.734955   -0.908060   -1.724567
  H      0.774138    0.818025   -2.747711
  C     -0.191827   -2.145830   -1.598758
  H     -1.444991   -0.691918   -2.673646
  H      2.753721   -0.607267   -1.650529
  H      1.719901   -2.935139   -0.804888
  H     -0.886051   -2.944292   -1.421337
  C     -2.009023   -1.355708    1.126704
  H     -2.364330   -1.007957    2.125979
  H     -2.075245   -2.460355    1.201020
  H     -2.862036   -1.128176    0.442797
  C     -2.015790    2.075684   -0.973914
  H     -2.168497    1.181391   -0.178311
  H     -0.949595    2.639839   -1.258823
  H     -2.591618    2.967641   -0.712440
  H     -2.321656    1.806367   -2.010790

 Total Charge           Charge          ....    0
 Multiplicity           Mult            ....    1
 Number of Electrons    NEL             ....  132
 Basis Dimension        Dim             ....  295

ORBITAL ENERGIES
----------------

  NO   OCC          E(Eh)            E(eV)
   0   2.0000     -19.255210      -523.9609
   1   2.0000     -12.627764      -343.6189
   2   2.0000     -12.625162      -343.5481
   3   2.0000     -12.624836      -343.5392
   4   2.0000     -10.472107      -284.9605
   5   2.0000     -10.449340      -284.3410
   6   2.0000     -10.448611      -284.3212
   7   2.0000     -10.448267      -284.3118
   8   2.0000     -10.446538      -284.2648
   9   2.0000     -10.446325      -284.2590
  10   2.0000     -10.446136      -284.2538
  11   2.0000     -10.444417      -284.2070
  12   2.0000     -10.443867      -284.1921
  13   2.0000     -10.442784      -284.1626
  14   2.0000     -10.441281      -284.1217
  15   2.0000     -10.367419      -282.1118
  16   2.0000      -5.896839      -160.4611
  17   2.0000      -5.896461      -160.4509
  18   2.0000      -5.896039      -160.4394
  19   2.0000      -5.894485      -160.3971
  20   2.0000      -5.894382      -160.3943
  21   2.0000      -2.438586       -66.3573
  22   2.0000      -1.276427       -34.7333
  23   2.0000      -1.275768       -34.7154
  24   2.0000      -1.264152       -34.3993
  25   2.0000      -0.975391       -26.5417
  26   2.0000      -0.966689       -26.3049
  27   2.0000      -0.796024       -21.6609
  28   2.0000      -0.793570       -21.5941
  29   2.0000      -0.791843       -21.5472
  30   2.0000      -0.791176       -21.5290
  31   2.0000      -0.782174       -21.2840
  32   2.0000      -0.692232       -18.8366
  33   2.0000      -0.620155       -16.8753
  34   2.0000      -0.615641       -16.7525
  35   2.0000      -0.614115       -16.7109
  36   2.0000      -0.610699       -16.6180
  37   2.0000      -0.598818       -16.2947
  38   2.0000      -0.593782       -16.1576
  39   2.0000      -0.564552       -15.3622
  40   2.0000      -0.563306       -15.3283
  41   2.0000      -0.562976       -15.3193
  42   2.0000      -0.561998       -15.2927
  43   2.0000      -0.561516       -15.2796
  44   2.0000      -0.560190       -15.2436
  45   2.0000      -0.558563       -15.1993
  46   2.0000      -0.483039       -13.1442
  47   2.0000      -0.466086       -12.6828
  48   2.0000      -0.463620       -12.6157
  49   2.0000      -0.455729       -12.4010
  50   2.0000      -0.453486       -12.3400
  51   2.0000      -0.451605       -12.2888
  52   2.0000      -0.450240       -12.2517
  53   2.0000      -0.435491       -11.8503
  54   2.0000      -0.433525       -11.7968
  55   2.0000      -0.433008       -11.7828
  56   2.0000      -0.429704       -11.6928
  57   2.0000      -0.427732       -11.6392
  58   2.0000      -0.424472       -11.5505
  59   2.0000      -0.382461       -10.4073
  60   2.0000      -0.378456       -10.2983
  61   2.0000      -0.289841        -7.8870
  62   2.0000      -0.285937        -7.7807
  63   2.0000      -0.277284        -7.5453
  64   2.0000      -0.267102        -7.2682
  65   2.0000      -0.255940        -6.9645
  66   0.0000      -0.016472        -0.4482
  67   0.0000       0.003588         0.0976
  68   0.0000       0.038439         1.0460
  69   0.0000       0.053367         1.4522
  70   0.0000       0.054677         1.4878

MULLIKEN ATOMIC CHARGES
-----------------------
   0 Lu:    0.839231
   1 C :   -0.256011
   2 C :   -0.326888
   3 C :   -0.259183
   4 C :   -0.298104
   5 C :   -0.295490
   6 H :    0.236215
   7 H :    0.239301
   8 H :    0.247416
   9 H :    0.246651
  10 H :    0.236518
  11 C :   -0.306432
  12 C :   -0.286022
  13 C :   -0.324487
  14 C :   -0.257646
  15 H :    0.232234
  16 C :   -0.250538
  17 H :    0.234156
  18 H :    0.233273
  19 H :    0.241918
  20 H :    0.248553
  21 C :   -1.045368
  22 H :    0.203475
  23 H :    0.211329
  24 H :    0.196476
  25 C :   -0.912316
  26 H :    0.247550
  27 H :    0.209923
  28 H :    0.261861
  29 H :    0.252406
Sum of atomic charges:   -0.0000000

LOEWDIN ATOMIC CHARGES
----------------------
   0 Lu:    0.013800
   1 C :   -0.125652
   2 C :   -0.150635
   3 C :   -0.130340
   4 C :   -0.146752
   5 C :   -0.144145
   6 H :    0.151762
   7 H :    0.154000
   8 H :    0.159510
   9 H :    0.156611
  10 H :    0.151870
  11 C :   -0.152239
  12 C :   -0.141747
  13 C :   -0.155080
  14 C :   -0.129547
  15 H :    0.150191
  16 C :   -0.123991
  17 H :    0.152985
  18 H :    0.150657
  19 H :    0.154733
  20 H :    0.159966
  21 C :   -0.650834
  22 H :    0.123215
  23 H :    0.130472
  24 H :    0.124350
  25 C :   -0.500466
  26 H :    0.186851
  27 H :    0.147855
  28 H :    0.141355
  29 H :    0.141245

  Mayer bond orders larger than 0.100000
B(  0-Lu,  1-C ) :   0.2393 B(  0-Lu,  2-C ) :   0.2849 B(  0-Lu,  3-C ) :   0.2569
B(  0-Lu,  4-C ) :   0.2632 B(  0-Lu,  5-C ) :   0.2670 B(  0-Lu, 11-C ) :   0.2659
B(  0-Lu, 12-C ) :   0.2564 B(  0-Lu, 13-C ) :   0.2846 B(  0-Lu, 14-C ) :   0.2556
B(  0-Lu, 16-C ) :   0.2359 B(  0-Lu, 21-C ) :   0.8020 B(  1-C ,  2-C ) :   1.2837
B(  1-C ,  5-C ) :   1.3031 B(  1-C ,  8-H ) :   0.9160 B(  2-C ,  3-C ) :   1.2812
B(  2-C ,  9-H ) :   0.9121 B(  3-C ,  4-C ) :   1.3021 B(  3-C , 10-H ) :   0.9171
B(  4-C ,  5-C ) :   1.2745 B(  4-C ,  6-H ) :   0.9166 B(  5-C ,  7-H ) :   0.9204
B( 11-C , 12-C ) :   1.2674 B( 11-C , 14-C ) :   1.3082 B( 11-C , 15-H ) :   0.9186
B( 12-C , 16-C ) :   1.3194 B( 12-C , 17-H ) :   0.9216 B( 13-C , 14-C ) :   1.2795
B( 13-C , 16-C ) :   1.2822 B( 13-C , 19-H ) :   0.9142 B( 14-C , 18-H ) :   0.9180
B( 16-C , 20-H ) :   0.9133 B( 21-C , 22-H ) :   0.9152 B( 21-C , 23-H ) :   0.9128
B( 21-C , 24-H ) :   0.9061 B( 25-C , 26-H ) :   0.8745 B( 25-C , 27-H ) :   0.9197
B( 25-C , 28-H ) :   0.9021 B( 25-C , 29-H ) :   0.9046

Dispersion correction           -0.017345898
FINAL SINGLE POINT ENERGY     -1702.356743570828
Dispersion correction            ... done

DIPOLE MOMENT
-------------
                                X             Y             Z
Electronic contribution:     -2.38372     -15.24086      12.83112
Nuclear contribution   :      2.69028      15.98651     -13.27806
                        -----------------------------------------
Total Dipole Moment    :      0.30656       0.74565      -0.44693
                        -----------------------------------------
Magnitude (a.u.)       :      0.92181
Magnitude (Debye)      :      2.34305

Rotational constants in cm-1:     0.028120     0.019389     0.017476
Rotational constants in MHz :   843.013814   581.279553   523.910545

                             ****ORCA TERMINATED NORMALLY****
TOTAL RUN TIME: 0 days 0 hours 9 minutes 32 seconds 597 msec
