                         Program Version 5.0.3 -  RELEASE  -
|  1> ! EnGrad PBEh-3c
|  2> %output
|  3> xyzfile=True
|  4> end
|  5> %scf
|  6> maxiter 250
|  7> end
|  8> %output
|  9> Print[P_Hirshfeld] = 1
| 10> end
| 11> % maxcore
| 12> 4000
| 13> *xyz 0 1
| 14> Lu   0.03393251  -0.31338811   0.25496261
| 15> C    0.52868222   0.57618833   2.65673569
| 16> C    1.63778781  -0.21544104   2.28877060
| 17> C    2.35243856   0.47091028   1.29042739
| 18> C    1.66332798   1.66543220   1.01066153
| 19> C    0.53004326   1.72349561   1.85276815
| 20> H    1.94515621   2.42235675   0.28017108
| 21> H   -0.15124651   2.56718746   1.94413806
| 22> H   -0.18861106   0.34399592   3.43240286
| 23> H    1.90313399  -1.17148220   2.72908483
| 24> H    3.28594077   0.15253361   0.82935780
| 25> C    0.72807739  -0.15135467  -2.32801820
| 26> C   -0.47334701  -0.89681402  -2.27053116
| 27> C    1.16367876  -2.12195853  -1.27329286
| 28> C    1.74170379  -0.91814806  -1.72635091
| 29> H    0.84647713   0.82848570  -2.78699760
| 30> C   -0.20045436  -2.11290180  -1.63080002
| 31> H   -1.41179718  -0.63255858  -2.74647630
| 32> H    2.78770737  -0.63313125  -1.64022882
| 33> H    1.68137643  -2.93678123  -0.78094440
| 34> H   -0.92005558  -2.89166867  -1.44825702
| 35> C   -2.01100480  -1.39546758   1.13377017
| 36> H   -2.34251752  -1.07874461   2.15183481
| 37> H   -2.06397386  -2.50700587   1.20415289
| 38> H   -2.91995124  -1.19138226   0.50650259
| 39> C   -2.05718399   1.96642284  -0.87764822
| 40> H   -2.11732806   1.22000440  -0.23425593
| 41> H   -1.00964312   2.57104429  -1.22045185
| 42> H   -2.59457562   2.90379673  -0.63149854
| 43> H   -2.37347329   1.76037706  -1.92855155
| 44> *
| 45>
| 46>                          ****END OF INPUT****

CARTESIAN COORDINATES (ANGSTROEM)
---------------------------------
  Lu     0.033933   -0.313388    0.254963
  C      0.528682    0.576188    2.656736
  C      1.637788   -0.215441    2.288771
  C      2.352439    0.470910    1.290427
  C      1.663328    1.665432    1.010662
  C      0.530043    1.723496    1.852768
  H      1.945156    2.422357    0.280171
  H     -0.151247    2.567187    1.944138
  H     -0.188611    0.343996    3.432403
  H      1.903134   -1.171482    2.729085
  H      3.285941    0.152534    0.829358
  C      0.728077   -0.151355   -2.328018
  C     -0.473347   -0.896814   -2.270531
  C      1.163679   -2.121959   -1.273293
  C      1.741704   -0.918148   -1.726351
  H      0.846477    0.828486   -2.786998
  C     -0.200454   -2.112902   -1.630800
  H     -1.411797   -0.632559   -2.746476
  H      2.787707   -0.633131   -1.640229
  H      1.681376   -2.936781   -0.780944
  H     -0.920056   -2.891669   -1.448257
  C     -2.011005   -1.395468    1.133770
  H     -2.342518   -1.078745    2.151835
  H     -2.063974   -2.507006    1.204153
  H     -2.919951   -1.191382    0.506503
  C     -2.057184    1.966423   -0.877648
  H     -2.117328    1.220004   -0.234256
  H     -1.009643    2.571044   -1.220452
  H     -2.594576    2.903797   -0.631499
  H     -2.373473    1.760377   -1.928552

 Total Charge           Charge          ....    0
 Multiplicity           Mult            ....    1
 Number of Electrons    NEL             ....  132
 Basis Dimension        Dim             ....  295

ORBITAL ENERGIES
----------------

  NO   OCC          E(Eh)            E(eV)
   0   2.0000     -19.261145      -524.1224
   1   2.0000     -12.633697      -343.7804
   2   2.0000     -12.631121      -343.7103
   3   2.0000     -12.630835      -343.7025
   4   2.0000     -10.459976      -284.6304
   5   2.0000     -10.448665      -284.3226
   6   2.0000     -10.447382      -284.2877
   7   2.0000     -10.446951      -284.2760
   8   2.0000     -10.446100      -284.2528
   9   2.0000     -10.445412      -284.2341
  10   2.0000     -10.444942      -284.2213
  11   2.0000     -10.443202      -284.1740
  12   2.0000     -10.442644      -284.1588
  13   2.0000     -10.441773      -284.1351
  14   2.0000     -10.439518      -284.0737
  15   2.0000     -10.369848      -282.1779
  16   2.0000      -5.902825      -160.6240
  17   2.0000      -5.902422      -160.6131
  18   2.0000      -5.902045      -160.6028
  19   2.0000      -5.900511      -160.5611
  20   2.0000      -5.900390      -160.5578
  21   2.0000      -2.444302       -66.5128
  22   2.0000      -1.281838       -34.8806
  23   2.0000      -1.280027       -34.8313
  24   2.0000      -1.269278       -34.5388
  25   2.0000      -0.980405       -26.6782
  26   2.0000      -0.972007       -26.4496
  27   2.0000      -0.806652       -21.9501
  28   2.0000      -0.794949       -21.6317
  29   2.0000      -0.792446       -21.5635
  30   2.0000      -0.790230       -21.5032
  31   2.0000      -0.789207       -21.4754
  32   2.0000      -0.693016       -18.8579
  33   2.0000      -0.613590       -16.6966
  34   2.0000      -0.610527       -16.6133
  35   2.0000      -0.608462       -16.5571
  36   2.0000      -0.607235       -16.5237
  37   2.0000      -0.595150       -16.1949
  38   2.0000      -0.590233       -16.0610
  39   2.0000      -0.570387       -15.5210
  40   2.0000      -0.569322       -15.4920
  41   2.0000      -0.568852       -15.4793
  42   2.0000      -0.567924       -15.4540
  43   2.0000      -0.567405       -15.4399
  44   2.0000      -0.566110       -15.4046
  45   2.0000      -0.564475       -15.3602
  46   2.0000      -0.536287       -14.5931
  47   2.0000      -0.466760       -12.7012
  48   2.0000      -0.461774       -12.5655
  49   2.0000      -0.452635       -12.3168
  50   2.0000      -0.449959       -12.2440
  51   2.0000      -0.448241       -12.1973
  52   2.0000      -0.446503       -12.1500
  53   2.0000      -0.434667       -11.8279
  54   2.0000      -0.432446       -11.7675
  55   2.0000      -0.431700       -11.7472
  56   2.0000      -0.428921       -11.6715
  57   2.0000      -0.427643       -11.6368
  58   2.0000      -0.420621       -11.4457
  59   2.0000      -0.380759       -10.3610
  60   2.0000      -0.376715       -10.2509
  61   2.0000      -0.290907        -7.9160
  62   2.0000      -0.285104        -7.7581
  63   2.0000      -0.277116        -7.5407
  64   2.0000      -0.266120        -7.2415
  65   2.0000      -0.260117        -7.0781
  66   0.0000      -0.014727        -0.4008
  67   0.0000       0.006514         0.1773
  68   0.0000       0.037775         1.0279
  69   0.0000       0.054667         1.4876
  70   0.0000       0.055613         1.5133

MULLIKEN ATOMIC CHARGES
-----------------------
   0 Lu:    0.852995
   1 C :   -0.248785
   2 C :   -0.327622
   3 C :   -0.266594
   4 C :   -0.273115
   5 C :   -0.322465
   6 H :    0.234676
   7 H :    0.237190
   8 H :    0.247911
   9 H :    0.245922
  10 H :    0.233342
  11 C :   -0.289266
  12 C :   -0.312946
  13 C :   -0.332012
  14 C :   -0.255194
  15 H :    0.230836
  16 C :   -0.237663
  17 H :    0.231774
  18 H :    0.230037
  19 H :    0.240128
  20 H :    0.250157
  21 C :   -1.051361
  22 H :    0.204457
  23 H :    0.211337
  24 H :    0.197928
  25 C :   -0.953889
  26 H :    0.287192
  27 H :    0.209777
  28 H :    0.266296
  29 H :    0.258956
Sum of atomic charges:   -0.0000000

LOEWDIN ATOMIC CHARGES
----------------------
   0 Lu:    0.046488
   1 C :   -0.131160
   2 C :   -0.152583
   3 C :   -0.132643
   4 C :   -0.147832
   5 C :   -0.152791
   6 H :    0.151556
   7 H :    0.154449
   8 H :    0.160431
   9 H :    0.157728
  10 H :    0.152495
  11 C :   -0.153609
  12 C :   -0.150993
  13 C :   -0.156339
  14 C :   -0.132243
  15 H :    0.149663
  16 C :   -0.126755
  17 H :    0.152753
  18 H :    0.150460
  19 H :    0.154969
  20 H :    0.160654
  21 C :   -0.650415
  22 H :    0.123424
  23 H :    0.130262
  24 H :    0.124725
  25 C :   -0.494374
  26 H :    0.162730
  27 H :    0.152723
  28 H :    0.148844
  29 H :    0.147383

  Mayer bond orders larger than 0.100000
B(  0-Lu,  1-C ) :   0.2393 B(  0-Lu,  2-C ) :   0.2824 B(  0-Lu,  3-C ) :   0.2473
B(  0-Lu,  4-C ) :   0.2522 B(  0-Lu,  5-C ) :   0.2716 B(  0-Lu, 11-C ) :   0.2586
B(  0-Lu, 12-C ) :   0.2629 B(  0-Lu, 13-C ) :   0.2816 B(  0-Lu, 14-C ) :   0.2454
B(  0-Lu, 16-C ) :   0.2348 B(  0-Lu, 21-C ) :   0.8058 B(  1-C ,  2-C ) :   1.2836
B(  1-C ,  5-C ) :   1.3002 B(  1-C ,  8-H ) :   0.9137 B(  2-C ,  3-C ) :   1.2851
B(  2-C ,  9-H ) :   0.9113 B(  3-C ,  4-C ) :   1.3119 B(  3-C , 10-H ) :   0.9179
B(  4-C ,  5-C ) :   1.2737 B(  4-C ,  6-H ) :   0.9150 B(  5-C ,  7-H ) :   0.9190
B( 11-C , 12-C ) :   1.2673 B( 11-C , 14-C ) :   1.3155 B( 11-C , 15-H ) :   0.9169
B( 12-C , 16-C ) :   1.3142 B( 12-C , 17-H ) :   0.9213 B( 13-C , 14-C ) :   1.2839
B( 13-C , 16-C ) :   1.2848 B( 13-C , 19-H ) :   0.9146 B( 14-C , 18-H ) :   0.9186
B( 16-C , 20-H ) :   0.9111 B( 21-C , 22-H ) :   0.9133 B( 21-C , 23-H ) :   0.9138
B( 21-C , 24-H ) :   0.9072 B( 25-C , 26-H ) :   0.8609 B( 25-C , 27-H ) :   0.9191
B( 25-C , 28-H ) :   0.9044 B( 25-C , 29-H ) :   0.9054

Dispersion correction           -0.017310752
FINAL SINGLE POINT ENERGY     -1702.348803128041
Dispersion correction            ... done

DIPOLE MOMENT
-------------
                                X             Y             Z
Electronic contribution:     -5.30205     -12.90225      11.99093
Nuclear contribution   :      5.51276      13.76341     -12.45839
                        -----------------------------------------
Total Dipole Moment    :      0.21072       0.86115      -0.46746
                        -----------------------------------------
Magnitude (a.u.)       :      1.00225
Magnitude (Debye)      :      2.54752

Rotational constants in cm-1:     0.028325     0.019426     0.017394
Rotational constants in MHz :   849.153998   582.373030   521.468057

                             ****ORCA TERMINATED NORMALLY****
TOTAL RUN TIME: 0 days 0 hours 9 minutes 29 seconds 86 msec
