                         Program Version 5.0.3 -  RELEASE  -
|  1> ! EnGrad PBEh-3c
|  2> %output
|  3> xyzfile=True
|  4> end
|  5> %scf
|  6> maxiter 250
|  7> end
|  8> %output
|  9> Print[P_Hirshfeld] = 1
| 10> end
| 11> % maxcore
| 12> 4000
| 13> *xyz 0 1
| 14> Lu   0.06959296  -0.34291278   0.26593227
| 15> C    0.53370761   0.53541984   2.67002598
| 16> C    1.66336017  -0.23022378   2.29340470
| 17> C    2.36029698   0.47833478   1.28344473
| 18> C    1.63134014   1.66050550   1.00764270
| 19> C    0.50503495   1.69710585   1.87252038
| 20> H    1.89290620   2.41871437   0.28787522
| 21> H   -0.18094804   2.50960797   1.97289142
| 22> H   -0.16394783   0.29174955   3.44513825
| 23> H    1.95078561  -1.16879542   2.72378588
| 24> H    3.27401220   0.18265888   0.81762118
| 25> C    0.69923536  -0.15004268  -2.30702408
| 26> C   -0.49436903  -0.92139260  -2.24571105
| 27> C    1.17686590  -2.13493737  -1.27378544
| 28> C    1.73739065  -0.91170068  -1.72521086
| 29> H    0.80024360   0.82179977  -2.76188885
| 30> C   -0.19494072  -2.13394702  -1.61032151
| 31> H   -1.43301222  -0.67049651  -2.69992859
| 32> H    2.76598565  -0.61660060  -1.64681179
| 33> H    1.70599807  -2.93573155  -0.79624719
| 34> H   -0.89832225  -2.92530157  -1.43105191
| 35> C   -2.00973790  -1.37005659   1.12925428
| 36> H   -2.35645848  -1.03350269   2.13530977
| 37> H   -2.07117741  -2.47718994   1.20215051
| 38> H   -2.88293612  -1.15098559   0.46578687
| 39> C   -2.03072797   2.03625392  -0.93917363
| 40> H   -2.15003110   1.19532587  -0.19850022
| 41> H   -0.97126504   2.61501252  -1.24497601
| 42> H   -2.59268541   2.94460085  -0.68323038
| 43> H   -2.34035594   1.78977000  -1.98111181
| 44> *
| 45>
| 46>                          ****END OF INPUT****

CARTESIAN COORDINATES (ANGSTROEM)
---------------------------------
  Lu     0.069593   -0.342913    0.265932
  C      0.533708    0.535420    2.670026
  C      1.663360   -0.230224    2.293405
  C      2.360297    0.478335    1.283445
  C      1.631340    1.660505    1.007643
  C      0.505035    1.697106    1.872520
  H      1.892906    2.418714    0.287875
  H     -0.180948    2.509608    1.972891
  H     -0.163948    0.291750    3.445138
  H      1.950786   -1.168795    2.723786
  H      3.274012    0.182659    0.817621
  C      0.699235   -0.150043   -2.307024
  C     -0.494369   -0.921393   -2.245711
  C      1.176866   -2.134937   -1.273785
  C      1.737391   -0.911701   -1.725211
  H      0.800244    0.821800   -2.761889
  C     -0.194941   -2.133947   -1.610322
  H     -1.433012   -0.670497   -2.699929
  H      2.765986   -0.616601   -1.646812
  H      1.705998   -2.935732   -0.796247
  H     -0.898322   -2.925302   -1.431052
  C     -2.009738   -1.370057    1.129254
  H     -2.356458   -1.033503    2.135310
  H     -2.071177   -2.477190    1.202151
  H     -2.882936   -1.150986    0.465787
  C     -2.030728    2.036254   -0.939174
  H     -2.150031    1.195326   -0.198500
  H     -0.971265    2.615013   -1.244976
  H     -2.592685    2.944601   -0.683230
  H     -2.340356    1.789770   -1.981112

 Total Charge           Charge          ....    0
 Multiplicity           Mult            ....    1
 Number of Electrons    NEL             ....  132
 Basis Dimension        Dim             ....  295

ORBITAL ENERGIES
----------------

  NO   OCC          E(Eh)            E(eV)
   0   2.0000     -19.257317      -524.0182
   1   2.0000     -12.629873      -343.6763
   2   2.0000     -12.627277      -343.6057
   3   2.0000     -12.626965      -343.5972
   4   2.0000     -10.467539      -284.8362
   5   2.0000     -10.449047      -284.3330
   6   2.0000     -10.448131      -284.3081
   7   2.0000     -10.447785      -284.2987
   8   2.0000     -10.446183      -284.2551
   9   2.0000     -10.446110      -284.2531
  10   2.0000     -10.445656      -284.2408
  11   2.0000     -10.443929      -284.1938
  12   2.0000     -10.443408      -284.1796
  13   2.0000     -10.442375      -284.1515
  14   2.0000     -10.440626      -284.1039
  15   2.0000     -10.368199      -282.1330
  16   2.0000      -5.898966      -160.5190
  17   2.0000      -5.898579      -160.5085
  18   2.0000      -5.898173      -160.4974
  19   2.0000      -5.896624      -160.4553
  20   2.0000      -5.896515      -160.4523
  21   2.0000      -2.440616       -66.4125
  22   2.0000      -1.278352       -34.7857
  23   2.0000      -1.277273       -34.7564
  24   2.0000      -1.265970       -34.4488
  25   2.0000      -0.977227       -26.5917
  26   2.0000      -0.968779       -26.3618
  27   2.0000      -0.795832       -21.6557
  28   2.0000      -0.793229       -21.5849
  29   2.0000      -0.792071       -21.5533
  30   2.0000      -0.791297       -21.5323
  31   2.0000      -0.787761       -21.4361
  32   2.0000      -0.692632       -18.8475
  33   2.0000      -0.617745       -16.8097
  34   2.0000      -0.613751       -16.7010
  35   2.0000      -0.612045       -16.6546
  36   2.0000      -0.609495       -16.5852
  37   2.0000      -0.597587       -16.2612
  38   2.0000      -0.592593       -16.1253
  39   2.0000      -0.566622       -15.4186
  40   2.0000      -0.565436       -15.3863
  41   2.0000      -0.565068       -15.3763
  42   2.0000      -0.564109       -15.3502
  43   2.0000      -0.563607       -15.3365
  44   2.0000      -0.562291       -15.3007
  45   2.0000      -0.560667       -15.2565
  46   2.0000      -0.501399       -13.6438
  47   2.0000      -0.466106       -12.6834
  48   2.0000      -0.462982       -12.5984
  49   2.0000      -0.454767       -12.3749
  50   2.0000      -0.452318       -12.3082
  51   2.0000      -0.450435       -12.2570
  52   2.0000      -0.448981       -12.2174
  53   2.0000      -0.434897       -11.8341
  54   2.0000      -0.433107       -11.7854
  55   2.0000      -0.432605       -11.7718
  56   2.0000      -0.429384       -11.6841
  57   2.0000      -0.428400       -11.6574
  58   2.0000      -0.423135       -11.5141
  59   2.0000      -0.381974       -10.3941
  60   2.0000      -0.378026       -10.2866
  61   2.0000      -0.290255        -7.8982
  62   2.0000      -0.285668        -7.7734
  63   2.0000      -0.277285        -7.5453
  64   2.0000      -0.266659        -7.2561
  65   2.0000      -0.257664        -7.0114
  66   0.0000      -0.015815        -0.4303
  67   0.0000       0.004752         0.1293
  68   0.0000       0.038583         1.0499
  69   0.0000       0.054037         1.4704
  70   0.0000       0.055044         1.4978

MULLIKEN ATOMIC CHARGES
-----------------------
   0 Lu:    0.845060
   1 C :   -0.253255
   2 C :   -0.327127
   3 C :   -0.262098
   4 C :   -0.289051
   5 C :   -0.305613
   6 H :    0.235782
   7 H :    0.238685
   8 H :    0.247655
   9 H :    0.246434
  10 H :    0.235520
  11 C :   -0.300363
  12 C :   -0.295829
  13 C :   -0.327211
  14 C :   -0.256838
  15 H :    0.231881
  16 C :   -0.245696
  17 H :    0.233347
  18 H :    0.232184
  19 H :    0.241319
  20 H :    0.249118
  21 C :   -1.047919
  22 H :    0.203888
  23 H :    0.211321
  24 H :    0.197255
  25 C :   -0.928472
  26 H :    0.261869
  27 H :    0.210117
  28 H :    0.263293
  29 H :    0.254744
Sum of atomic charges:    0.0000000

LOEWDIN ATOMIC CHARGES
----------------------
   0 Lu:    0.025781
   1 C :   -0.127618
   2 C :   -0.151341
   3 C :   -0.131216
   4 C :   -0.147132
   5 C :   -0.147453
   6 H :    0.151720
   7 H :    0.154260
   8 H :    0.159850
   9 H :    0.157019
  10 H :    0.152180
  11 C :   -0.152736
  12 C :   -0.145150
  13 C :   -0.155533
  14 C :   -0.130515
  15 H :    0.150050
  16 C :   -0.124925
  17 H :    0.152948
  18 H :    0.150631
  19 H :    0.154830
  20 H :    0.160197
  21 C :   -0.650790
  22 H :    0.123324
  23 H :    0.130417
  24 H :    0.124550
  25 C :   -0.500142
  26 H :    0.180641
  27 H :    0.149434
  28 H :    0.143647
  29 H :    0.143071

  Mayer bond orders larger than 0.100000
B(  0-Lu,  1-C ) :   0.2392 B(  0-Lu,  2-C ) :   0.2840 B(  0-Lu,  3-C ) :   0.2534
B(  0-Lu,  4-C ) :   0.2593 B(  0-Lu,  5-C ) :   0.2689 B(  0-Lu, 11-C ) :   0.2634
B(  0-Lu, 12-C ) :   0.2589 B(  0-Lu, 13-C ) :   0.2835 B(  0-Lu, 14-C ) :   0.2520
B(  0-Lu, 16-C ) :   0.2355 B(  0-Lu, 21-C ) :   0.8035 B(  1-C ,  2-C ) :   1.2839
B(  1-C ,  5-C ) :   1.3021 B(  1-C ,  8-H ) :   0.9151 B(  2-C ,  3-C ) :   1.2826
B(  2-C ,  9-H ) :   0.9118 B(  3-C ,  4-C ) :   1.3058 B(  3-C , 10-H ) :   0.9174
B(  4-C ,  5-C ) :   1.2742 B(  4-C ,  6-H ) :   0.9159 B(  5-C ,  7-H ) :   0.9200
B( 11-C , 12-C ) :   1.2674 B( 11-C , 14-C ) :   1.3109 B( 11-C , 15-H ) :   0.9179
B( 12-C , 16-C ) :   1.3176 B( 12-C , 17-H ) :   0.9215 B( 13-C , 14-C ) :   1.2811
B( 13-C , 16-C ) :   1.2833 B( 13-C , 19-H ) :   0.9143 B( 14-C , 18-H ) :   0.9182
B( 16-C , 20-H ) :   0.9125 B( 21-C , 22-H ) :   0.9145 B( 21-C , 23-H ) :   0.9132
B( 21-C , 24-H ) :   0.9064 B( 25-C , 26-H ) :   0.8707 B( 25-C , 27-H ) :   0.9194
B( 25-C , 28-H ) :   0.9032 B( 25-C , 29-H ) :   0.9049

Dispersion correction           -0.017332727
FINAL SINGLE POINT ENERGY     -1702.362129137238
Dispersion correction            ... done

DIPOLE MOMENT
-------------
                                X             Y             Z
Electronic contribution:     -3.43547     -14.39980      12.52993
Nuclear contribution   :      3.70885      15.18424     -12.98226
                        -----------------------------------------
Total Dipole Moment    :      0.27338       0.78445      -0.45233
                        -----------------------------------------
Magnitude (a.u.)       :      0.94588
Magnitude (Debye)      :      2.40425

Rotational constants in cm-1:     0.028206     0.019399     0.017454
Rotational constants in MHz :   845.579636   581.581768   523.254118

                             ****ORCA TERMINATED NORMALLY****
TOTAL RUN TIME: 0 days 0 hours 9 minutes 28 seconds 273 msec
