                         Program Version 5.0.3 -  RELEASE  -
|  1> ! EnGrad PBEh-3c
|  2> %output
|  3> xyzfile=True
|  4> end
|  5> %scf
|  6> maxiter 250
|  7> end
|  8> %output
|  9> Print[P_Hirshfeld] = 1
| 10> end
| 11> % maxcore
| 12> 4000
| 13> *xyz 0 1
| 14> Lu   0.03368578  -0.31061493   0.24987633
| 15> C    0.52800794   0.58247665   2.65139658
| 16> C    1.63111954  -0.20969657   2.28615246
| 17> C    2.34398979   0.47217709   1.29114473
| 18> C    1.66765407   1.66447707   1.01069109
| 19> C    0.53994634   1.72676963   1.84764434
| 20> H    1.95661520   2.42236533   0.28069546
| 21> H   -0.14694616   2.57750312   1.93760089
| 22> H   -0.19421571   0.35377246   3.43023022
| 23> H    1.89409569  -1.17198550   2.73030335
| 24> H    3.28774099   0.14608364   0.83160967
| 25> C    0.73228293  -0.15254921  -2.33039740
| 26> C   -0.46439775  -0.88898561  -2.27665043
| 27> C    1.15999621  -2.11447267  -1.27267856
| 28> C    1.73789486  -0.91812667  -1.72408367
| 29> H    0.85626165   0.82806653  -2.79258895
| 30> C   -0.20100123  -2.10794327  -1.63392761
| 31> H   -1.40840002  -0.62450967  -2.75360485
| 32> H    2.79132401  -0.63699613  -1.63902846
| 33> H    1.67677491  -2.93731875  -0.77742197
| 34> H   -0.92489819  -2.88693652  -1.45123870
| 35> C   -2.02516754  -1.39846694   1.13833699
| 36> H   -2.33638735  -1.08783561   2.14970899
| 37> H   -2.05983636  -2.50670878   1.20077968
| 38> H   -2.92188222  -1.19649126   0.51982475
| 39> C   -2.02193561   2.01640368  -0.92438986
| 40> H   -2.11345753   1.19291826  -0.21596791
| 41> H   -1.04315580   2.53731501  -1.19950920
| 42> H   -2.59873149   2.88497070  -0.61334058
| 43> H   -2.38205582   1.74745427  -1.90657817
| 44> *
| 45>
| 46>                          ****END OF INPUT****

CARTESIAN COORDINATES (ANGSTROEM)
---------------------------------
  Lu     0.033686   -0.310615    0.249876
  C      0.528008    0.582477    2.651397
  C      1.631120   -0.209697    2.286152
  C      2.343990    0.472177    1.291145
  C      1.667654    1.664477    1.010691
  C      0.539946    1.726770    1.847644
  H      1.956615    2.422365    0.280695
  H     -0.146946    2.577503    1.937601
  H     -0.194216    0.353772    3.430230
  H      1.894096   -1.171985    2.730303
  H      3.287741    0.146084    0.831610
  C      0.732283   -0.152549   -2.330397
  C     -0.464398   -0.888986   -2.276650
  C      1.159996   -2.114473   -1.272679
  C      1.737895   -0.918127   -1.724084
  H      0.856262    0.828067   -2.792589
  C     -0.201001   -2.107943   -1.633928
  H     -1.408400   -0.624510   -2.753605
  H      2.791324   -0.636996   -1.639028
  H      1.676775   -2.937319   -0.777422
  H     -0.924898   -2.886937   -1.451239
  C     -2.025168   -1.398467    1.138337
  H     -2.336387   -1.087836    2.149709
  H     -2.059836   -2.506709    1.200780
  H     -2.921882   -1.196491    0.519825
  C     -2.021936    2.016404   -0.924390
  H     -2.113458    1.192918   -0.215968
  H     -1.043156    2.537315   -1.199509
  H     -2.598731    2.884971   -0.613341
  H     -2.382056    1.747454   -1.906578

 Total Charge           Charge          ....    0
 Multiplicity           Mult            ....    1
 Number of Electrons    NEL             ....  132
 Basis Dimension        Dim             ....  295

ORBITAL ENERGIES
----------------

  NO   OCC          E(Eh)            E(eV)
   0   2.0000     -19.261501      -524.1321
   1   2.0000     -12.634043      -343.7898
   2   2.0000     -12.631484      -343.7201
   3   2.0000     -12.631202      -343.7125
   4   2.0000     -10.452140      -284.4172
   5   2.0000     -10.447994      -284.3044
   6   2.0000     -10.446622      -284.2670
   7   2.0000     -10.446559      -284.2653
   8   2.0000     -10.445812      -284.2450
   9   2.0000     -10.445156      -284.2271
  10   2.0000     -10.444386      -284.2062
  11   2.0000     -10.442763      -284.1620
  12   2.0000     -10.442570      -284.1568
  13   2.0000     -10.442106      -284.1441
  14   2.0000     -10.439673      -284.0779
  15   2.0000     -10.366215      -282.0790
  16   2.0000      -5.903172      -160.6335
  17   2.0000      -5.902774      -160.6227
  18   2.0000      -5.902405      -160.6126
  19   2.0000      -5.900881      -160.5711
  20   2.0000      -5.900762      -160.5679
  21   2.0000      -2.444638       -66.5220
  22   2.0000      -1.282108       -34.8879
  23   2.0000      -1.280491       -34.8439
  24   2.0000      -1.269547       -34.5461
  25   2.0000      -0.983730       -26.7687
  26   2.0000      -0.975115       -26.5342
  27   2.0000      -0.806946       -21.9581
  28   2.0000      -0.794806       -21.6278
  29   2.0000      -0.793639       -21.5960
  30   2.0000      -0.790816       -21.5192
  31   2.0000      -0.790405       -21.5080
  32   2.0000      -0.694828       -18.9072
  33   2.0000      -0.612318       -16.6620
  34   2.0000      -0.609787       -16.5931
  35   2.0000      -0.607629       -16.5344
  36   2.0000      -0.607050       -16.5187
  37   2.0000      -0.595034       -16.1917
  38   2.0000      -0.590127       -16.0582
  39   2.0000      -0.570721       -15.5301
  40   2.0000      -0.569619       -15.5001
  41   2.0000      -0.569151       -15.4874
  42   2.0000      -0.568284       -15.4638
  43   2.0000      -0.567741       -15.4490
  44   2.0000      -0.566493       -15.4151
  45   2.0000      -0.564835       -15.3699
  46   2.0000      -0.508591       -13.8395
  47   2.0000      -0.472064       -12.8455
  48   2.0000      -0.468309       -12.7433
  49   2.0000      -0.452315       -12.3081
  50   2.0000      -0.450818       -12.2674
  51   2.0000      -0.448887       -12.2148
  52   2.0000      -0.446545       -12.1511
  53   2.0000      -0.444439       -12.0938
  54   2.0000      -0.435780       -11.8582
  55   2.0000      -0.432828       -11.7778
  56   2.0000      -0.431151       -11.7322
  57   2.0000      -0.430204       -11.7065
  58   2.0000      -0.427004       -11.6194
  59   2.0000      -0.383619       -10.4388
  60   2.0000      -0.377843       -10.2816
  61   2.0000      -0.291101        -7.9213
  62   2.0000      -0.286206        -7.7881
  63   2.0000      -0.278618        -7.5816
  64   2.0000      -0.266026        -7.2389
  65   2.0000      -0.257488        -7.0066
  66   0.0000      -0.014736        -0.4010
  67   0.0000       0.006783         0.1846
  68   0.0000       0.040877         1.1123
  69   0.0000       0.054672         1.4877
  70   0.0000       0.055324         1.5054

MULLIKEN ATOMIC CHARGES
-----------------------
   0 Lu:    0.848013
   1 C :   -0.250834
   2 C :   -0.324793
   3 C :   -0.269626
   4 C :   -0.270684
   5 C :   -0.320892
   6 H :    0.234399
   7 H :    0.235931
   8 H :    0.247484
   9 H :    0.245516
  10 H :    0.232379
  11 C :   -0.286765
  12 C :   -0.312168
  13 C :   -0.331763
  14 C :   -0.255832
  15 H :    0.231209
  16 C :   -0.239250
  17 H :    0.231420
  18 H :    0.229773
  19 H :    0.240083
  20 H :    0.250537
  21 C :   -1.050105
  22 H :    0.207048
  23 H :    0.209595
  24 H :    0.200844
  25 C :   -0.955338
  26 H :    0.262048
  27 H :    0.236449
  28 H :    0.263157
  29 H :    0.262167
Sum of atomic charges:   -0.0000000

LOEWDIN ATOMIC CHARGES
----------------------
   0 Lu:    0.044289
   1 C :   -0.132213
   2 C :   -0.152419
   3 C :   -0.133524
   4 C :   -0.148594
   5 C :   -0.152502
   6 H :    0.151769
   7 H :    0.154085
   8 H :    0.160722
   9 H :    0.158065
  10 H :    0.152568
  11 C :   -0.153508
  12 C :   -0.150085
  13 C :   -0.155395
  14 C :   -0.132675
  15 H :    0.150024
  16 C :   -0.127675
  17 H :    0.152704
  18 H :    0.150855
  19 H :    0.155433
  20 H :    0.161190
  21 C :   -0.653191
  22 H :    0.123654
  23 H :    0.129436
  24 H :    0.124758
  25 C :   -0.497559
  26 H :    0.175126
  27 H :    0.154076
  28 H :    0.145943
  29 H :    0.144642

  Mayer bond orders larger than 0.100000
B(  0-Lu,  1-C ) :   0.2387 B(  0-Lu,  2-C ) :   0.2818 B(  0-Lu,  3-C ) :   0.2485
B(  0-Lu,  4-C ) :   0.2511 B(  0-Lu,  5-C ) :   0.2702 B(  0-Lu, 11-C ) :   0.2581
B(  0-Lu, 12-C ) :   0.2624 B(  0-Lu, 13-C ) :   0.2818 B(  0-Lu, 14-C ) :   0.2470
B(  0-Lu, 16-C ) :   0.2364 B(  0-Lu, 21-C ) :   0.8090 B(  1-C ,  2-C ) :   1.2844
B(  1-C ,  5-C ) :   1.3014 B(  1-C ,  8-H ) :   0.9137 B(  2-C ,  3-C ) :   1.2858
B(  2-C ,  9-H ) :   0.9110 B(  3-C ,  4-C ) :   1.3113 B(  3-C , 10-H ) :   0.9178
B(  4-C ,  5-C ) :   1.2755 B(  4-C ,  6-H ) :   0.9151 B(  5-C ,  7-H ) :   0.9186
B( 11-C , 12-C ) :   1.2704 B( 11-C , 14-C ) :   1.3127 B( 11-C , 15-H ) :   0.9167
B( 12-C , 16-C ) :   1.3129 B( 12-C , 17-H ) :   0.9210 B( 13-C , 14-C ) :   1.2850
B( 13-C , 16-C ) :   1.2842 B( 13-C , 19-H ) :   0.9143 B( 14-C , 18-H ) :   0.9188
B( 16-C , 20-H ) :   0.9107 B( 21-C , 22-H ) :   0.9135 B( 21-C , 23-H ) :   0.9153
B( 21-C , 24-H ) :   0.9079 B( 25-C , 26-H ) :   0.8654 B( 25-C , 27-H ) :   0.9085
B( 25-C , 28-H ) :   0.9085 B( 25-C , 29-H ) :   0.9048

Dispersion correction           -0.017300066
FINAL SINGLE POINT ENERGY     -1702.375176576474
Dispersion correction            ... done

DIPOLE MOMENT
-------------
                                X             Y             Z
Electronic contribution:     -5.33232     -12.88247      11.81548
Nuclear contribution   :      5.55741      13.72965     -12.28340
                        -----------------------------------------
Total Dipole Moment    :      0.22509       0.84718      -0.46791
                        -----------------------------------------
Magnitude (a.u.)       :      0.99364
Magnitude (Debye)      :      2.52564

Rotational constants in cm-1:     0.028273     0.019369     0.017430
Rotational constants in MHz :   847.614410   580.675975   522.533408

                             ****ORCA TERMINATED NORMALLY****
TOTAL RUN TIME: 0 days 0 hours 9 minutes 33 seconds 630 msec
