                         Program Version 5.0.3 -  RELEASE  -
|  1> ! EnGrad PBEh-3c
|  2> %output
|  3> xyzfile=True
|  4> end
|  5> %scf
|  6> maxiter 250
|  7> end
|  8> %output
|  9> Print[P_Hirshfeld] = 1
| 10> end
| 11> % maxcore
| 12> 4000
| 13> *xyz 0 1
| 14> Lu   0.00967094  -0.28777103   0.23671503
| 15> C    0.51629403   0.61395637   2.64317268
| 16> C    1.60753449  -0.20502071   2.28657770
| 17> C    2.34706642   0.46216856   1.28828110
| 18> C    1.69596996   1.67460719   1.00408077
| 19> C    0.55540035   1.76200347   1.83110369
| 20> H    2.00465650   2.42193745   0.27925965
| 21> H   -0.11557454   2.62107308   1.90954228
| 22> H   -0.21386451   0.40213091   3.41477471
| 23> H    1.84955594  -1.16801321   2.73214693
| 24> H    3.28849797   0.12126939   0.84657399
| 25> C    0.75889411  -0.14415442  -2.35093965
| 26> C   -0.45250348  -0.86630930  -2.30367974
| 27> C    1.14906854  -2.10893347  -1.26629854
| 28> C    1.75033268  -0.91753961  -1.72155130
| 29> H    0.89886418   0.82818010  -2.81476313
| 30> C   -0.20840874  -2.08775382  -1.65069723
| 31> H   -1.38460638  -0.59041307  -2.79101659
| 32> H    2.80350776  -0.65443865  -1.63359331
| 33> H    1.65180023  -2.93325594  -0.76566714
| 34> H   -0.94369290  -2.85677460  -1.46702617
| 35> C   -2.03702251  -1.42028590   1.14435379
| 36> H   -2.32168087  -1.12725349   2.16348163
| 37> H   -2.05049486  -2.52664781   1.19759922
| 38> H   -2.95360245  -1.22809987   0.56077549
| 39> C   -2.01444922   2.00629634  -0.91206006
| 40> H   -2.08470737   1.17687962  -0.21890839
| 41> H   -1.08862650   2.48111191  -1.16690036
| 42> H   -2.60610765   2.84133799  -0.55778471
| 43> H   -2.41714716   1.71230332  -1.86043254
| 44> *
| 45>
| 46>                          ****END OF INPUT****

CARTESIAN COORDINATES (ANGSTROEM)
---------------------------------
  Lu     0.009671   -0.287771    0.236715
  C      0.516294    0.613956    2.643173
  C      1.607534   -0.205021    2.286578
  C      2.347066    0.462169    1.288281
  C      1.695970    1.674607    1.004081
  C      0.555400    1.762003    1.831104
  H      2.004656    2.421937    0.279260
  H     -0.115575    2.621073    1.909542
  H     -0.213865    0.402131    3.414775
  H      1.849556   -1.168013    2.732147
  H      3.288498    0.121269    0.846574
  C      0.758894   -0.144154   -2.350940
  C     -0.452503   -0.866309   -2.303680
  C      1.149069   -2.108933   -1.266299
  C      1.750333   -0.917540   -1.721551
  H      0.898864    0.828180   -2.814763
  C     -0.208409   -2.087754   -1.650697
  H     -1.384606   -0.590413   -2.791017
  H      2.803508   -0.654439   -1.633593
  H      1.651800   -2.933256   -0.765667
  H     -0.943693   -2.856775   -1.467026
  C     -2.037023   -1.420286    1.144354
  H     -2.321681   -1.127253    2.163482
  H     -2.050495   -2.526648    1.197599
  H     -2.953602   -1.228100    0.560775
  C     -2.014449    2.006296   -0.912060
  H     -2.084707    1.176880   -0.218908
  H     -1.088626    2.481112   -1.166900
  H     -2.606108    2.841338   -0.557785
  H     -2.417147    1.712303   -1.860433

 Total Charge           Charge          ....    0
 Multiplicity           Mult            ....    1
 Number of Electrons    NEL             ....  132
 Basis Dimension        Dim             ....  295

ORBITAL ENERGIES
----------------

  NO   OCC          E(Eh)            E(eV)
   0   2.0000     -19.263766      -524.1937
   1   2.0000     -12.636286      -343.8508
   2   2.0000     -12.633771      -343.7824
   3   2.0000     -12.633508      -343.7752
   4   2.0000     -10.448861      -284.3280
   5   2.0000     -10.447705      -284.2965
   6   2.0000     -10.447337      -284.2865
   7   2.0000     -10.447072      -284.2793
   8   2.0000     -10.446023      -284.2507
   9   2.0000     -10.445331      -284.2319
  10   2.0000     -10.445141      -284.2267
  11   2.0000     -10.443693      -284.1873
  12   2.0000     -10.443319      -284.1771
  13   2.0000     -10.442931      -284.1666
  14   2.0000     -10.440586      -284.1028
  15   2.0000     -10.365099      -282.0487
  16   2.0000      -5.905443      -160.6953
  17   2.0000      -5.905042      -160.6844
  18   2.0000      -5.904697      -160.6750
  19   2.0000      -5.903199      -160.6342
  20   2.0000      -5.903077      -160.6309
  21   2.0000      -2.446766       -66.5799
  22   2.0000      -1.284013       -34.9398
  23   2.0000      -1.281843       -34.8807
  24   2.0000      -1.271319       -34.5943
  25   2.0000      -0.979728       -26.6597
  26   2.0000      -0.972059       -26.4511
  27   2.0000      -0.816701       -22.2236
  28   2.0000      -0.793503       -21.5923
  29   2.0000      -0.792563       -21.5667
  30   2.0000      -0.790221       -21.5030
  31   2.0000      -0.789309       -21.4782
  32   2.0000      -0.695466       -18.9246
  33   2.0000      -0.612831       -16.6760
  34   2.0000      -0.610240       -16.6055
  35   2.0000      -0.608011       -16.5448
  36   2.0000      -0.607403       -16.5283
  37   2.0000      -0.594547       -16.1785
  38   2.0000      -0.589770       -16.0484
  39   2.0000      -0.572927       -15.5901
  40   2.0000      -0.571889       -15.5619
  41   2.0000      -0.571393       -15.5484
  42   2.0000      -0.570559       -15.5257
  43   2.0000      -0.570014       -15.5109
  44   2.0000      -0.568807       -15.4780
  45   2.0000      -0.567115       -15.4320
  46   2.0000      -0.511366       -13.9150
  47   2.0000      -0.475969       -12.9518
  48   2.0000      -0.471315       -12.8251
  49   2.0000      -0.458776       -12.4839
  50   2.0000      -0.451343       -12.2817
  51   2.0000      -0.449769       -12.2388
  52   2.0000      -0.448272       -12.1981
  53   2.0000      -0.446748       -12.1566
  54   2.0000      -0.434415       -11.8210
  55   2.0000      -0.432445       -11.7674
  56   2.0000      -0.431038       -11.7292
  57   2.0000      -0.429296       -11.6817
  58   2.0000      -0.427216       -11.6251
  59   2.0000      -0.383380       -10.4323
  60   2.0000      -0.377790       -10.2802
  61   2.0000      -0.290696        -7.9102
  62   2.0000      -0.284874        -7.7518
  63   2.0000      -0.278271        -7.5721
  64   2.0000      -0.264548        -7.1987
  65   2.0000      -0.256529        -6.9805
  66   0.0000      -0.014599        -0.3973
  67   0.0000       0.007021         0.1910
  68   0.0000       0.041338         1.1249
  69   0.0000       0.054620         1.4863
  70   0.0000       0.056454         1.5362

MULLIKEN ATOMIC CHARGES
-----------------------
   0 Lu:    0.844004
   1 C :   -0.251684
   2 C :   -0.323679
   3 C :   -0.274519
   4 C :   -0.263736
   5 C :   -0.327076
   6 H :    0.234205
   7 H :    0.235729
   8 H :    0.247950
   9 H :    0.246147
  10 H :    0.232133
  11 C :   -0.281894
  12 C :   -0.319767
  13 C :   -0.335167
  14 C :   -0.256225
  15 H :    0.231644
  16 C :   -0.235407
  17 H :    0.231310
  18 H :    0.229299
  19 H :    0.240497
  20 H :    0.251859
  21 C :   -1.048936
  22 H :    0.207314
  23 H :    0.208762
  24 H :    0.201631
  25 C :   -0.964153
  26 H :    0.259215
  27 H :    0.253791
  28 H :    0.263339
  29 H :    0.263415
Sum of atomic charges:   -0.0000000

LOEWDIN ATOMIC CHARGES
----------------------
   0 Lu:    0.050951
   1 C :   -0.133627
   2 C :   -0.152257
   3 C :   -0.134828
   4 C :   -0.147955
   5 C :   -0.155536
   6 H :    0.150944
   7 H :    0.153473
   8 H :    0.160483
   9 H :    0.158053
  10 H :    0.152261
  11 C :   -0.153431
  12 C :   -0.153185
  13 C :   -0.155897
  14 C :   -0.132460
  15 H :    0.149495
  16 C :   -0.127413
  17 H :    0.152341
  18 H :    0.150353
  19 H :    0.155602
  20 H :    0.161634
  21 C :   -0.654537
  22 H :    0.123284
  23 H :    0.128522
  24 H :    0.124182
  25 C :   -0.492183
  26 H :    0.174054
  27 H :    0.153751
  28 H :    0.147768
  29 H :    0.146158

  Mayer bond orders larger than 0.100000
B(  0-Lu,  1-C ) :   0.2393 B(  0-Lu,  2-C ) :   0.2818 B(  0-Lu,  3-C ) :   0.2466
B(  0-Lu,  4-C ) :   0.2463 B(  0-Lu,  5-C ) :   0.2712 B(  0-Lu, 11-C ) :   0.2556
B(  0-Lu, 12-C ) :   0.2648 B(  0-Lu, 13-C ) :   0.2833 B(  0-Lu, 14-C ) :   0.2445
B(  0-Lu, 16-C ) :   0.2364 B(  0-Lu, 21-C ) :   0.8108 B(  0-Lu, 25-C ) :   0.1063
B(  1-C ,  2-C ) :   1.2861 B(  1-C ,  5-C ) :   1.2978 B(  1-C ,  8-H ) :   0.9135
B(  2-C ,  3-C ) :   1.2837 B(  2-C ,  9-H ) :   0.9110 B(  3-C ,  4-C ) :   1.3144
B(  3-C , 10-H ) :   0.9190 B(  4-C ,  5-C ) :   1.2766 B(  4-C ,  6-H ) :   0.9154
B(  5-C ,  7-H ) :   0.9186 B( 11-C , 12-C ) :   1.2686 B( 11-C , 14-C ) :   1.3170
B( 11-C , 15-H ) :   0.9165 B( 12-C , 16-C ) :   1.3109 B( 12-C , 17-H ) :   0.9211
B( 13-C , 14-C ) :   1.2832 B( 13-C , 16-C ) :   1.2840 B( 13-C , 19-H ) :   0.9149
B( 14-C , 18-H ) :   0.9198 B( 16-C , 20-H ) :   0.9097 B( 21-C , 22-H ) :   0.9135
B( 21-C , 23-H ) :   0.9162 B( 21-C , 24-H ) :   0.9096 B( 25-C , 26-H ) :   0.8599
B( 25-C , 27-H ) :   0.8992 B( 25-C , 28-H ) :   0.9111 B( 25-C , 29-H ) :   0.9067

Dispersion correction           -0.017281219
FINAL SINGLE POINT ENERGY     -1702.377943693345
Dispersion correction            ... done

DIPOLE MOMENT
-------------
                                X             Y             Z
Electronic contribution:     -6.60714     -11.83170      11.22412
Nuclear contribution   :      6.80146      12.71869     -11.70630
                        -----------------------------------------
Total Dipole Moment    :      0.19432       0.88700      -0.48218
                        -----------------------------------------
Magnitude (a.u.)       :      1.02812
Magnitude (Debye)      :      2.61326

Rotational constants in cm-1:     0.028167     0.019320     0.017377
Rotational constants in MHz :   844.430024   579.198494   520.938400

                             ****ORCA TERMINATED NORMALLY****
TOTAL RUN TIME: 0 days 0 hours 9 minutes 22 seconds 712 msec
