                         Program Version 5.0.3 -  RELEASE  -
|  1> ! EnGrad PBEh-3c
|  2> %output
|  3> xyzfile=True
|  4> end
|  5> %scf
|  6> maxiter 250
|  7> end
|  8> %output
|  9> Print[P_Hirshfeld] = 1
| 10> end
| 11> % maxcore
| 12> 4000
| 13> *xyz 0 1
| 14> Lu  -0.05575382  -0.21688585   0.18974271
| 15> C    0.47897144   0.72164849   2.60124706
| 16> C    1.52866509  -0.17888866   2.27832051
| 17> C    2.34486784   0.43117170   1.28469590
| 18> C    1.78198365   1.69642277   0.98531197
| 19> C    0.61427169   1.86977091   1.77933007
| 20> H    2.16843659   2.42338904   0.27563214
| 21> H   -0.01070633   2.76116608   1.81500703
| 22> H   -0.27979578   0.56292049   3.36153484
| 23> H    1.70068644  -1.15164590   2.73667856
| 24> H    3.28467074   0.04017739   0.89697759
| 25> C    0.84708952  -0.12249082  -2.41006947
| 26> C   -0.40579163  -0.79410353  -2.39338837
| 27> C    1.11032086  -2.07994032  -1.24919662
| 28> C    1.78045961  -0.91670171  -1.71124021
| 29> H    1.04293495   0.82880903  -2.89302505
| 30> C   -0.23353529  -2.01416752  -1.70315676
| 31> H   -1.30462450  -0.47671154  -2.91201375
| 32> H    2.84229408  -0.71236205  -1.61522449
| 33> H    1.56688656  -2.91640285  -0.72628822
| 34> H   -1.00354620  -2.75423150  -1.52099680
| 35> C   -2.07828376  -1.48720281   1.16261500
| 36> H   -2.27400571  -1.25244163   2.21858085
| 37> H   -2.01843509  -2.58607838   1.17792690
| 38> H   -3.06985146  -1.32229912   0.69784371
| 39> C   -2.05360879   1.93968849  -0.84920527
| 40> H   -1.98548622   1.07670999  -0.19684350
| 41> H   -1.15184282   2.33918923  -1.08678984
| 42> H   -2.63334929   2.69877295  -0.36603672
| 43> H   -2.53874080   1.59144822  -1.73110316
| 44> *
| 45>
| 46>                          ****END OF INPUT****

CARTESIAN COORDINATES (ANGSTROEM)
---------------------------------
  Lu    -0.055754   -0.216886    0.189743
  C      0.478971    0.721648    2.601247
  C      1.528665   -0.178889    2.278321
  C      2.344868    0.431172    1.284696
  C      1.781984    1.696423    0.985312
  C      0.614272    1.869771    1.779330
  H      2.168437    2.423389    0.275632
  H     -0.010706    2.761166    1.815007
  H     -0.279796    0.562920    3.361535
  H      1.700686   -1.151646    2.736679
  H      3.284671    0.040177    0.896978
  C      0.847090   -0.122491   -2.410069
  C     -0.405792   -0.794104   -2.393388
  C      1.110321   -2.079940   -1.249197
  C      1.780460   -0.916702   -1.711240
  H      1.042935    0.828809   -2.893025
  C     -0.233535   -2.014168   -1.703157
  H     -1.304624   -0.476712   -2.912014
  H      2.842294   -0.712362   -1.615224
  H      1.566887   -2.916403   -0.726288
  H     -1.003546   -2.754231   -1.520997
  C     -2.078284   -1.487203    1.162615
  H     -2.274006   -1.252442    2.218581
  H     -2.018435   -2.586078    1.177927
  H     -3.069851   -1.322299    0.697844
  C     -2.053609    1.939688   -0.849205
  H     -1.985486    1.076710   -0.196844
  H     -1.151843    2.339189   -1.086790
  H     -2.633349    2.698773   -0.366037
  H     -2.538741    1.591448   -1.731103

 Total Charge           Charge          ....    0
 Multiplicity           Mult            ....    1
 Number of Electrons    NEL             ....  132
 Basis Dimension        Dim             ....  295

ORBITAL ENERGIES
----------------

  NO   OCC          E(Eh)            E(eV)
   0   2.0000     -19.270811      -524.3854
   1   2.0000     -12.643235      -344.0399
   2   2.0000     -12.640877      -343.9757
   3   2.0000     -12.640681      -343.9704
   4   2.0000     -10.450512      -284.3729
   5   2.0000     -10.450220      -284.3649
   6   2.0000     -10.449689      -284.3505
   7   2.0000     -10.449010      -284.3320
   8   2.0000     -10.448330      -284.3135
   9   2.0000     -10.447706      -284.2965
  10   2.0000     -10.447088      -284.2797
  11   2.0000     -10.445857      -284.2462
  12   2.0000     -10.445811      -284.2450
  13   2.0000     -10.444729      -284.2155
  14   2.0000     -10.442826      -284.1637
  15   2.0000     -10.365443      -282.0581
  16   2.0000      -5.912471      -160.8865
  17   2.0000      -5.912065      -160.8755
  18   2.0000      -5.911796      -160.8681
  19   2.0000      -5.910402      -160.8302
  20   2.0000      -5.910271      -160.8267
  21   2.0000      -2.453456       -66.7619
  22   2.0000      -1.290364       -35.1126
  23   2.0000      -1.286703       -35.0130
  24   2.0000      -1.277188       -34.7541
  25   2.0000      -0.972766       -26.4703
  26   2.0000      -0.966399       -26.2970
  27   2.0000      -0.833165       -22.6716
  28   2.0000      -0.791120       -21.5275
  29   2.0000      -0.788968       -21.4689
  30   2.0000      -0.788310       -21.4510
  31   2.0000      -0.786834       -21.4108
  32   2.0000      -0.692953       -18.8562
  33   2.0000      -0.612175       -16.6581
  34   2.0000      -0.609716       -16.5912
  35   2.0000      -0.607593       -16.5335
  36   2.0000      -0.607214       -16.5231
  37   2.0000      -0.592279       -16.1167
  38   2.0000      -0.587941       -15.9987
  39   2.0000      -0.579771       -15.7764
  40   2.0000      -0.578951       -15.7541
  41   2.0000      -0.578269       -15.7355
  42   2.0000      -0.577387       -15.7115
  43   2.0000      -0.577052       -15.7024
  44   2.0000      -0.575971       -15.6730
  45   2.0000      -0.574049       -15.6207
  46   2.0000      -0.512467       -13.9449
  47   2.0000      -0.496181       -13.5018
  48   2.0000      -0.489869       -13.3300
  49   2.0000      -0.458052       -12.4642
  50   2.0000      -0.451970       -12.2987
  51   2.0000      -0.448380       -12.2010
  52   2.0000      -0.448081       -12.1929
  53   2.0000      -0.447235       -12.1699
  54   2.0000      -0.431808       -11.7501
  55   2.0000      -0.430850       -11.7240
  56   2.0000      -0.429393       -11.6844
  57   2.0000      -0.428055       -11.6480
  58   2.0000      -0.425848       -11.5879
  59   2.0000      -0.377839       -10.2815
  60   2.0000      -0.376754       -10.2520
  61   2.0000      -0.290642        -7.9088
  62   2.0000      -0.281269        -7.6537
  63   2.0000      -0.277344        -7.5469
  64   2.0000      -0.261086        -7.1045
  65   2.0000      -0.252277        -6.8648
  66   0.0000      -0.014404        -0.3919
  67   0.0000       0.008777         0.2388
  68   0.0000       0.038615         1.0508
  69   0.0000       0.050327         1.3695
  70   0.0000       0.052527         1.4293

MULLIKEN ATOMIC CHARGES
-----------------------
   0 Lu:    0.813000
   1 C :   -0.264212
   2 C :   -0.319467
   3 C :   -0.281552
   4 C :   -0.255154
   5 C :   -0.326039
   6 H :    0.231747
   7 H :    0.234260
   8 H :    0.248330
   9 H :    0.247717
  10 H :    0.230747
  11 C :   -0.270600
  12 C :   -0.330707
  13 C :   -0.342651
  14 C :   -0.254415
  15 H :    0.231534
  16 C :   -0.233140
  17 H :    0.230785
  18 H :    0.227663
  19 H :    0.241818
  20 H :    0.256292
  21 C :   -1.031759
  22 H :    0.202527
  23 H :    0.205225
  24 H :    0.197445
  25 C :   -0.948147
  26 H :    0.249017
  27 H :    0.268197
  28 H :    0.270554
  29 H :    0.270985
Sum of atomic charges:    0.0000000

LOEWDIN ATOMIC CHARGES
----------------------
   0 Lu:    0.049690
   1 C :   -0.140203
   2 C :   -0.152671
   3 C :   -0.137723
   4 C :   -0.148407
   5 C :   -0.160861
   6 H :    0.149111
   7 H :    0.151670
   8 H :    0.160405
   9 H :    0.158792
  10 H :    0.151662
  11 C :   -0.153337
  12 C :   -0.159360
  13 C :   -0.156994
  14 C :   -0.131286
  15 H :    0.148579
  16 C :   -0.128601
  17 H :    0.151288
  18 H :    0.149578
  19 H :    0.156786
  20 H :    0.163629
  21 C :   -0.655140
  22 H :    0.120330
  23 H :    0.124537
  24 H :    0.120497
  25 C :   -0.461720
  26 H :    0.172197
  27 H :    0.152326
  28 H :    0.153140
  29 H :    0.152087

  Mayer bond orders larger than 0.100000
B(  0-Lu,  1-C ) :   0.2429 B(  0-Lu,  2-C ) :   0.2834 B(  0-Lu,  3-C ) :   0.2414
B(  0-Lu,  4-C ) :   0.2341 B(  0-Lu,  5-C ) :   0.2683 B(  0-Lu, 11-C ) :   0.2480
B(  0-Lu, 12-C ) :   0.2698 B(  0-Lu, 13-C ) :   0.2907 B(  0-Lu, 14-C ) :   0.2377
B(  0-Lu, 16-C ) :   0.2401 B(  0-Lu, 21-C ) :   0.8130 B(  0-Lu, 25-C ) :   0.1500
B(  1-C ,  2-C ) :   1.2853 B(  1-C ,  5-C ) :   1.2930 B(  1-C ,  8-H ) :   0.9132
B(  2-C ,  3-C ) :   1.2806 B(  2-C ,  9-H ) :   0.9103 B(  3-C ,  4-C ) :   1.3207
B(  3-C , 10-H ) :   0.9216 B(  4-C ,  5-C ) :   1.2817 B(  4-C ,  6-H ) :   0.9168
B(  5-C ,  7-H ) :   0.9178 B( 11-C , 12-C ) :   1.2652 B( 11-C , 14-C ) :   1.3280
B( 11-C , 15-H ) :   0.9166 B( 12-C , 16-C ) :   1.3067 B( 12-C , 17-H ) :   0.9202
B( 13-C , 14-C ) :   1.2786 B( 13-C , 16-C ) :   1.2787 B( 13-C , 19-H ) :   0.9158
B( 14-C , 18-H ) :   0.9226 B( 16-C , 20-H ) :   0.9066 B( 21-C , 22-H ) :   0.9154
B( 21-C , 23-H ) :   0.9175 B( 21-C , 24-H ) :   0.9166 B( 25-C , 26-H ) :   0.8314
B( 25-C , 27-H ) :   0.8841 B( 25-C , 28-H ) :   0.9084 B( 25-C , 29-H ) :   0.9048

Dispersion correction           -0.017234947
FINAL SINGLE POINT ENERGY     -1702.366051210002
Dispersion correction            ... done

DIPOLE MOMENT
-------------
                                X             Y             Z
Electronic contribution:     -9.99364      -8.55752       9.05512
Nuclear contribution   :     10.11359       9.57302      -9.60611
                        -----------------------------------------
Total Dipole Moment    :      0.11996       1.01550      -0.55099
                        -----------------------------------------
Magnitude (a.u.)       :      1.16156
Magnitude (Debye)      :      2.95246

Rotational constants in cm-1:     0.027835     0.019293     0.017142
Rotational constants in MHz :   834.485360   578.384293   513.906902

                             ****ORCA TERMINATED NORMALLY****
TOTAL RUN TIME: 0 days 0 hours 9 minutes 39 seconds 126 msec
