                         Program Version 5.0.3 -  RELEASE  -
|  1> ! EnGrad PBEh-3c
|  2> %output
|  3> xyzfile=True
|  4> end
|  5> %scf
|  6> maxiter 250
|  7> end
|  8> %output
|  9> Print[P_Hirshfeld] = 1
| 10> end
| 11> % maxcore
| 12> 4000
| 13> *xyz 0 1
| 14> Lu  -0.07162050  -0.17416934   0.15364880
| 15> C    0.44952520   0.78703005   2.56552132
| 16> C    1.47422056  -0.15931269   2.26808865
| 17> C    2.33801783   0.41654498   1.28242819
| 18> C    1.83122394   1.70887069   0.96466662
| 19> C    0.65625167   1.93707886   1.74574147
| 20> H    2.27910301   2.41929828   0.28554624
| 21> H    0.06328683   2.84250053   1.75116940
| 22> H   -0.31780089   0.67107235   3.31360427
| 23> H    1.59879985  -1.12706001   2.73209975
| 24> H    3.26771474  -0.00898905   0.93316131
| 25> C    0.90162921  -0.10361230  -2.44430979
| 26> C   -0.37081642  -0.74902180  -2.45294860
| 27> C    1.08023851  -2.05684489  -1.24056867
| 28> C    1.79950199  -0.91284426  -1.70360050
| 29> H    1.14164201   0.81977656  -2.94830535
| 30> C   -0.24886906  -1.95884560  -1.73105997
| 31> H   -1.24673382  -0.40210080  -2.98602196
| 32> H    2.85901367  -0.75174163  -1.60321428
| 33> H    1.50503736  -2.89375755  -0.70252241
| 34> H   -1.03770218  -2.67998866  -1.55942108
| 35> C   -2.12758676  -1.50983964   1.17777031
| 36> H   -2.24201422  -1.32827675   2.25759507
| 37> H   -1.99998718  -2.60887201   1.14571211
| 38> H   -3.15955451  -1.36942759   0.79989282
| 39> C   -2.09173210   1.84977451  -0.78476916
| 40> H   -1.92952347   0.94543181  -0.14791502
| 41> H   -1.13870151   2.28592448  -1.06930656
| 42> H   -2.64786792   2.59644486  -0.22774859
| 43> H   -2.61709400   1.50907791  -1.65803979
| 44> *
| 45>
| 46>                          ****END OF INPUT****

CARTESIAN COORDINATES (ANGSTROEM)
---------------------------------
  Lu    -0.071620   -0.174169    0.153649
  C      0.449525    0.787030    2.565521
  C      1.474221   -0.159313    2.268089
  C      2.338018    0.416545    1.282428
  C      1.831224    1.708871    0.964667
  C      0.656252    1.937079    1.745741
  H      2.279103    2.419298    0.285546
  H      0.063287    2.842501    1.751169
  H     -0.317801    0.671072    3.313604
  H      1.598800   -1.127060    2.732100
  H      3.267715   -0.008989    0.933161
  C      0.901629   -0.103612   -2.444310
  C     -0.370816   -0.749022   -2.452949
  C      1.080239   -2.056845   -1.240569
  C      1.799502   -0.912844   -1.703601
  H      1.141642    0.819777   -2.948305
  C     -0.248869   -1.958846   -1.731060
  H     -1.246734   -0.402101   -2.986022
  H      2.859014   -0.751742   -1.603214
  H      1.505037   -2.893758   -0.702522
  H     -1.037702   -2.679989   -1.559421
  C     -2.127587   -1.509840    1.177770
  H     -2.242014   -1.328277    2.257595
  H     -1.999987   -2.608872    1.145712
  H     -3.159555   -1.369428    0.799893
  C     -2.091732    1.849775   -0.784769
  H     -1.929523    0.945432   -0.147915
  H     -1.138702    2.285924   -1.069307
  H     -2.647868    2.596445   -0.227749
  H     -2.617094    1.509078   -1.658040

 Total Charge           Charge          ....    0
 Multiplicity           Mult            ....    1
 Number of Electrons    NEL             ....  132
 Basis Dimension        Dim             ....  295

ORBITAL ENERGIES
----------------

  NO   OCC          E(Eh)            E(eV)
   0   2.0000     -19.273086      -524.4473
   1   2.0000     -12.645408      -344.0990
   2   2.0000     -12.643187      -344.0386
   3   2.0000     -12.643036      -344.0345
   4   2.0000     -10.466828      -284.8169
   5   2.0000     -10.451904      -284.4108
   6   2.0000     -10.450904      -284.3836
   7   2.0000     -10.450361      -284.3688
   8   2.0000     -10.450201      -284.3644
   9   2.0000     -10.449640      -284.3492
  10   2.0000     -10.447901      -284.3018
  11   2.0000     -10.447263      -284.2845
  12   2.0000     -10.446229      -284.2563
  13   2.0000     -10.445318      -284.2316
  14   2.0000     -10.443625      -284.1855
  15   2.0000     -10.365817      -282.0682
  16   2.0000      -5.914675      -160.9465
  17   2.0000      -5.914283      -160.9358
  18   2.0000      -5.914061      -160.9298
  19   2.0000      -5.912755      -160.8942
  20   2.0000      -5.912633      -160.8909
  21   2.0000      -2.455631       -66.8211
  22   2.0000      -1.292822       -35.1795
  23   2.0000      -1.288436       -35.0601
  24   2.0000      -1.279310       -34.8118
  25   2.0000      -0.969739       -26.3879
  26   2.0000      -0.962604       -26.1938
  27   2.0000      -0.827132       -22.5074
  28   2.0000      -0.790545       -21.5118
  29   2.0000      -0.788707       -21.4618
  30   2.0000      -0.788008       -21.4428
  31   2.0000      -0.785919       -21.3859
  32   2.0000      -0.687976       -18.7208
  33   2.0000      -0.613752       -16.7010
  34   2.0000      -0.611023       -16.6268
  35   2.0000      -0.608732       -16.5644
  36   2.0000      -0.608621       -16.5614
  37   2.0000      -0.592760       -16.1298
  38   2.0000      -0.588443       -16.0123
  39   2.0000      -0.581906       -15.8345
  40   2.0000      -0.581333       -15.8189
  41   2.0000      -0.580426       -15.7942
  42   2.0000      -0.579503       -15.7691
  43   2.0000      -0.579356       -15.7651
  44   2.0000      -0.578374       -15.7384
  45   2.0000      -0.576318       -15.6824
  46   2.0000      -0.506895       -13.7933
  47   2.0000      -0.497151       -13.5282
  48   2.0000      -0.492437       -13.3999
  49   2.0000      -0.455330       -12.3902
  50   2.0000      -0.452918       -12.3245
  51   2.0000      -0.449459       -12.2304
  52   2.0000      -0.449364       -12.2278
  53   2.0000      -0.448361       -12.2005
  54   2.0000      -0.432020       -11.7558
  55   2.0000      -0.430539       -11.7156
  56   2.0000      -0.428954       -11.6724
  57   2.0000      -0.427548       -11.6342
  58   2.0000      -0.424809       -11.5596
  59   2.0000      -0.374986       -10.2039
  60   2.0000      -0.372724       -10.1423
  61   2.0000      -0.290495        -7.9048
  62   2.0000      -0.280174        -7.6239
  63   2.0000      -0.277283        -7.5453
  64   2.0000      -0.259340        -7.0570
  65   2.0000      -0.244915        -6.6645
  66   0.0000      -0.015032        -0.4090
  67   0.0000       0.011995         0.3264
  68   0.0000       0.035220         0.9584
  69   0.0000       0.047151         1.2830
  70   0.0000       0.050474         1.3735

MULLIKEN ATOMIC CHARGES
-----------------------
   0 Lu:    0.770187
   1 C :   -0.278486
   2 C :   -0.316422
   3 C :   -0.280614
   4 C :   -0.263302
   5 C :   -0.306477
   6 H :    0.230546
   7 H :    0.232971
   8 H :    0.248555
   9 H :    0.249742
  10 H :    0.230610
  11 C :   -0.271996
  12 C :   -0.318227
  13 C :   -0.341981
  14 C :   -0.254986
  15 H :    0.231289
  16 C :   -0.241720
  17 H :    0.230464
  18 H :    0.227630
  19 H :    0.243921
  20 H :    0.259332
  21 C :   -1.009490
  22 H :    0.197490
  23 H :    0.195942
  24 H :    0.193702
  25 C :   -0.915481
  26 H :    0.248463
  27 H :    0.255113
  28 H :    0.274903
  29 H :    0.278321
Sum of atomic charges:    0.0000000

LOEWDIN ATOMIC CHARGES
----------------------
   0 Lu:    0.017446
   1 C :   -0.143009
   2 C :   -0.152604
   3 C :   -0.137304
   4 C :   -0.149410
   5 C :   -0.158263
   6 H :    0.148566
   7 H :    0.150053
   8 H :    0.160174
   9 H :    0.159179
  10 H :    0.151016
  11 C :   -0.152374
  12 C :   -0.157252
  13 C :   -0.156368
  14 C :   -0.129553
  15 H :    0.148262
  16 C :   -0.130180
  17 H :    0.150634
  18 H :    0.149307
  19 H :    0.157732
  20 H :    0.165192
  21 C :   -0.655093
  22 H :    0.116890
  23 H :    0.119590
  24 H :    0.117093
  25 C :   -0.439379
  26 H :    0.178874
  27 H :    0.159255
  28 H :    0.156297
  29 H :    0.155228

  Mayer bond orders larger than 0.100000
B(  0-Lu,  1-C ) :   0.2464 B(  0-Lu,  2-C ) :   0.2871 B(  0-Lu,  3-C ) :   0.2439
B(  0-Lu,  4-C ) :   0.2310 B(  0-Lu,  5-C ) :   0.2626 B(  0-Lu, 11-C ) :   0.2452
B(  0-Lu, 12-C ) :   0.2689 B(  0-Lu, 13-C ) :   0.2985 B(  0-Lu, 14-C ) :   0.2398
B(  0-Lu, 16-C ) :   0.2452 B(  0-Lu, 21-C ) :   0.8065 B(  0-Lu, 25-C ) :   0.1893
B(  1-C ,  2-C ) :   1.2821 B(  1-C ,  5-C ) :   1.2933 B(  1-C ,  8-H ) :   0.9144
B(  2-C ,  3-C ) :   1.2786 B(  2-C ,  9-H ) :   0.9097 B(  3-C ,  4-C ) :   1.3196
B(  3-C , 10-H ) :   0.9228 B(  4-C ,  5-C ) :   1.2870 B(  4-C ,  6-H ) :   0.9194
B(  5-C ,  7-H ) :   0.9173 B( 11-C , 12-C ) :   1.2675 B( 11-C , 14-C ) :   1.3302
B( 11-C , 15-H ) :   0.9181 B( 12-C , 16-C ) :   1.3050 B( 12-C , 17-H ) :   0.9194
B( 13-C , 14-C ) :   1.2740 B( 13-C , 16-C ) :   1.2739 B( 13-C , 19-H ) :   0.9155
B( 14-C , 18-H ) :   0.9243 B( 16-C , 20-H ) :   0.9057 B( 21-C , 22-H ) :   0.9176
B( 21-C , 23-H ) :   0.9198 B( 21-C , 24-H ) :   0.9218 B( 25-C , 26-H ) :   0.7984
B( 25-C , 27-H ) :   0.8821 B( 25-C , 28-H ) :   0.9015 B( 25-C , 29-H ) :   0.8963

Dispersion correction           -0.017254391
FINAL SINGLE POINT ENERGY     -1702.359208714457
Dispersion correction            ... done

DIPOLE MOMENT
-------------
                                X             Y             Z
Electronic contribution:    -10.72939      -6.58164       7.32893
Nuclear contribution   :     10.87412       7.68159      -7.95481
                        -----------------------------------------
Total Dipole Moment    :      0.14473       1.09995      -0.62589
                        -----------------------------------------
Magnitude (a.u.)       :      1.27380
Magnitude (Debye)      :      3.23775

Rotational constants in cm-1:     0.027757     0.019412     0.017004
Rotational constants in MHz :   832.122465   581.958811   509.762323

                             ****ORCA TERMINATED NORMALLY****
TOTAL RUN TIME: 0 days 0 hours 10 minutes 11 seconds 583 msec
