                         Program Version 5.0.3 -  RELEASE  -
|  1> ! EnGrad PBEh-3c
|  2> %output
|  3> xyzfile=True
|  4> end
|  5> %scf
|  6> maxiter 250
|  7> end
|  8> %output
|  9> Print[P_Hirshfeld] = 1
| 10> end
| 11> % maxcore
| 12> 4000
| 13> *xyz 0 1
| 14> Lu  -0.06222901  -0.10722030   0.09052912
| 15> C    0.40749044   0.90323591   2.48288947
| 16> C    1.37647208  -0.10521665   2.23269288
| 17> C    2.30482445   0.40229315   1.28688579
| 18> C    1.90261856   1.71576725   0.93493206
| 19> C    0.73684493   2.03330802   1.68308567
| 20> H    2.47641309   2.41220978   0.30870564
| 21> H    0.19446184   2.97965667   1.63970286
| 22> H   -0.38734640   0.85879466   3.22149810
| 23> H    1.41984216  -1.07970437   2.72111369
| 24> H    3.23063057  -0.09323482   0.99433177
| 25> C    0.99340420  -0.08101456  -2.49033477
| 26> C   -0.29928869  -0.66789552  -2.55096504
| 27> C    1.03035571  -1.99713369  -1.23398830
| 28> C    1.80941905  -0.90830899  -1.69366252
| 29> H    1.31840687   0.80011786  -3.05099699
| 30> C   -0.27653448  -1.85653731  -1.77604894
| 31> H   -1.14260746  -0.27245185  -3.11072921
| 32> H    2.88874384  -0.81809579  -1.57982027
| 33> H    1.39339124  -2.84735274  -0.66036152
| 34> H   -1.09336000  -2.54338150  -1.62806189
| 35> C   -2.22756246  -1.53050637   1.20798643
| 36> H   -2.18574836  -1.44969652   2.32133995
| 37> H   -1.97072867  -2.61428564   1.06528579
| 38> H   -3.32737780  -1.43593183   0.98841681
| 39> C   -2.07106674   1.68064618  -0.66328366
| 40> H   -1.86819271   0.68484932  -0.05184550
| 41> H   -1.16823825   2.17911491  -1.03987629
| 42> H   -2.65383457   2.38225447   0.01852422
| 43> H   -2.74472516   1.36044057  -1.52291899
| 44> *
| 45>
| 46>                          ****END OF INPUT****

CARTESIAN COORDINATES (ANGSTROEM)
---------------------------------
  Lu    -0.062229   -0.107220    0.090529
  C      0.407490    0.903236    2.482889
  C      1.376472   -0.105217    2.232693
  C      2.304824    0.402293    1.286886
  C      1.902619    1.715767    0.934932
  C      0.736845    2.033308    1.683086
  H      2.476413    2.412210    0.308706
  H      0.194462    2.979657    1.639703
  H     -0.387346    0.858795    3.221498
  H      1.419842   -1.079704    2.721114
  H      3.230631   -0.093235    0.994332
  C      0.993404   -0.081015   -2.490335
  C     -0.299289   -0.667896   -2.550965
  C      1.030356   -1.997134   -1.233988
  C      1.809419   -0.908309   -1.693663
  H      1.318407    0.800118   -3.050997
  C     -0.276534   -1.856537   -1.776049
  H     -1.142607   -0.272452   -3.110729
  H      2.888744   -0.818096   -1.579820
  H      1.393391   -2.847353   -0.660362
  H     -1.093360   -2.543381   -1.628062
  C     -2.227562   -1.530506    1.207986
  H     -2.185748   -1.449697    2.321340
  H     -1.970729   -2.614286    1.065286
  H     -3.327378   -1.435932    0.988417
  C     -2.071067    1.680646   -0.663284
  H     -1.868193    0.684849   -0.051846
  H     -1.168238    2.179115   -1.039876
  H     -2.653835    2.382254    0.018524
  H     -2.744725    1.360441   -1.522919

 Total Charge           Charge          ....    0
 Multiplicity           Mult            ....    1
 Number of Electrons    NEL             ....  132
 Basis Dimension        Dim             ....  295

ORBITAL ENERGIES
----------------

  NO   OCC          E(Eh)            E(eV)
   0   2.0000     -19.274338      -524.4814
   1   2.0000     -12.646348      -344.1246
   2   2.0000     -12.644516      -344.0748
   3   2.0000     -12.644443      -344.0728
   4   2.0000     -10.487266      -285.3730
   5   2.0000     -10.452872      -284.4371
   6   2.0000     -10.452144      -284.4173
   7   2.0000     -10.451514      -284.4002
   8   2.0000     -10.451095      -284.3887
   9   2.0000     -10.450974      -284.3855
  10   2.0000     -10.449852      -284.3549
  11   2.0000     -10.446071      -284.2521
  12   2.0000     -10.445881      -284.2469
  13   2.0000     -10.445308      -284.2313
  14   2.0000     -10.444440      -284.2077
  15   2.0000     -10.371700      -282.2283
  16   2.0000      -5.915655      -160.9731
  17   2.0000      -5.915335      -160.9644
  18   2.0000      -5.915195      -160.9606
  19   2.0000      -5.914130      -160.9317
  20   2.0000      -5.914040      -160.9292
  21   2.0000      -2.457056       -66.8599
  22   2.0000      -1.295546       -35.2536
  23   2.0000      -1.290308       -35.1111
  24   2.0000      -1.282221       -34.8910
  25   2.0000      -0.974454       -26.5162
  26   2.0000      -0.967008       -26.3136
  27   2.0000      -0.815203       -22.1828
  28   2.0000      -0.792244       -21.5580
  29   2.0000      -0.791341       -21.5335
  30   2.0000      -0.789247       -21.4765
  31   2.0000      -0.786322       -21.3969
  32   2.0000      -0.677356       -18.4318
  33   2.0000      -0.612642       -16.6708
  34   2.0000      -0.611382       -16.6365
  35   2.0000      -0.608856       -16.5678
  36   2.0000      -0.606504       -16.5038
  37   2.0000      -0.593460       -16.1489
  38   2.0000      -0.588171       -16.0050
  39   2.0000      -0.583000       -15.8642
  40   2.0000      -0.582607       -15.8535
  41   2.0000      -0.581352       -15.8194
  42   2.0000      -0.580726       -15.8024
  43   2.0000      -0.580409       -15.7937
  44   2.0000      -0.579871       -15.7791
  45   2.0000      -0.577637       -15.7183
  46   2.0000      -0.505958       -13.7678
  47   2.0000      -0.496745       -13.5171
  48   2.0000      -0.480157       -13.0657
  49   2.0000      -0.456700       -12.4274
  50   2.0000      -0.452679       -12.3180
  51   2.0000      -0.450768       -12.2660
  52   2.0000      -0.449377       -12.2282
  53   2.0000      -0.447939       -12.1890
  54   2.0000      -0.432481       -11.7684
  55   2.0000      -0.431855       -11.7514
  56   2.0000      -0.429902       -11.6982
  57   2.0000      -0.428419       -11.6579
  58   2.0000      -0.426118       -11.5953
  59   2.0000      -0.373933       -10.1752
  60   2.0000      -0.362672        -9.8688
  61   2.0000      -0.292396        -7.9565
  62   2.0000      -0.282532        -7.6881
  63   2.0000      -0.279075        -7.5940
  64   2.0000      -0.260681        -7.0935
  65   2.0000      -0.229817        -6.2536
  66   0.0000      -0.018561        -0.5051
  67   0.0000       0.021089         0.5739
  68   0.0000       0.031445         0.8557
  69   0.0000       0.042755         1.1634
  70   0.0000       0.050813         1.3827

MULLIKEN ATOMIC CHARGES
-----------------------
   0 Lu:    0.695328
   1 C :   -0.299291
   2 C :   -0.316356
   3 C :   -0.272834
   4 C :   -0.283094
   5 C :   -0.264176
   6 H :    0.226925
   7 H :    0.230813
   8 H :    0.248312
   9 H :    0.253093
  10 H :    0.230999
  11 C :   -0.277258
  12 C :   -0.284296
  13 C :   -0.339615
  14 C :   -0.251331
  15 H :    0.229571
  16 C :   -0.267489
  17 H :    0.231099
  18 H :    0.227932
  19 H :    0.248720
  20 H :    0.263900
  21 C :   -0.965786
  22 H :    0.185290
  23 H :    0.180539
  24 H :    0.183620
  25 C :   -0.891205
  26 H :    0.266229
  27 H :    0.260115
  28 H :    0.274872
  29 H :    0.275377
Sum of atomic charges:    0.0000000

LOEWDIN ATOMIC CHARGES
----------------------
   0 Lu:   -0.060789
   1 C :   -0.146351
   2 C :   -0.153786
   3 C :   -0.135734
   4 C :   -0.151708
   5 C :   -0.149471
   6 H :    0.149640
   7 H :    0.148832
   8 H :    0.161502
   9 H :    0.161948
  10 H :    0.151600
  11 C :   -0.151120
  12 C :   -0.147088
  13 C :   -0.155652
  14 C :   -0.126109
  15 H :    0.149571
  16 C :   -0.134796
  17 H :    0.150455
  18 H :    0.150903
  19 H :    0.160838
  20 H :    0.167666
  21 C :   -0.654445
  22 H :    0.109879
  23 H :    0.111193
  24 H :    0.112272
  25 C :   -0.421877
  26 H :    0.206899
  27 H :    0.170408
  28 H :    0.163044
  29 H :    0.162277

  Mayer bond orders larger than 0.100000
B(  0-Lu,  1-C ) :   0.2518 B(  0-Lu,  2-C ) :   0.2956 B(  0-Lu,  3-C ) :   0.2528
B(  0-Lu,  4-C ) :   0.2317 B(  0-Lu,  5-C ) :   0.2479 B(  0-Lu, 11-C ) :   0.2418
B(  0-Lu, 12-C ) :   0.2619 B(  0-Lu, 13-C ) :   0.3142 B(  0-Lu, 14-C ) :   0.2472
B(  0-Lu, 16-C ) :   0.2592 B(  0-Lu, 21-C ) :   0.7652 B(  0-Lu, 25-C ) :   0.2647
B(  0-Lu, 26-H ) :   0.1462 B(  1-C ,  2-C ) :   1.2735 B(  1-C ,  5-C ) :   1.2971
B(  1-C ,  8-H ) :   0.9156 B(  2-C ,  3-C ) :   1.2767 B(  2-C ,  9-H ) :   0.9073
B(  3-C ,  4-C ) :   1.3105 B(  3-C , 10-H ) :   0.9222 B(  4-C ,  5-C ) :   1.2961
B(  4-C ,  6-H ) :   0.9236 B(  5-C ,  7-H ) :   0.9159 B( 11-C , 12-C ) :   1.2767
B( 11-C , 14-C ) :   1.3248 B( 11-C , 15-H ) :   0.9210 B( 12-C , 16-C ) :   1.3037
B( 12-C , 17-H ) :   0.9169 B( 13-C , 14-C ) :   1.2694 B( 13-C , 16-C ) :   1.2599
B( 13-C , 19-H ) :   0.9124 B( 14-C , 18-H ) :   0.9253 B( 16-C , 20-H ) :   0.9047
B( 21-C , 22-H ) :   0.9219 B( 21-C , 23-H ) :   0.9215 B( 21-C , 24-H ) :   0.9285
B( 25-C , 26-H ) :   0.7207 B( 25-C , 27-H ) :   0.8598 B( 25-C , 28-H ) :   0.8961
B( 25-C , 29-H ) :   0.8937

Dispersion correction           -0.017375298
FINAL SINGLE POINT ENERGY     -1702.330068204272
Dispersion correction            ... done

DIPOLE MOMENT
-------------
                                X             Y             Z
Electronic contribution:    -10.11910      -3.63138       4.35466
Nuclear contribution   :     10.40938       4.78109      -5.07804
                        -----------------------------------------
Total Dipole Moment    :      0.29029       1.14970      -0.72338
                        -----------------------------------------
Magnitude (a.u.)       :      1.38902
Magnitude (Debye)      :      3.53060

Rotational constants in cm-1:     0.028050     0.019800     0.016891
Rotational constants in MHz :   840.925231   593.579825   506.386399

                             ****ORCA TERMINATED NORMALLY****
TOTAL RUN TIME: 0 days 0 hours 10 minutes 15 seconds 620 msec
