                         Program Version 5.0.3 -  RELEASE  -
|  1> ! EnGrad PBEh-3c
|  2> %output
|  3> xyzfile=True
|  4> end
|  5> %scf
|  6> maxiter 250
|  7> end
|  8> %output
|  9> Print[P_Hirshfeld] = 1
| 10> end
| 11> % maxcore
| 12> 4000
| 13> *xyz 0 1
| 14> Lu  -0.06869768  -0.15333343   0.13400467
| 15> C    0.43644312   0.82319568   2.53980461
| 16> C    1.44379924  -0.14247690   2.25707276
| 17> C    2.32768737   0.41210952   1.28381549
| 18> C    1.85344340   1.71101704   0.95541262
| 19> C    0.68133394   1.96702734   1.72624171
| 20> H    2.34050993   2.41709220   0.29275392
| 21> H    0.10411117   2.88518632   1.71647874
| 22> H   -0.33944487   0.72949536   3.28493895
| 23> H    1.54310457  -1.11232197   2.72868067
| 24> H    3.25617339  -0.03520805   0.95219880
| 25> C    0.93019146  -0.09657942  -2.45863370
| 26> C   -0.34855554  -0.72377365  -2.48345331
| 27> C    1.06471396  -2.03826155  -1.23852072
| 28> C    1.80258838  -0.91143279  -1.70050760
| 29> H    1.19665484   0.81365837  -2.98026508
| 30> C   -0.25747910  -1.92700517  -1.74506146
| 31> H   -1.21432757  -0.36175141  -3.02483340
| 32> H    2.86826631  -0.77239240  -1.59593359
| 33> H    1.47029081  -2.87931543  -0.68940108
| 34> H   -1.05502403  -2.63747373  -1.58078350
| 35> C   -2.15870123  -1.51627155   1.18717418
| 36> H   -2.22450314  -1.36606506   2.27743377
| 37> H   -1.99088134  -2.61055684   1.12068180
| 38> H   -3.21178454  -1.39012507   0.85856533
| 39> C   -2.08530062   1.79713833  -0.74696039
| 40> H   -1.91043609   0.86433323  -0.11801623
| 41> H   -1.14789394   2.25268317  -1.06014726
| 42> H   -2.64972486   2.52978444  -0.15110347
| 43> H   -2.65681542   1.46281894  -1.61598744
| 44> *
| 45>
| 46>                          ****END OF INPUT****

CARTESIAN COORDINATES (ANGSTROEM)
---------------------------------
  Lu    -0.068698   -0.153333    0.134005
  C      0.436443    0.823196    2.539805
  C      1.443799   -0.142477    2.257073
  C      2.327687    0.412110    1.283815
  C      1.853443    1.711017    0.955413
  C      0.681334    1.967027    1.726242
  H      2.340510    2.417092    0.292754
  H      0.104111    2.885186    1.716479
  H     -0.339445    0.729495    3.284939
  H      1.543105   -1.112322    2.728681
  H      3.256173   -0.035208    0.952199
  C      0.930191   -0.096579   -2.458634
  C     -0.348556   -0.723774   -2.483453
  C      1.064714   -2.038262   -1.238521
  C      1.802588   -0.911433   -1.700508
  H      1.196655    0.813658   -2.980265
  C     -0.257479   -1.927005   -1.745061
  H     -1.214328   -0.361751   -3.024833
  H      2.868266   -0.772392   -1.595934
  H      1.470291   -2.879315   -0.689401
  H     -1.055024   -2.637474   -1.580783
  C     -2.158701   -1.516272    1.187174
  H     -2.224503   -1.366065    2.277434
  H     -1.990881   -2.610557    1.120682
  H     -3.211785   -1.390125    0.858565
  C     -2.085301    1.797138   -0.746960
  H     -1.910436    0.864333   -0.118016
  H     -1.147894    2.252683   -1.060147
  H     -2.649725    2.529784   -0.151103
  H     -2.656815    1.462819   -1.615987

 Total Charge           Charge          ....    0
 Multiplicity           Mult            ....    1
 Number of Electrons    NEL             ....  132
 Basis Dimension        Dim             ....  295

ORBITAL ENERGIES
----------------

  NO   OCC          E(Eh)            E(eV)
   0   2.0000     -19.273565      -524.4604
   1   2.0000     -12.645804      -344.1098
   2   2.0000     -12.643687      -344.0522
   3   2.0000     -12.643561      -344.0488
   4   2.0000     -10.473506      -284.9986
   5   2.0000     -10.451908      -284.4109
   6   2.0000     -10.450521      -284.3731
   7   2.0000     -10.450433      -284.3707
   8   2.0000     -10.449879      -284.3557
   9   2.0000     -10.449811      -284.3538
  10   2.0000     -10.448768      -284.3254
  11   2.0000     -10.446549      -284.2650
  12   2.0000     -10.445596      -284.2391
  13   2.0000     -10.445218      -284.2288
  14   2.0000     -10.443612      -284.1851
  15   2.0000     -10.366290      -282.0811
  16   2.0000      -5.915084      -160.9576
  17   2.0000      -5.914712      -160.9475
  18   2.0000      -5.914511      -160.9420
  19   2.0000      -5.913272      -160.9083
  20   2.0000      -5.913160      -160.9053
  21   2.0000      -2.456132       -66.8347
  22   2.0000      -1.293622       -35.2012
  23   2.0000      -1.289069       -35.0774
  24   2.0000      -1.280102       -34.8333
  25   2.0000      -0.971522       -26.4364
  26   2.0000      -0.964375       -26.2420
  27   2.0000      -0.824127       -22.4256
  28   2.0000      -0.791182       -21.5292
  29   2.0000      -0.789607       -21.4863
  30   2.0000      -0.788527       -21.4569
  31   2.0000      -0.786321       -21.3969
  32   2.0000      -0.685027       -18.6405
  33   2.0000      -0.613273       -16.6880
  34   2.0000      -0.611020       -16.6267
  35   2.0000      -0.609222       -16.5778
  36   2.0000      -0.608107       -16.5474
  37   2.0000      -0.593168       -16.1409
  38   2.0000      -0.588670       -16.0185
  39   2.0000      -0.582287       -15.8448
  40   2.0000      -0.581887       -15.8340
  41   2.0000      -0.580803       -15.8045
  42   2.0000      -0.579912       -15.7802
  43   2.0000      -0.579846       -15.7784
  44   2.0000      -0.578945       -15.7539
  45   2.0000      -0.576833       -15.6964
  46   2.0000      -0.505722       -13.7614
  47   2.0000      -0.497682       -13.5426
  48   2.0000      -0.490754       -13.3541
  49   2.0000      -0.455759       -12.4018
  50   2.0000      -0.453123       -12.3301
  51   2.0000      -0.449789       -12.2394
  52   2.0000      -0.449492       -12.2313
  53   2.0000      -0.448454       -12.2030
  54   2.0000      -0.432036       -11.7563
  55   2.0000      -0.430897       -11.7253
  56   2.0000      -0.428948       -11.6723
  57   2.0000      -0.428576       -11.6622
  58   2.0000      -0.425611       -11.5815
  59   2.0000      -0.374248       -10.1838
  60   2.0000      -0.370165       -10.0727
  61   2.0000      -0.291111        -7.9215
  62   2.0000      -0.280810        -7.6412
  63   2.0000      -0.277893        -7.5619
  64   2.0000      -0.259779        -7.0689
  65   2.0000      -0.239766        -6.5244
  66   0.0000      -0.015732        -0.4281
  67   0.0000       0.015114         0.4113
  68   0.0000       0.034205         0.9308
  69   0.0000       0.046256         1.2587
  70   0.0000       0.050740         1.3807

MULLIKEN ATOMIC CHARGES
-----------------------
   0 Lu:    0.745742
   1 C :   -0.284926
   2 C :   -0.316461
   3 C :   -0.277914
   4 C :   -0.269944
   5 C :   -0.292663
   6 H :    0.229431
   7 H :    0.232038
   8 H :    0.248428
   9 H :    0.250736
  10 H :    0.230700
  11 C :   -0.273908
  12 C :   -0.307320
  13 C :   -0.341481
  14 C :   -0.253702
  15 H :    0.230724
  16 C :   -0.249320
  17 H :    0.230448
  18 H :    0.227703
  19 H :    0.245321
  20 H :    0.260736
  21 C :   -0.996634
  22 H :    0.194308
  23 H :    0.191129
  24 H :    0.190652
  25 C :   -0.908075
  26 H :    0.253638
  27 H :    0.257444
  28 H :    0.275148
  29 H :    0.278024
Sum of atomic charges:    0.0000000

LOEWDIN ATOMIC CHARGES
----------------------
   0 Lu:   -0.005330
   1 C :   -0.144099
   2 C :   -0.152975
   3 C :   -0.136782
   4 C :   -0.150216
   5 C :   -0.155368
   6 H :    0.148784
   7 H :    0.149528
   8 H :    0.160531
   9 H :    0.159943
  10 H :    0.151137
  11 C :   -0.152057
  12 C :   -0.154041
  13 C :   -0.156180
  14 C :   -0.128484
  15 H :    0.148569
  16 C :   -0.131501
  17 H :    0.150450
  18 H :    0.149760
  19 H :    0.158595
  20 H :    0.165952
  21 C :   -0.655337
  22 H :    0.114749
  23 H :    0.116800
  24 H :    0.115215
  25 C :   -0.432983
  26 H :    0.187206
  27 H :    0.162519
  28 H :    0.158236
  29 H :    0.157379

  Mayer bond orders larger than 0.100000
B(  0-Lu,  1-C ) :   0.2480 B(  0-Lu,  2-C ) :   0.2899 B(  0-Lu,  3-C ) :   0.2468
B(  0-Lu,  4-C ) :   0.2313 B(  0-Lu,  5-C ) :   0.2581 B(  0-Lu, 11-C ) :   0.2444
B(  0-Lu, 12-C ) :   0.2668 B(  0-Lu, 13-C ) :   0.3036 B(  0-Lu, 14-C ) :   0.2422
B(  0-Lu, 16-C ) :   0.2492 B(  0-Lu, 21-C ) :   0.7975 B(  0-Lu, 25-C ) :   0.2115
B(  0-Lu, 26-H ) :   0.1126 B(  1-C ,  2-C ) :   1.2796 B(  1-C ,  5-C ) :   1.2953
B(  1-C ,  8-H ) :   0.9149 B(  2-C ,  3-C ) :   1.2782 B(  2-C ,  9-H ) :   0.9090
B(  3-C ,  4-C ) :   1.3171 B(  3-C , 10-H ) :   0.9227 B(  4-C ,  5-C ) :   1.2902
B(  4-C ,  6-H ) :   0.9209 B(  5-C ,  7-H ) :   0.9170 B( 11-C , 12-C ) :   1.2704
B( 11-C , 14-C ) :   1.3288 B( 11-C , 15-H ) :   0.9191 B( 12-C , 16-C ) :   1.3054
B( 12-C , 17-H ) :   0.9187 B( 13-C , 14-C ) :   1.2727 B( 13-C , 16-C ) :   1.2697
B( 13-C , 19-H ) :   0.9146 B( 14-C , 18-H ) :   0.9247 B( 16-C , 20-H ) :   0.9054
B( 21-C , 22-H ) :   0.9191 B( 21-C , 23-H ) :   0.9206 B( 21-C , 24-H ) :   0.9247
B( 25-C , 26-H ) :   0.7772 B( 25-C , 27-H ) :   0.8754 B( 25-C , 28-H ) :   0.8996
B( 25-C , 29-H ) :   0.8952

Dispersion correction           -0.017288020
FINAL SINGLE POINT ENERGY     -1702.353449016956
Dispersion correction            ... done

DIPOLE MOMENT
-------------
                                X             Y             Z
Electronic contribution:    -10.54097      -5.65362       6.39883
Nuclear contribution   :     10.72948       6.77890      -7.05950
                        -----------------------------------------
Total Dipole Moment    :      0.18851       1.12528      -0.66067
                        -----------------------------------------
Magnitude (a.u.)       :      1.31844
Magnitude (Debye)      :      3.35120

Rotational constants in cm-1:     0.027875     0.019532     0.016980
Rotational constants in MHz :   835.675630   585.541561   509.037800

                             ****ORCA TERMINATED NORMALLY****
TOTAL RUN TIME: 0 days 0 hours 10 minutes 6 seconds 226 msec
