                         Program Version 5.0.3 -  RELEASE  -
|  1> ! EnGrad PBEh-3c
|  2> %output
|  3> xyzfile=True
|  4> end
|  5> %scf
|  6> maxiter 250
|  7> end
|  8> %output
|  9> Print[P_Hirshfeld] = 1
| 10> end
| 11> % maxcore
| 12> 4000
| 13> *xyz -1 1
| 14> C   -1.92867694   0.01763712   0.58131998
| 15> C   -1.64496228   1.06164465   1.46741147
| 16> C   -3.21066913  -0.03822352   0.03182023
| 17> C   -4.20773393   0.87592384   0.33080784
| 18> C   -3.90445485   1.94522589   1.15041149
| 19> C   -2.65659800   1.99325601   1.73937862
| 20> H   -2.02655740  -2.81807796  -2.14484037
| 21> H   -3.52043129  -0.85238834  -0.60911298
| 22> H   -2.55079432   2.70262075   2.55746535
| 23> H   -5.20520816   0.77391157  -0.08699295
| 24> H   -4.67623593   2.66037135   1.41284053
| 25> C   -0.44591269   1.14217293   2.37639352
| 26> C    0.80736641   0.30264961   2.20643377
| 27> H   -0.78318663   0.99654106   3.41266439
| 28> H   -0.10943287   2.18565833   2.37081822
| 29> C    1.61393858   0.70452414   1.00481537
| 30> H    0.53411478  -0.75338833   2.17289127
| 31> H    1.42731441   0.38454979   3.10998738
| 32> C    1.34681982   0.14705177  -0.25163771
| 33> C    2.23683152   0.46736042  -1.27822372
| 34> C    3.26750648   1.38945222  -1.12742208
| 35> C    2.76765156   1.46871369   1.19295398
| 36> C    3.45847724   1.98610733   0.10648884
| 37> H    2.22339283  -0.07785489  -2.21443414
| 38> H    3.93539279   1.62116089  -1.94934928
| 39> H    3.08374855   1.74663148   2.19474212
| 40> H    4.21241454   2.75212411   0.23962173
| 41> Pd   0.03757140  -1.31872556  -0.42282213
| 42> Br  -1.58824613  -3.62110795   0.22407230
| 43> P    1.52140400  -2.99427390  -0.21217073
| 44> H    1.63631338  -3.71383049   0.99363925
| 45> C    0.08277278  -1.63110495  -3.74838358
| 46> O    1.19731557  -1.71566245  -4.19976417
| 47> O   -0.54524929  -2.66043602  -3.27107596
| 48> O   -0.66445677  -0.52646912  -3.86503561
| 49> H    2.89824837  -2.71805876  -0.31671981
| 50> H    1.47920325  -4.09863518  -1.07427311
| 51> H   -0.09901725   0.21294456  -4.10471016
| 52> *
| 53>
| 54>                          ****END OF INPUT****

CARTESIAN COORDINATES (ANGSTROEM)
---------------------------------
  C     -1.928677    0.017637    0.581320
  C     -1.644962    1.061645    1.467411
  C     -3.210669   -0.038224    0.031820
  C     -4.207734    0.875924    0.330808
  C     -3.904455    1.945226    1.150411
  C     -2.656598    1.993256    1.739379
  H     -2.026557   -2.818078   -2.144840
  H     -3.520431   -0.852388   -0.609113
  H     -2.550794    2.702621    2.557465
  H     -5.205208    0.773912   -0.086993
  H     -4.676236    2.660371    1.412841
  C     -0.445913    1.142173    2.376394
  C      0.807366    0.302650    2.206434
  H     -0.783187    0.996541    3.412664
  H     -0.109433    2.185658    2.370818
  C      1.613939    0.704524    1.004815
  H      0.534115   -0.753388    2.172891
  H      1.427314    0.384550    3.109987
  C      1.346820    0.147052   -0.251638
  C      2.236832    0.467360   -1.278224
  C      3.267506    1.389452   -1.127422
  C      2.767652    1.468714    1.192954
  C      3.458477    1.986107    0.106489
  H      2.223393   -0.077855   -2.214434
  H      3.935393    1.621161   -1.949349
  H      3.083749    1.746631    2.194742
  H      4.212415    2.752124    0.239622
  Pd     0.037571   -1.318726   -0.422822
  Br    -1.588246   -3.621108    0.224072
  P      1.521404   -2.994274   -0.212171
  H      1.636313   -3.713830    0.993639
  C      0.082773   -1.631105   -3.748384
  O      1.197316   -1.715662   -4.199764
  O     -0.545249   -2.660436   -3.271076
  O     -0.664457   -0.526469   -3.865036
  H      2.898248   -2.718059   -0.316720
  H      1.479203   -4.098635   -1.074273
  H     -0.099017    0.212945   -4.104710

 Total Charge           Charge          ....   -1
 Multiplicity           Mult            ....    1
 Number of Electrons    NEL             ....  200
 Basis Dimension        Dim             ....  385

ORBITAL ENERGIES
----------------

  NO   OCC          E(Eh)            E(eV)
   0   2.0000    -484.368599    -13180.3397
   1   2.0000     -77.663002     -2113.3177
   2   2.0000     -63.029426     -1715.1179
   3   2.0000     -56.732775     -1543.7773
   4   2.0000     -56.732465     -1543.7689
   5   2.0000     -56.731915     -1543.7539
   6   2.0000     -19.411337      -528.2093
   7   2.0000     -19.375718      -527.2401
   8   2.0000     -19.338197      -526.2191
   9   2.0000     -10.475603      -285.0557
  10   2.0000     -10.343167      -281.4519
  11   2.0000     -10.339517      -281.3526
  12   2.0000     -10.338559      -281.3265
  13   2.0000     -10.337725      -281.3038
  14   2.0000     -10.337031      -281.2849
  15   2.0000     -10.327816      -281.0342
  16   2.0000     -10.327062      -281.0136
  17   2.0000     -10.325025      -280.9582
  18   2.0000     -10.322910      -280.9007
  19   2.0000     -10.319208      -280.7999
  20   2.0000     -10.316862      -280.7361
  21   2.0000     -10.316234      -280.7190
  22   2.0000     -10.308233      -280.5013
  23   2.0000     -10.305274      -280.4208
  24   2.0000      -8.856111      -240.9870
  25   2.0000      -6.738713      -183.3697
  26   2.0000      -6.625454      -180.2878
  27   2.0000      -6.622000      -180.1938
  28   2.0000      -6.619099      -180.1148
  29   2.0000      -4.829669      -131.4220
  30   2.0000      -4.829241      -131.4103
  31   2.0000      -4.827977      -131.3759
  32   2.0000      -3.518843       -95.7526
  33   2.0000      -2.639742       -71.8310
  34   2.0000      -2.639326       -71.8197
  35   2.0000      -2.636886       -71.7533
  36   2.0000      -2.633883       -71.6716
  37   2.0000      -2.633548       -71.6625
  38   2.0000      -2.166754       -58.9604
  39   2.0000      -2.158742       -58.7424
  40   2.0000      -2.135377       -58.1066
  41   2.0000      -1.110110       -30.2076
  42   2.0000      -1.001012       -27.2389
  43   2.0000      -0.951705       -25.8972
  44   2.0000      -0.847274       -23.0555
  45   2.0000      -0.824522       -22.4364
  46   2.0000      -0.775828       -21.1114
  47   2.0000      -0.727939       -19.8082
  48   2.0000      -0.718959       -19.5639
  49   2.0000      -0.693656       -18.8753
  50   2.0000      -0.677154       -18.4263
  51   2.0000      -0.670700       -18.2507
  52   2.0000      -0.637260       -17.3407
  53   2.0000      -0.602305       -16.3895
  54   2.0000      -0.568962       -15.4822
  55   2.0000      -0.565109       -15.3774
  56   2.0000      -0.542469       -14.7613
  57   2.0000      -0.539859       -14.6903
  58   2.0000      -0.508362       -13.8332
  59   2.0000      -0.462247       -12.5784
  60   2.0000      -0.442896       -12.0518
  61   2.0000      -0.433397       -11.7933
  62   2.0000      -0.419611       -11.4182
  63   2.0000      -0.417436       -11.3590
  64   2.0000      -0.409973       -11.1559
  65   2.0000      -0.403780       -10.9874
  66   2.0000      -0.386319       -10.5123
  67   2.0000      -0.379634       -10.3304
  68   2.0000      -0.376070       -10.2334
  69   2.0000      -0.361653        -9.8411
  70   2.0000      -0.358159        -9.7460
  71   2.0000      -0.352241        -9.5850
  72   2.0000      -0.349765        -9.5176
  73   2.0000      -0.338400        -9.2083
  74   2.0000      -0.332189        -9.0393
  75   2.0000      -0.328403        -8.9363
  76   2.0000      -0.321571        -8.7504
  77   2.0000      -0.309225        -8.4144
  78   2.0000      -0.297486        -8.0950
  79   2.0000      -0.291170        -7.9232
  80   2.0000      -0.281950        -7.6723
  81   2.0000      -0.270084        -7.3494
  82   2.0000      -0.264735        -7.2038
  83   2.0000      -0.260820        -7.0973
  84   2.0000      -0.254785        -6.9330
  85   2.0000      -0.251126        -6.8335
  86   2.0000      -0.245659        -6.6847
  87   2.0000      -0.228833        -6.2269
  88   2.0000      -0.218271        -5.9395
  89   2.0000      -0.212986        -5.7956
  90   2.0000      -0.210039        -5.7155
  91   2.0000      -0.192226        -5.2307
  92   2.0000      -0.183729        -4.9995
  93   2.0000      -0.179389        -4.8814
  94   2.0000      -0.173053        -4.7090
  95   2.0000      -0.164547        -4.4775
  96   2.0000      -0.156554        -4.2601
  97   2.0000      -0.153743        -4.1836
  98   2.0000      -0.147836        -4.0228
  99   2.0000      -0.109333        -2.9751
 100   0.0000       0.004280         0.1165
 101   0.0000       0.070939         1.9304
 102   0.0000       0.125078         3.4035
 103   0.0000       0.131357         3.5744
 104   0.0000       0.144128         3.9219

MULLIKEN ATOMIC CHARGES
-----------------------
   0 C :   -0.081460
   1 C :    0.051742
   2 C :   -0.288672
   3 C :   -0.223664
   4 C :   -0.229553
   5 C :   -0.249091
   6 H :    0.307249
   7 H :    0.182135
   8 H :    0.164228
   9 H :    0.174354
  10 H :    0.171123
  11 C :   -0.457223
  12 C :   -0.524662
  13 H :    0.208539
  14 H :    0.211198
  15 C :    0.131514
  16 H :    0.273166
  17 H :    0.197123
  18 C :   -0.104821
  19 C :   -0.293645
  20 C :   -0.228794
  21 C :   -0.290640
  22 C :   -0.228164
  23 H :    0.239675
  24 H :    0.191845
  25 H :    0.182347
  26 H :    0.181720
  27 Pd:    0.097810
  28 Br:   -0.440382
  29 P :   -0.171380
  30 H :    0.107874
  31 C :    0.672560
  32 O :   -0.481979
  33 O :   -0.512656
  34 O :   -0.592705
  35 H :    0.084844
  36 H :    0.135272
  37 H :    0.433172
Sum of atomic charges:   -1.0000000

LOEWDIN ATOMIC CHARGES
----------------------
   0 C :   -0.099330
   1 C :   -0.058493
   2 C :   -0.140389
   3 C :   -0.164727
   4 C :   -0.169152
   5 C :   -0.151613
   6 H :    0.329253
   7 H :    0.123388
   8 H :    0.113269
   9 H :    0.114667
  10 H :    0.113913
  11 C :   -0.215205
  12 C :   -0.210417
  13 H :    0.124853
  14 H :    0.126495
  15 C :   -0.030473
  16 H :    0.158761
  17 H :    0.117602
  18 C :    0.005604
  19 C :   -0.136239
  20 C :   -0.153428
  21 C :   -0.144299
  22 C :   -0.162124
  23 H :    0.151075
  24 H :    0.123774
  25 H :    0.120923
  26 H :    0.118717
  27 Pd:   -0.791354
  28 Br:   -0.264988
  29 P :    0.375346
  30 H :    0.046605
  31 C :    0.088952
  32 O :   -0.291301
  33 O :   -0.292156
  34 O :   -0.299218
  35 H :    0.029962
  36 H :    0.062311
  37 H :    0.329440

  Mayer bond orders larger than 0.100000
B(  0-C ,  1-C ) :   1.4176 B(  0-C ,  2-C ) :   1.4168 B(  0-C , 27-Pd) :   0.5752
B(  1-C ,  5-C ) :   1.3604 B(  1-C , 11-C ) :   0.9630 B(  2-C ,  3-C ) :   1.4341
B(  2-C ,  7-H ) :   0.9207 B(  3-C ,  4-C ) :   1.4197 B(  3-C ,  9-H ) :   0.9266
B(  4-C ,  5-C ) :   1.4551 B(  4-C , 10-H ) :   0.9298 B(  5-C ,  8-H ) :   0.9298
B(  6-H , 28-Br) :   0.3431 B(  6-H , 33-O ) :   0.4427 B( 11-C , 12-C ) :   0.9829
B( 11-C , 13-H ) :   0.9145 B( 11-C , 14-H ) :   0.9161 B( 12-C , 15-C ) :   0.9601
B( 12-C , 16-H ) :   0.8757 B( 12-C , 17-H ) :   0.9255 B( 15-C , 18-C ) :   1.3335
B( 15-C , 21-C ) :   1.4086 B( 18-C , 19-C ) :   1.3890 B( 18-C , 27-Pd) :   0.8472
B( 19-C , 20-C ) :   1.4136 B( 19-C , 23-H ) :   0.8915 B( 20-C , 22-C ) :   1.4359
B( 20-C , 24-H ) :   0.9252 B( 21-C , 22-C ) :   1.4211 B( 21-C , 25-H ) :   0.9269
B( 22-C , 26-H ) :   0.9285 B( 27-Pd, 28-Br) :   0.2955 B( 27-Pd, 29-P ) :   0.5942
B( 29-P , 30-H ) :   0.9322 B( 29-P , 35-H ) :   0.9216 B( 29-P , 36-H ) :   0.9301
B( 31-C , 32-O ) :   1.8659 B( 31-C , 33-O ) :   1.3574 B( 31-C , 34-O ) :   1.0771
B( 34-O , 37-H ) :   0.7644

Dispersion correction           -0.031784954
FINAL SINGLE POINT ENERGY     -3847.525346843633
Dispersion correction            ... done

DIPOLE MOMENT
-------------
                                X             Y             Z
Electronic contribution:      1.32510     -64.56859     -12.08290
Nuclear contribution   :     -0.23671      64.79356      13.33761
                        -----------------------------------------
Total Dipole Moment    :      1.08839       0.22497       1.25471
                        -----------------------------------------
Magnitude (a.u.)       :      1.67616
Magnitude (Debye)      :      4.26046

Rotational constants in cm-1:     0.006657     0.006404     0.004735
Rotational constants in MHz :   199.564535   191.975218   141.966502

                             ****ORCA TERMINATED NORMALLY****
TOTAL RUN TIME: 0 days 0 hours 12 minutes 28 seconds 760 msec
