                         Program Version 5.0.3 -  RELEASE  -
|  1> ! EnGrad PBEh-3c
|  2> %output
|  3> xyzfile=True
|  4> end
|  5> %scf
|  6> maxiter 250
|  7> end
|  8> %output
|  9> Print[P_Hirshfeld] = 1
| 10> end
| 11> % maxcore
| 12> 4000
| 13> *xyz -1 1
| 14> C   -2.06158673  -0.08496222   0.60563626
| 15> C   -1.82448099   1.05743374   1.41351079
| 16> C   -3.47651613  -0.49036425   0.62651939
| 17> C   -4.53823209   0.32898312   1.12125668
| 18> C   -4.24739520   1.57420020   1.73029342
| 19> C   -2.88635741   1.88726045   1.91233719
| 20> H   -1.77131137  -1.66481239  -2.26951003
| 21> H   -3.83117365  -1.54747237   0.46452281
| 22> H   -2.53106715   2.98078851   2.09522665
| 23> H   -5.61772723   0.08184306   0.98435944
| 24> H   -5.02562828   2.26866928   2.11774646
| 25> C   -0.41055211   1.62282030   1.77558274
| 26> C    0.72571219   0.49745055   1.93357955
| 27> H   -0.46328430   2.19599990   2.81427760
| 28> H   -0.16006523   2.40367642   0.90410829
| 29> C    1.80769658   0.57546018   0.87739888
| 30> H    0.28969096  -0.52638461   1.96966980
| 31> H    1.19165590   0.67890524   2.90410196
| 32> C    1.58680577  -0.03385924  -0.35659323
| 33> C    2.59789970   0.16528857  -1.34822661
| 34> C    3.64823161   1.08266592  -1.12928256
| 35> C    2.87050861   1.46193872   1.10476265
| 36> C    3.79548430   1.72824957   0.10453907
| 37> H    2.59990770  -0.39199034  -2.29865864
| 38> H    4.38316114   1.28385110  -1.91054628
| 39> H    3.00587297   1.84758663   2.11912916
| 40> H    4.55511957   2.49289200   0.25795723
| 41> Pd  -0.31358367  -1.20955078  -0.31301105
| 42> Br  -1.70538741  -3.45779403  -1.13659138
| 43> P    1.44059978  -2.94570534  -0.06504739
| 44> H    1.00435884  -3.53879286   1.18200149
| 45> C    0.13380509  -1.46340177  -3.77699883
| 46> O    1.23251735  -1.86288981  -4.04855012
| 47> O   -0.86395086  -2.05424294  -3.08626022
| 48> O   -0.19698215  -0.19816569  -4.17523413
| 49> H    2.85453923  -2.80534675   0.31225380
| 50> H    1.61696746  -4.15524920  -0.81693988
| 51> H    0.57906377   0.21147418  -4.61906208
| 52> *
| 53>
| 54>                          ****END OF INPUT****

CARTESIAN COORDINATES (ANGSTROEM)
---------------------------------
  C     -2.061587   -0.084962    0.605636
  C     -1.824481    1.057434    1.413511
  C     -3.476516   -0.490364    0.626519
  C     -4.538232    0.328983    1.121257
  C     -4.247395    1.574200    1.730293
  C     -2.886357    1.887260    1.912337
  H     -1.771311   -1.664812   -2.269510
  H     -3.831174   -1.547472    0.464523
  H     -2.531067    2.980789    2.095227
  H     -5.617727    0.081843    0.984359
  H     -5.025628    2.268669    2.117746
  C     -0.410552    1.622820    1.775583
  C      0.725712    0.497451    1.933580
  H     -0.463284    2.196000    2.814278
  H     -0.160065    2.403676    0.904108
  C      1.807697    0.575460    0.877399
  H      0.289691   -0.526385    1.969670
  H      1.191656    0.678905    2.904102
  C      1.586806   -0.033859   -0.356593
  C      2.597900    0.165289   -1.348227
  C      3.648232    1.082666   -1.129283
  C      2.870509    1.461939    1.104763
  C      3.795484    1.728250    0.104539
  H      2.599908   -0.391990   -2.298659
  H      4.383161    1.283851   -1.910546
  H      3.005873    1.847587    2.119129
  H      4.555120    2.492892    0.257957
  Pd    -0.313584   -1.209551   -0.313011
  Br    -1.705387   -3.457794   -1.136591
  P      1.440600   -2.945705   -0.065047
  H      1.004359   -3.538793    1.182001
  C      0.133805   -1.463402   -3.776999
  O      1.232517   -1.862890   -4.048550
  O     -0.863951   -2.054243   -3.086260
  O     -0.196982   -0.198166   -4.175234
  H      2.854539   -2.805347    0.312254
  H      1.616967   -4.155249   -0.816940
  H      0.579064    0.211474   -4.619062

 Total Charge           Charge          ....   -1
 Multiplicity           Mult            ....    1
 Number of Electrons    NEL             ....  200
 Basis Dimension        Dim             ....  385

ORBITAL ENERGIES
----------------

  NO   OCC          E(Eh)            E(eV)
   0   2.0000    -484.335982    -13179.4521
   1   2.0000     -77.675599     -2113.6605
   2   2.0000     -62.997387     -1714.2461
   3   2.0000     -56.700938     -1542.9110
   4   2.0000     -56.700144     -1542.8893
   5   2.0000     -56.699928     -1542.8835
   6   2.0000     -19.410653      -528.1907
   7   2.0000     -19.388864      -527.5978
   8   2.0000     -19.357352      -526.7403
   9   2.0000     -10.496457      -285.6231
  10   2.0000     -10.354132      -281.7503
  11   2.0000     -10.347812      -281.5783
  12   2.0000     -10.346179      -281.5338
  13   2.0000     -10.344269      -281.4819
  14   2.0000     -10.343805      -281.4693
  15   2.0000     -10.340817      -281.3879
  16   2.0000     -10.338245      -281.3179
  17   2.0000     -10.336728      -281.2767
  18   2.0000     -10.334767      -281.2233
  19   2.0000     -10.333465      -281.1879
  20   2.0000     -10.333308      -281.1836
  21   2.0000     -10.332869      -281.1717
  22   2.0000     -10.332566      -281.1634
  23   2.0000     -10.330136      -281.0973
  24   2.0000      -8.824662      -240.1313
  25   2.0000      -6.747363      -183.6051
  26   2.0000      -6.593812      -179.4268
  27   2.0000      -6.590685      -179.3417
  28   2.0000      -6.588006      -179.2688
  29   2.0000      -4.838353      -131.6583
  30   2.0000      -4.838277      -131.6562
  31   2.0000      -4.836367      -131.6042
  32   2.0000      -3.512209       -95.5721
  33   2.0000      -2.608191       -70.9725
  34   2.0000      -2.607788       -70.9615
  35   2.0000      -2.605587       -70.9016
  36   2.0000      -2.602814       -70.8262
  37   2.0000      -2.602438       -70.8159
  38   2.0000      -2.155683       -58.6591
  39   2.0000      -2.152703       -58.5780
  40   2.0000      -2.129356       -57.9427
  41   2.0000      -1.107565       -30.1384
  42   2.0000      -0.995596       -27.0915
  43   2.0000      -0.974838       -26.5267
  44   2.0000      -0.840775       -22.8787
  45   2.0000      -0.809362       -22.0239
  46   2.0000      -0.760624       -20.6976
  47   2.0000      -0.718710       -19.5571
  48   2.0000      -0.715719       -19.4757
  49   2.0000      -0.685284       -18.6475
  50   2.0000      -0.662910       -18.0387
  51   2.0000      -0.655085       -17.8258
  52   2.0000      -0.628209       -17.0944
  53   2.0000      -0.591712       -16.1013
  54   2.0000      -0.570809       -15.5325
  55   2.0000      -0.564591       -15.3633
  56   2.0000      -0.539514       -14.6809
  57   2.0000      -0.530972       -14.4485
  58   2.0000      -0.501603       -13.6493
  59   2.0000      -0.485904       -13.2221
  60   2.0000      -0.456244       -12.4150
  61   2.0000      -0.430527       -11.7152
  62   2.0000      -0.428138       -11.6502
  63   2.0000      -0.413566       -11.2537
  64   2.0000      -0.407012       -11.0754
  65   2.0000      -0.398200       -10.8356
  66   2.0000      -0.382693       -10.4136
  67   2.0000      -0.372710       -10.1420
  68   2.0000      -0.361330        -9.8323
  69   2.0000      -0.357902        -9.7390
  70   2.0000      -0.356873        -9.7110
  71   2.0000      -0.354539        -9.6475
  72   2.0000      -0.346836        -9.4379
  73   2.0000      -0.334756        -9.1092
  74   2.0000      -0.327173        -8.9028
  75   2.0000      -0.322231        -8.7683
  76   2.0000      -0.314673        -8.5627
  77   2.0000      -0.297401        -8.0927
  78   2.0000      -0.285004        -7.7554
  79   2.0000      -0.284197        -7.7334
  80   2.0000      -0.277860        -7.5609
  81   2.0000      -0.273507        -7.4425
  82   2.0000      -0.268913        -7.3175
  83   2.0000      -0.258234        -7.0269
  84   2.0000      -0.256709        -6.9854
  85   2.0000      -0.248898        -6.7729
  86   2.0000      -0.238142        -6.4802
  87   2.0000      -0.231595        -6.3020
  88   2.0000      -0.223476        -6.0811
  89   2.0000      -0.216006        -5.8778
  90   2.0000      -0.208392        -5.6706
  91   2.0000      -0.189118        -5.1462
  92   2.0000      -0.175182        -4.7669
  93   2.0000      -0.170630        -4.6431
  94   2.0000      -0.166217        -4.5230
  95   2.0000      -0.160049        -4.3552
  96   2.0000      -0.149491        -4.0679
  97   2.0000      -0.144825        -3.9409
  98   2.0000      -0.139423        -3.7939
  99   2.0000      -0.118415        -3.2222
 100   0.0000       0.052081         1.4172
 101   0.0000       0.112126         3.0511
 102   0.0000       0.121241         3.2991
 103   0.0000       0.129597         3.5265
 104   0.0000       0.132023         3.5925

MULLIKEN ATOMIC CHARGES
-----------------------
   0 C :   -0.138193
   1 C :    0.081309
   2 C :   -0.305616
   3 C :   -0.226253
   4 C :   -0.236722
   5 C :   -0.254823
   6 H :    0.428570
   7 H :    0.220695
   8 H :    0.168121
   9 H :    0.177805
  10 H :    0.176582
  11 C :   -0.448171
  12 C :   -0.508511
  13 H :    0.177894
  14 H :    0.221376
  15 C :    0.110239
  16 H :    0.272593
  17 H :    0.197459
  18 C :   -0.121489
  19 C :   -0.343258
  20 C :   -0.219530
  21 C :   -0.251009
  22 C :   -0.237830
  23 H :    0.238066
  24 H :    0.186469
  25 H :    0.179757
  26 H :    0.183582
  27 Pd:    0.107432
  28 Br:   -0.499350
  29 P :   -0.136856
  30 H :    0.112668
  31 C :    0.732407
  32 O :   -0.468649
  33 O :   -0.591921
  34 O :   -0.607428
  35 H :    0.085242
  36 H :    0.116955
  37 H :    0.420385
Sum of atomic charges:   -1.0000000

LOEWDIN ATOMIC CHARGES
----------------------
   0 C :   -0.080260
   1 C :   -0.050199
   2 C :   -0.130963
   3 C :   -0.174602
   4 C :   -0.172533
   5 C :   -0.164071
   6 H :    0.401036
   7 H :    0.143936
   8 H :    0.117540
   9 H :    0.117800
  10 H :    0.116488
  11 C :   -0.200032
  12 C :   -0.211153
  13 H :    0.114198
  14 H :    0.141454
  15 C :   -0.050941
  16 H :    0.169706
  17 H :    0.114775
  18 C :   -0.033076
  19 C :   -0.140483
  20 C :   -0.157278
  21 C :   -0.144970
  22 C :   -0.164137
  23 H :    0.145813
  24 H :    0.121719
  25 H :    0.121851
  26 H :    0.120400
  27 Pd:   -0.805150
  28 Br:   -0.276694
  29 P :    0.341476
  30 H :    0.058282
  31 C :    0.159394
  32 O :   -0.276721
  33 O :   -0.345661
  34 O :   -0.332344
  35 H :    0.031101
  36 H :    0.051501
  37 H :    0.322797

  Mayer bond orders larger than 0.100000
B(  0-C ,  1-C ) :   1.3980 B(  0-C ,  2-C ) :   1.3440 B(  0-C , 27-Pd) :   0.6853
B(  1-C ,  5-C ) :   1.3306 B(  1-C , 11-C ) :   0.9286 B(  2-C ,  3-C ) :   1.4274
B(  2-C ,  7-H ) :   0.9106 B(  3-C ,  4-C ) :   1.3901 B(  3-C ,  9-H ) :   0.9283
B(  4-C ,  5-C ) :   1.4489 B(  4-C , 10-H ) :   0.9289 B(  5-C ,  8-H ) :   0.9274
B(  6-H , 28-Br) :   0.2275 B(  6-H , 33-O ) :   0.5142 B( 11-C , 12-C ) :   0.9226
B( 11-C , 13-H ) :   0.9381 B( 11-C , 14-H ) :   0.9088 B( 12-C , 15-C ) :   0.9641
B( 12-C , 16-H ) :   0.8765 B( 12-C , 17-H ) :   0.9272 B( 15-C , 18-C ) :   1.3488
B( 15-C , 21-C ) :   1.3848 B( 18-C , 19-C ) :   1.3982 B( 18-C , 27-Pd) :   0.7160
B( 19-C , 20-C ) :   1.4266 B( 19-C , 23-H ) :   0.8947 B( 20-C , 22-C ) :   1.4133
B( 20-C , 24-H ) :   0.9268 B( 21-C , 22-C ) :   1.4408 B( 21-C , 25-H ) :   0.9251
B( 22-C , 26-H ) :   0.9281 B( 27-Pd, 28-Br) :   0.4055 B( 27-Pd, 29-P ) :   0.4173
B( 29-P , 30-H ) :   0.9373 B( 29-P , 35-H ) :   0.9207 B( 29-P , 36-H ) :   0.9261
B( 31-C , 32-O ) :   1.9191 B( 31-C , 33-O ) :   1.2216 B( 31-C , 34-O ) :   1.0669
B( 34-O , 37-H ) :   0.7743

Dispersion correction           -0.031113394
FINAL SINGLE POINT ENERGY     -3847.523351370498
Dispersion correction            ... done

DIPOLE MOMENT
-------------
                                X             Y             Z
Electronic contribution:    -17.05992     -58.44020      -7.23563
Nuclear contribution   :     18.64196      58.91433       8.02410
                        -----------------------------------------
Total Dipole Moment    :      1.58204       0.47412       0.78848
                        -----------------------------------------
Magnitude (a.u.)       :      1.83012
Magnitude (Debye)      :      4.65181

Rotational constants in cm-1:     0.006735     0.006699     0.004336
Rotational constants in MHz :   201.896452   200.831076   129.986091

                             ****ORCA TERMINATED NORMALLY****
TOTAL RUN TIME: 0 days 0 hours 13 minutes 33 seconds 959 msec
