                         Program Version 5.0.3 -  RELEASE  -
|  1> ! EnGrad PBEh-3c
|  2> %output
|  3> xyzfile=True
|  4> end
|  5> %scf
|  6> maxiter 250
|  7> end
|  8> %output
|  9> Print[P_Hirshfeld] = 1
| 10> end
| 11> % maxcore
| 12> 4000
| 13> *xyz -1 1
| 14> C   -2.11887130  -0.09785396   0.65857487
| 15> C   -1.83842207   1.10481725   1.40013160
| 16> C   -3.51076425  -0.54192243   0.71206956
| 17> C   -4.55519237   0.27846437   1.22152969
| 18> C   -4.25641416   1.53718221   1.78227068
| 19> C   -2.89448545   1.91132780   1.87770232
| 20> H   -1.66008328  -1.60942451  -2.33572195
| 21> H   -3.84534534  -1.58316650   0.53591205
| 22> H   -2.55894239   2.94189647   2.08177136
| 23> H   -5.63861527  -0.00879900   1.11152294
| 24> H   -5.05183900   2.21216649   2.17141164
| 25> C   -0.40832467   1.67905784   1.68390406
| 26> C    0.70832622   0.54450030   1.91341784
| 27> H   -0.43573509   2.29376951   2.69059627
| 28> H   -0.15188996   2.38251602   0.81284853
| 29> C    1.79598355   0.59463058   0.86282238
| 30> H    0.26210035  -0.48065886   1.95142087
| 31> H    1.16715766   0.70498300   2.88392343
| 32> C    1.60220799  -0.05180093  -0.36100573
| 33> C    2.61972523   0.13484238  -1.34078736
| 34> C    3.68465480   1.03259742  -1.12877254
| 35> C    2.89398930   1.43662487   1.09998977
| 36> C    3.80965140   1.71130139   0.09506218
| 37> H    2.63282136  -0.41572431  -2.30110000
| 38> H    4.42561381   1.24032444  -1.90247109
| 39> H    2.99736882   1.86193912   2.09710236
| 40> H    4.59813236   2.45121540   0.26059384
| 41> Pd  -0.30472604  -1.23994929  -0.32479134
| 42> Br  -1.74923814  -3.42889622  -1.20506443
| 43> P    1.43081666  -2.94643792  -0.03393414
| 44> H    0.95082103  -3.51636874   1.17957278
| 45> C    0.14156082  -1.37307252  -3.76755608
| 46> O    1.18497490  -1.90865349  -4.01430713
| 47> O   -0.87472083  -1.93184310  -3.09732515
| 48> O   -0.14226040  -0.16205798  -4.22240500
| 49> H    2.82211198  -2.80986685   0.37395970
| 50> H    1.62262145  -4.14621901  -0.78012039
| 51> H    0.63678248   0.19512139  -4.66418458
| 52> *
| 53>
| 54>                          ****END OF INPUT****

CARTESIAN COORDINATES (ANGSTROEM)
---------------------------------
  C     -2.118871   -0.097854    0.658575
  C     -1.838422    1.104817    1.400132
  C     -3.510764   -0.541922    0.712070
  C     -4.555192    0.278464    1.221530
  C     -4.256414    1.537182    1.782271
  C     -2.894485    1.911328    1.877702
  H     -1.660083   -1.609425   -2.335722
  H     -3.845345   -1.583166    0.535912
  H     -2.558942    2.941896    2.081771
  H     -5.638615   -0.008799    1.111523
  H     -5.051839    2.212166    2.171412
  C     -0.408325    1.679058    1.683904
  C      0.708326    0.544500    1.913418
  H     -0.435735    2.293770    2.690596
  H     -0.151890    2.382516    0.812849
  C      1.795984    0.594631    0.862822
  H      0.262100   -0.480659    1.951421
  H      1.167158    0.704983    2.883923
  C      1.602208   -0.051801   -0.361006
  C      2.619725    0.134842   -1.340787
  C      3.684655    1.032597   -1.128773
  C      2.893989    1.436625    1.099990
  C      3.809651    1.711301    0.095062
  H      2.632821   -0.415724   -2.301100
  H      4.425614    1.240324   -1.902471
  H      2.997369    1.861939    2.097102
  H      4.598132    2.451215    0.260594
  Pd    -0.304726   -1.239949   -0.324791
  Br    -1.749238   -3.428896   -1.205064
  P      1.430817   -2.946438   -0.033934
  H      0.950821   -3.516369    1.179573
  C      0.141561   -1.373073   -3.767556
  O      1.184975   -1.908653   -4.014307
  O     -0.874721   -1.931843   -3.097325
  O     -0.142260   -0.162058   -4.222405
  H      2.822112   -2.809867    0.373960
  H      1.622621   -4.146219   -0.780120
  H      0.636782    0.195121   -4.664185

 Total Charge           Charge          ....   -1
 Multiplicity           Mult            ....    1
 Number of Electrons    NEL             ....  200
 Basis Dimension        Dim             ....  385

ORBITAL ENERGIES
----------------

  NO   OCC          E(Eh)            E(eV)
   0   2.0000    -484.324014    -13179.1264
   1   2.0000     -77.672068     -2113.5644
   2   2.0000     -62.985580     -1713.9248
   3   2.0000     -56.689145     -1542.5901
   4   2.0000     -56.688298     -1542.5670
   5   2.0000     -56.688153     -1542.5631
   6   2.0000     -19.428785      -528.6841
   7   2.0000     -19.389961      -527.6277
   8   2.0000     -19.358398      -526.7688
   9   2.0000     -10.503144      -285.8051
  10   2.0000     -10.349931      -281.6359
  11   2.0000     -10.346965      -281.5552
  12   2.0000     -10.346431      -281.5407
  13   2.0000     -10.345182      -281.5067
  14   2.0000     -10.344056      -281.4761
  15   2.0000     -10.340148      -281.3697
  16   2.0000     -10.338795      -281.3329
  17   2.0000     -10.333821      -281.1976
  18   2.0000     -10.332424      -281.1596
  19   2.0000     -10.331752      -281.1413
  20   2.0000     -10.330878      -281.1175
  21   2.0000     -10.327669      -281.0302
  22   2.0000     -10.325836      -280.9803
  23   2.0000     -10.325461      -280.9701
  24   2.0000      -8.812921      -239.8118
  25   2.0000      -6.744922      -183.5387
  26   2.0000      -6.582178      -179.1102
  27   2.0000      -6.578626      -179.0135
  28   2.0000      -6.576552      -178.9571
  29   2.0000      -4.835921      -131.5921
  30   2.0000      -4.835824      -131.5895
  31   2.0000      -4.833891      -131.5369
  32   2.0000      -3.508993       -95.4845
  33   2.0000      -2.596403       -70.6517
  34   2.0000      -2.595856       -70.6368
  35   2.0000      -2.594167       -70.5909
  36   2.0000      -2.591031       -70.5055
  37   2.0000      -2.590784       -70.4988
  38   2.0000      -2.152444       -58.5710
  39   2.0000      -2.149257       -58.4843
  40   2.0000      -2.126559       -57.8666
  41   2.0000      -1.132844       -30.8263
  42   2.0000      -1.018015       -27.7016
  43   2.0000      -0.988123       -26.8882
  44   2.0000      -0.840525       -22.8719
  45   2.0000      -0.808455       -21.9992
  46   2.0000      -0.760797       -20.7023
  47   2.0000      -0.719450       -19.5772
  48   2.0000      -0.715623       -19.4731
  49   2.0000      -0.682877       -18.5820
  50   2.0000      -0.662576       -18.0296
  51   2.0000      -0.648818       -17.6552
  52   2.0000      -0.631134       -17.1740
  53   2.0000      -0.599535       -16.3142
  54   2.0000      -0.593140       -16.1402
  55   2.0000      -0.564040       -15.3483
  56   2.0000      -0.539816       -14.6891
  57   2.0000      -0.530761       -14.4427
  58   2.0000      -0.517028       -14.0691
  59   2.0000      -0.503150       -13.6914
  60   2.0000      -0.456538       -12.4230
  61   2.0000      -0.441323       -12.0090
  62   2.0000      -0.430887       -11.7250
  63   2.0000      -0.423817       -11.5327
  64   2.0000      -0.414172       -11.2702
  65   2.0000      -0.399100       -10.8601
  66   2.0000      -0.382183       -10.3997
  67   2.0000      -0.374064       -10.1788
  68   2.0000      -0.368036       -10.0148
  69   2.0000      -0.361163        -9.8277
  70   2.0000      -0.359841        -9.7918
  71   2.0000      -0.355874        -9.6838
  72   2.0000      -0.347892        -9.4666
  73   2.0000      -0.337846        -9.1933
  74   2.0000      -0.326090        -8.8734
  75   2.0000      -0.321101        -8.7376
  76   2.0000      -0.317598        -8.6423
  77   2.0000      -0.296569        -8.0700
  78   2.0000      -0.290336        -7.9005
  79   2.0000      -0.285380        -7.7656
  80   2.0000      -0.284964        -7.7543
  81   2.0000      -0.278919        -7.5898
  82   2.0000      -0.273376        -7.4389
  83   2.0000      -0.260514        -7.0889
  84   2.0000      -0.257734        -7.0133
  85   2.0000      -0.253943        -6.9101
  86   2.0000      -0.235599        -6.4110
  87   2.0000      -0.228651        -6.2219
  88   2.0000      -0.225758        -6.1432
  89   2.0000      -0.210804        -5.7363
  90   2.0000      -0.205929        -5.6036
  91   2.0000      -0.183453        -4.9920
  92   2.0000      -0.174635        -4.7521
  93   2.0000      -0.166699        -4.5361
  94   2.0000      -0.161588        -4.3970
  95   2.0000      -0.152410        -4.1473
  96   2.0000      -0.148304        -4.0356
  97   2.0000      -0.145589        -3.9617
  98   2.0000      -0.133012        -3.6195
  99   2.0000      -0.113512        -3.0888
 100   0.0000       0.052921         1.4401
 101   0.0000       0.115872         3.1530
 102   0.0000       0.124952         3.4001
 103   0.0000       0.136533         3.7152
 104   0.0000       0.139223         3.7884

MULLIKEN ATOMIC CHARGES
-----------------------
   0 C :   -0.146715
   1 C :    0.078988
   2 C :   -0.302349
   3 C :   -0.223765
   4 C :   -0.241028
   5 C :   -0.257636
   6 H :    0.464615
   7 H :    0.224796
   8 H :    0.177686
   9 H :    0.174711
  10 H :    0.172042
  11 C :   -0.456782
  12 C :   -0.507935
  13 H :    0.176703
  14 H :    0.235723
  15 C :    0.109092
  16 H :    0.273524
  17 H :    0.201182
  18 C :   -0.125702
  19 C :   -0.347061
  20 C :   -0.219269
  21 C :   -0.255971
  22 C :   -0.236256
  23 H :    0.229575
  24 H :    0.186012
  25 H :    0.181394
  26 H :    0.182697
  27 Pd:    0.090771
  28 Br:   -0.530436
  29 P :   -0.136553
  30 H :    0.117249
  31 C :    0.727138
  32 O :   -0.464875
  33 O :   -0.608230
  34 O :   -0.576369
  35 H :    0.086826
  36 H :    0.117183
  37 H :    0.429026
Sum of atomic charges:   -1.0000000

LOEWDIN ATOMIC CHARGES
----------------------
   0 C :   -0.082505
   1 C :   -0.053930
   2 C :   -0.140098
   3 C :   -0.168094
   4 C :   -0.173931
   5 C :   -0.164182
   6 H :    0.393529
   7 H :    0.144083
   8 H :    0.118885
   9 H :    0.116099
  10 H :    0.115157
  11 C :   -0.201771
  12 C :   -0.210965
  13 H :    0.113999
  14 H :    0.144039
  15 C :   -0.048262
  16 H :    0.170700
  17 H :    0.115212
  18 C :   -0.039606
  19 C :   -0.143059
  20 C :   -0.160004
  21 C :   -0.147869
  22 C :   -0.162833
  23 H :    0.142918
  24 H :    0.121434
  25 H :    0.121553
  26 H :    0.119593
  27 Pd:   -0.810536
  28 Br:   -0.308012
  29 P :    0.350968
  30 H :    0.061162
  31 C :    0.141691
  32 O :   -0.271513
  33 O :   -0.326471
  34 O :   -0.288776
  35 H :    0.032257
  36 H :    0.051520
  37 H :    0.327617

  Mayer bond orders larger than 0.100000
B(  0-C ,  1-C ) :   1.3698 B(  0-C ,  2-C ) :   1.3875 B(  0-C , 27-Pd) :   0.6657
B(  1-C ,  5-C ) :   1.3840 B(  1-C , 11-C ) :   0.9302 B(  2-C ,  3-C ) :   1.4058
B(  2-C ,  7-H ) :   0.9101 B(  3-C ,  4-C ) :   1.4147 B(  3-C ,  9-H ) :   0.9283
B(  4-C ,  5-C ) :   1.4207 B(  4-C , 10-H ) :   0.9314 B(  5-C ,  8-H ) :   0.9252
B(  6-H , 28-Br) :   0.1620 B(  6-H , 33-O ) :   0.5578 B( 11-C , 12-C ) :   0.9260
B( 11-C , 13-H ) :   0.9401 B( 11-C , 14-H ) :   0.9054 B( 12-C , 15-C ) :   0.9597
B( 12-C , 16-H ) :   0.8763 B( 12-C , 17-H ) :   0.9266 B( 15-C , 18-C ) :   1.3543
B( 15-C , 21-C ) :   1.3876 B( 18-C , 19-C ) :   1.4003 B( 18-C , 27-Pd) :   0.7056
B( 19-C , 20-C ) :   1.4237 B( 19-C , 23-H ) :   0.8989 B( 20-C , 22-C ) :   1.4144
B( 20-C , 24-H ) :   0.9267 B( 21-C , 22-C ) :   1.4430 B( 21-C , 25-H ) :   0.9252
B( 22-C , 26-H ) :   0.9282 B( 27-Pd, 28-Br) :   0.4416 B( 27-Pd, 29-P ) :   0.4404
B( 29-P , 30-H ) :   0.9366 B( 29-P , 35-H ) :   0.9208 B( 29-P , 36-H ) :   0.9264
B( 31-C , 32-O ) :   1.9240 B( 31-C , 33-O ) :   1.1725 B( 31-C , 34-O ) :   1.1230
B( 34-O , 37-H ) :   0.7678

Dispersion correction           -0.030960216
FINAL SINGLE POINT ENERGY     -3847.561109830694
Dispersion correction            ... done

DIPOLE MOMENT
-------------
                                X             Y             Z
Electronic contribution:    -16.32548     -59.97065      -8.18879
Nuclear contribution   :     18.11153      60.65728       8.74349
                        -----------------------------------------
Total Dipole Moment    :      1.78605       0.68663       0.55470
                        -----------------------------------------
Magnitude (a.u.)       :      1.99227
Magnitude (Debye)      :      5.06395

Rotational constants in cm-1:     0.006748     0.006638     0.004309
Rotational constants in MHz :   202.292238   199.010917   129.179974

                             ****ORCA TERMINATED NORMALLY****
TOTAL RUN TIME: 0 days 0 hours 13 minutes 32 seconds 995 msec
