                         Program Version 5.0.3 -  RELEASE  -
|  1> ! EnGrad PBEh-3c
|  2> %output
|  3> xyzfile=True
|  4> end
|  5> %scf
|  6> maxiter 250
|  7> end
|  8> %output
|  9> Print[P_Hirshfeld] = 1
| 10> end
| 11> % maxcore
| 12> 4000
| 13> *xyz -1 1
| 14> C   -2.15572053  -0.09340363   0.73170453
| 15> C   -1.84137936   1.13480636   1.37744920
| 16> C   -3.49930803  -0.52051574   0.75344634
| 17> C   -4.52609133   0.30992716   1.22892183
| 18> C   -4.20837318   1.55035814   1.75790057
| 19> C   -2.88481394   1.94469031   1.79207107
| 20> H   -1.51125496  -1.72339754  -2.42434459
| 21> H   -3.80212154  -1.51179279   0.44186578
| 22> H   -2.60724540   2.86041095   2.16419707
| 23> H   -5.57253968  -0.01277739   1.12101524
| 24> H   -5.01288981   2.19289791   2.12048817
| 25> C   -0.41815477   1.65623818   1.66650701
| 26> C    0.68532265   0.57506146   1.91392451
| 27> H   -0.45760134   2.21569922   2.57210959
| 28> H   -0.12795754   2.30752366   0.93459369
| 29> C    1.75075575   0.63549161   0.86541253
| 30> H    0.26500731  -0.43581977   1.95667969
| 31> H    1.16675243   0.70062189   2.89444934
| 32> C    1.57565562  -0.04056723  -0.34402656
| 33> C    2.59299979   0.13494372  -1.32655408
| 34> C    3.66163475   1.02709119  -1.11584638
| 35> C    2.89086891   1.41001018   1.10172901
| 36> C    3.78156389   1.71746713   0.08020812
| 37> H    2.60847762  -0.39314894  -2.27776274
| 38> H    4.40258213   1.23024539  -1.89601820
| 39> H    2.99747207   1.86925675   2.07593772
| 40> H    4.59599011   2.42692638   0.26011146
| 41> Pd  -0.22049372  -1.31299202  -0.35612781
| 42> Br  -1.79957912  -3.41929312  -1.04148180
| 43> P    1.43000055  -2.95125709  -0.02283657
| 44> H    0.98140694  -3.51907946   1.14819018
| 45> C    0.15297840  -1.33078244  -3.74356651
| 46> O    1.10608594  -1.92521831  -3.99062949
| 47> O   -0.84419966  -1.84890122  -3.13426439
| 48> O   -0.16085468  -0.12769197  -4.23985301
| 49> H    2.77054378  -2.79601086   0.35528511
| 50> H    1.60301074  -4.12060865  -0.76660322
| 51> H    0.62058316   0.18064334  -4.65374492
| 52> *
| 53>
| 54>                          ****END OF INPUT****

CARTESIAN COORDINATES (ANGSTROEM)
---------------------------------
  C     -2.155721   -0.093404    0.731705
  C     -1.841379    1.134806    1.377449
  C     -3.499308   -0.520516    0.753446
  C     -4.526091    0.309927    1.228922
  C     -4.208373    1.550358    1.757901
  C     -2.884814    1.944690    1.792071
  H     -1.511255   -1.723398   -2.424345
  H     -3.802122   -1.511793    0.441866
  H     -2.607245    2.860411    2.164197
  H     -5.572540   -0.012777    1.121015
  H     -5.012890    2.192898    2.120488
  C     -0.418155    1.656238    1.666507
  C      0.685323    0.575061    1.913925
  H     -0.457601    2.215699    2.572110
  H     -0.127958    2.307524    0.934594
  C      1.750756    0.635492    0.865413
  H      0.265007   -0.435820    1.956680
  H      1.166752    0.700622    2.894449
  C      1.575656   -0.040567   -0.344027
  C      2.593000    0.134944   -1.326554
  C      3.661635    1.027091   -1.115846
  C      2.890869    1.410010    1.101729
  C      3.781564    1.717467    0.080208
  H      2.608478   -0.393149   -2.277763
  H      4.402582    1.230245   -1.896018
  H      2.997472    1.869257    2.075938
  H      4.595990    2.426926    0.260111
  Pd    -0.220494   -1.312992   -0.356128
  Br    -1.799579   -3.419293   -1.041482
  P      1.430001   -2.951257   -0.022837
  H      0.981407   -3.519079    1.148190
  C      0.152978   -1.330782   -3.743567
  O      1.106086   -1.925218   -3.990629
  O     -0.844200   -1.848901   -3.134264
  O     -0.160855   -0.127692   -4.239853
  H      2.770544   -2.796011    0.355285
  H      1.603011   -4.120609   -0.766603
  H      0.620583    0.180643   -4.653745

 Total Charge           Charge          ....   -1
 Multiplicity           Mult            ....    1
 Number of Electrons    NEL             ....  200
 Basis Dimension        Dim             ....  385

ORBITAL ENERGIES
----------------

  NO   OCC          E(Eh)            E(eV)
   0   2.0000    -484.325012    -13179.1536
   1   2.0000     -77.664490     -2113.3582
   2   2.0000     -62.986569     -1713.9517
   3   2.0000     -56.690156     -1542.6176
   4   2.0000     -56.689233     -1542.5925
   5   2.0000     -56.689226     -1542.5923
   6   2.0000     -19.425346      -528.5905
   7   2.0000     -19.386277      -527.5274
   8   2.0000     -19.361911      -526.8644
   9   2.0000     -10.503420      -285.8126
  10   2.0000     -10.345129      -281.5053
  11   2.0000     -10.343666      -281.4655
  12   2.0000     -10.342675      -281.4385
  13   2.0000     -10.340969      -281.3921
  14   2.0000     -10.337729      -281.3039
  15   2.0000     -10.336569      -281.2723
  16   2.0000     -10.323479      -280.9161
  17   2.0000     -10.320610      -280.8381
  18   2.0000     -10.317800      -280.7616
  19   2.0000     -10.316616      -280.7294
  20   2.0000     -10.316222      -280.7187
  21   2.0000     -10.307930      -280.4930
  22   2.0000     -10.306816      -280.4627
  23   2.0000     -10.306346      -280.4499
  24   2.0000      -8.813875      -239.8377
  25   2.0000      -6.740726      -183.4245
  26   2.0000      -6.583133      -179.1361
  27   2.0000      -6.579352      -179.0333
  28   2.0000      -6.577823      -178.9917
  29   2.0000      -4.831695      -131.4771
  30   2.0000      -4.831526      -131.4725
  31   2.0000      -4.829622      -131.4207
  32   2.0000      -3.508717       -95.4770
  33   2.0000      -2.597284       -70.6757
  34   2.0000      -2.596616       -70.6575
  35   2.0000      -2.595294       -70.6215
  36   2.0000      -2.592009       -70.5322
  37   2.0000      -2.591911       -70.5295
  38   2.0000      -2.152583       -58.5748
  39   2.0000      -2.149020       -58.4778
  40   2.0000      -2.126400       -57.8623
  41   2.0000      -1.156136       -31.4601
  42   2.0000      -1.044304       -28.4170
  43   2.0000      -1.024672       -27.8827
  44   2.0000      -0.843305       -22.9475
  45   2.0000      -0.817892       -22.2560
  46   2.0000      -0.769730       -20.9454
  47   2.0000      -0.724626       -19.7181
  48   2.0000      -0.715758       -19.4768
  49   2.0000      -0.688745       -18.7417
  50   2.0000      -0.667920       -18.1750
  51   2.0000      -0.658218       -17.9110
  52   2.0000      -0.644298       -17.5322
  53   2.0000      -0.621065       -16.9000
  54   2.0000      -0.603165       -16.4130
  55   2.0000      -0.565864       -15.3979
  56   2.0000      -0.549592       -14.9552
  57   2.0000      -0.540486       -14.7074
  58   2.0000      -0.532396       -14.4872
  59   2.0000      -0.511205       -13.9106
  60   2.0000      -0.459418       -12.5014
  61   2.0000      -0.450348       -12.2546
  62   2.0000      -0.442212       -12.0332
  63   2.0000      -0.439253       -11.9527
  64   2.0000      -0.416863       -11.3434
  65   2.0000      -0.402807       -10.9609
  66   2.0000      -0.385660       -10.4943
  67   2.0000      -0.383861       -10.4454
  68   2.0000      -0.377447       -10.2708
  69   2.0000      -0.369190       -10.0462
  70   2.0000      -0.366699        -9.9784
  71   2.0000      -0.363390        -9.8883
  72   2.0000      -0.352630        -9.5955
  73   2.0000      -0.341905        -9.3037
  74   2.0000      -0.332097        -9.0368
  75   2.0000      -0.324501        -8.8301
  76   2.0000      -0.316841        -8.6217
  77   2.0000      -0.301317        -8.1993
  78   2.0000      -0.297011        -8.0821
  79   2.0000      -0.290057        -7.8928
  80   2.0000      -0.289230        -7.8704
  81   2.0000      -0.284545        -7.7429
  82   2.0000      -0.278560        -7.5800
  83   2.0000      -0.269129        -7.3234
  84   2.0000      -0.263354        -7.1662
  85   2.0000      -0.254913        -6.9365
  86   2.0000      -0.238708        -6.4956
  87   2.0000      -0.236613        -6.4386
  88   2.0000      -0.232141        -6.3169
  89   2.0000      -0.210426        -5.7260
  90   2.0000      -0.202957        -5.5227
  91   2.0000      -0.179119        -4.8741
  92   2.0000      -0.172781        -4.7016
  93   2.0000      -0.167292        -4.5522
  94   2.0000      -0.161842        -4.4040
  95   2.0000      -0.153764        -4.1841
  96   2.0000      -0.151342        -4.1182
  97   2.0000      -0.145428        -3.9573
  98   2.0000      -0.140756        -3.8302
  99   2.0000      -0.104104        -2.8328
 100   0.0000       0.061738         1.6800
 101   0.0000       0.117942         3.2094
 102   0.0000       0.130984         3.5643
 103   0.0000       0.149152         4.0586
 104   0.0000       0.153959         4.1894

MULLIKEN ATOMIC CHARGES
-----------------------
   0 C :   -0.132320
   1 C :    0.045447
   2 C :   -0.311699
   3 C :   -0.225190
   4 C :   -0.235118
   5 C :   -0.245972
   6 H :    0.494370
   7 H :    0.226460
   8 H :    0.169884
   9 H :    0.173288
  10 H :    0.165731
  11 C :   -0.462360
  12 C :   -0.523399
  13 H :    0.202219
  14 H :    0.264448
  15 C :    0.109848
  16 H :    0.281101
  17 H :    0.196759
  18 C :   -0.125722
  19 C :   -0.331113
  20 C :   -0.223961
  21 C :   -0.272415
  22 C :   -0.225880
  23 H :    0.223112
  24 H :    0.183428
  25 H :    0.180354
  26 H :    0.181665
  27 Pd:    0.049581
  28 Br:   -0.538578
  29 P :   -0.144934
  30 H :    0.125563
  31 C :    0.690072
  32 O :   -0.412969
  33 O :   -0.602338
  34 O :   -0.585841
  35 H :    0.094323
  36 H :    0.118147
  37 H :    0.424011
Sum of atomic charges:   -1.0000000

LOEWDIN ATOMIC CHARGES
----------------------
   0 C :   -0.098633
   1 C :   -0.052552
   2 C :   -0.147101
   3 C :   -0.163996
   4 C :   -0.171348
   5 C :   -0.162740
   6 H :    0.366532
   7 H :    0.138665
   8 H :    0.114720
   9 H :    0.114438
  10 H :    0.113142
  11 C :   -0.217959
  12 C :   -0.209273
  13 H :    0.123356
  14 H :    0.143964
  15 C :   -0.044845
  16 H :    0.168829
  17 H :    0.113577
  18 C :   -0.034706
  19 C :   -0.145252
  20 C :   -0.159692
  21 C :   -0.148984
  22 C :   -0.162939
  23 H :    0.140311
  24 H :    0.119885
  25 H :    0.120176
  26 H :    0.119342
  27 Pd:   -0.827829
  28 Br:   -0.313501
  29 P :    0.375528
  30 H :    0.062184
  31 C :    0.091493
  32 O :   -0.209302
  33 O :   -0.263022
  34 O :   -0.297961
  35 H :    0.035643
  36 H :    0.050827
  37 H :    0.319023

  Mayer bond orders larger than 0.100000
B(  0-C ,  1-C ) :   1.3715 B(  0-C ,  2-C ) :   1.4452 B(  0-C , 27-Pd) :   0.6266
B(  1-C ,  5-C ) :   1.4216 B(  1-C , 11-C ) :   0.9677 B(  2-C ,  3-C ) :   1.4011
B(  2-C ,  7-H ) :   0.9047 B(  3-C ,  4-C ) :   1.4343 B(  3-C ,  9-H ) :   0.9284
B(  4-C ,  5-C ) :   1.4251 B(  4-C , 10-H ) :   0.9334 B(  5-C ,  8-H ) :   0.9243
B(  6-H , 28-Br) :   0.1306 B(  6-H , 33-O ) :   0.5795 B( 11-C , 12-C ) :   0.9410
B( 11-C , 13-H ) :   0.9330 B( 11-C , 14-H ) :   0.8981 B( 12-C , 15-C ) :   0.9615
B( 12-C , 16-H ) :   0.8760 B( 12-C , 17-H ) :   0.9319 B( 15-C , 18-C ) :   1.3556
B( 15-C , 21-C ) :   1.4011 B( 18-C , 19-C ) :   1.4001 B( 18-C , 27-Pd) :   0.7174
B( 19-C , 20-C ) :   1.4154 B( 19-C , 23-H ) :   0.9040 B( 20-C , 22-C ) :   1.4294
B( 20-C , 24-H ) :   0.9272 B( 21-C , 22-C ) :   1.4276 B( 21-C , 25-H ) :   0.9257
B( 22-C , 26-H ) :   0.9282 B( 27-Pd, 28-Br) :   0.4720 B( 27-Pd, 29-P ) :   0.5277
B( 29-P , 30-H ) :   0.9359 B( 29-P , 35-H ) :   0.9213 B( 29-P , 36-H ) :   0.9281
B( 31-C , 32-O ) :   1.9873 B( 31-C , 33-O ) :   1.1695 B( 31-C , 34-O ) :   1.1073
B( 34-O , 37-H ) :   0.7776

Dispersion correction           -0.031227005
FINAL SINGLE POINT ENERGY     -3847.604483029015
Dispersion correction            ... done

DIPOLE MOMENT
-------------
                                X             Y             Z
Electronic contribution:    -11.43845     -64.25007     -10.00554
Nuclear contribution   :     13.46246      64.77127      10.44885
                        -----------------------------------------
Total Dipole Moment    :      2.02401       0.52120       0.44330
                        -----------------------------------------
Magnitude (a.u.)       :      2.13654
Magnitude (Debye)      :      5.43065

Rotational constants in cm-1:     0.006813     0.006596     0.004368
Rotational constants in MHz :   204.258507   197.729963   130.938362

                             ****ORCA TERMINATED NORMALLY****
TOTAL RUN TIME: 0 days 0 hours 12 minutes 44 seconds 230 msec
