                         Program Version 5.0.3 -  RELEASE  -
|  1> ! EnGrad PBEh-3c
|  2> %output
|  3> xyzfile=True
|  4> end
|  5> %scf
|  6> maxiter 250
|  7> end
|  8> %output
|  9> Print[P_Hirshfeld] = 1
| 10> end
| 11> % maxcore
| 12> 4000
| 13> *xyz -1 1
| 14> C   -2.13154189  -0.08520938   0.74252417
| 15> C   -1.83247552   1.12321909   1.36994387
| 16> C   -3.47631487  -0.47738333   0.72686917
| 17> C   -4.49314246   0.35544488   1.17370205
| 18> C   -4.18195674   1.57879151   1.70899383
| 19> C   -2.87058772   1.94039295   1.75651736
| 20> H   -1.48987811  -1.82276671  -2.42627595
| 21> H   -3.76472220  -1.44457880   0.33763470
| 22> H   -2.61704788   2.84968039   2.23561325
| 23> H   -5.52001418   0.03754607   1.05441138
| 24> H   -4.97217322   2.21669955   2.05648159
| 25> C   -0.43645590   1.57568915   1.71767188
| 26> C    0.68442531   0.56777379   1.93420653
| 27> H   -0.48963397   2.12168859   2.58528822
| 28> H   -0.10673324   2.29129968   1.03544650
| 29> C    1.73056810   0.64856498   0.87506843
| 30> H    0.28002773  -0.43646173   1.97082511
| 31> H    1.17674427   0.68396470   2.90893497
| 32> C    1.54723964  -0.02492180  -0.33662063
| 33> C    2.55896087   0.15643535  -1.31197823
| 34> C    3.62416630   1.05002455  -1.11628860
| 35> C    2.87360864   1.41214688   1.10408196
| 36> C    3.75497751   1.72982340   0.08392612
| 37> H    2.57129867  -0.36704560  -2.26333670
| 38> H    4.35940736   1.24774622  -1.89505724
| 39> H    3.00145438   1.86691308   2.07556325
| 40> H    4.56810115   2.43360074   0.25758642
| 41> Pd  -0.16477586  -1.34088122  -0.36618700
| 42> Br  -1.80619352  -3.42548324  -0.88998902
| 43> P    1.42881202  -2.94850057  -0.04126230
| 44> H    1.03025284  -3.53784293   1.13618461
| 45> C    0.11060017  -1.31401640  -3.73346991
| 46> O    1.13796833  -1.93549691  -4.00887581
| 47> O   -0.82318806  -1.88798205  -3.15785122
| 48> O   -0.20585664  -0.13524539  -4.21599181
| 49> H    2.76030239  -2.78198364   0.30857593
| 50> H    1.58738344  -4.11209046  -0.78129101
| 51> H    0.58566737   0.18723339  -4.62826908
| 52> *
| 53>
| 54>                          ****END OF INPUT****

CARTESIAN COORDINATES (ANGSTROEM)
---------------------------------
  C     -2.131542   -0.085209    0.742524
  C     -1.832476    1.123219    1.369944
  C     -3.476315   -0.477383    0.726869
  C     -4.493142    0.355445    1.173702
  C     -4.181957    1.578792    1.708994
  C     -2.870588    1.940393    1.756517
  H     -1.489878   -1.822767   -2.426276
  H     -3.764722   -1.444579    0.337635
  H     -2.617048    2.849680    2.235613
  H     -5.520014    0.037546    1.054411
  H     -4.972173    2.216700    2.056482
  C     -0.436456    1.575689    1.717672
  C      0.684425    0.567774    1.934207
  H     -0.489634    2.121689    2.585288
  H     -0.106733    2.291300    1.035446
  C      1.730568    0.648565    0.875068
  H      0.280028   -0.436462    1.970825
  H      1.176744    0.683965    2.908935
  C      1.547240   -0.024922   -0.336621
  C      2.558961    0.156435   -1.311978
  C      3.624166    1.050025   -1.116289
  C      2.873609    1.412147    1.104082
  C      3.754978    1.729823    0.083926
  H      2.571299   -0.367046   -2.263337
  H      4.359407    1.247746   -1.895057
  H      3.001454    1.866913    2.075563
  H      4.568101    2.433601    0.257586
  Pd    -0.164776   -1.340881   -0.366187
  Br    -1.806194   -3.425483   -0.889989
  P      1.428812   -2.948501   -0.041262
  H      1.030253   -3.537843    1.136185
  C      0.110600   -1.314016   -3.733470
  O      1.137968   -1.935497   -4.008876
  O     -0.823188   -1.887982   -3.157851
  O     -0.205857   -0.135245   -4.215992
  H      2.760302   -2.781984    0.308576
  H      1.587383   -4.112090   -0.781291
  H      0.585667    0.187233   -4.628269

 Total Charge           Charge          ....   -1
 Multiplicity           Mult            ....    1
 Number of Electrons    NEL             ....  200
 Basis Dimension        Dim             ....  385

ORBITAL ENERGIES
----------------

  NO   OCC          E(Eh)            E(eV)
   0   2.0000    -484.332193    -13179.3490
   1   2.0000     -77.663298     -2113.3258
   2   2.0000     -62.993669     -1714.1449
   3   2.0000     -56.697256     -1542.8108
   4   2.0000     -56.696390     -1542.7872
   5   2.0000     -56.696286     -1542.7844
   6   2.0000     -19.438301      -528.9431
   7   2.0000     -19.401013      -527.9284
   8   2.0000     -19.345962      -526.4304
   9   2.0000     -10.507660      -285.9280
  10   2.0000     -10.343916      -281.4723
  11   2.0000     -10.341182      -281.3979
  12   2.0000     -10.340456      -281.3781
  13   2.0000     -10.337241      -281.2906
  14   2.0000     -10.336005      -281.2570
  15   2.0000     -10.335400      -281.2405
  16   2.0000     -10.318415      -280.7783
  17   2.0000     -10.313037      -280.6320
  18   2.0000     -10.310984      -280.5761
  19   2.0000     -10.309186      -280.5272
  20   2.0000     -10.305278      -280.4209
  21   2.0000     -10.305068      -280.4151
  22   2.0000     -10.300414      -280.2885
  23   2.0000     -10.298843      -280.2458
  24   2.0000      -8.820927      -240.0296
  25   2.0000      -6.740278      -183.4123
  26   2.0000      -6.590091      -179.3255
  27   2.0000      -6.586468      -179.2269
  28   2.0000      -6.584899      -179.1842
  29   2.0000      -4.831223      -131.4643
  30   2.0000      -4.831024      -131.4588
  31   2.0000      -4.829234      -131.4101
  32   2.0000      -3.513789       -95.6150
  33   2.0000      -2.604283       -70.8661
  34   2.0000      -2.603655       -70.8491
  35   2.0000      -2.602260       -70.8111
  36   2.0000      -2.599130       -70.7259
  37   2.0000      -2.599026       -70.7231
  38   2.0000      -2.157577       -58.7107
  39   2.0000      -2.154720       -58.6329
  40   2.0000      -2.131218       -57.9934
  41   2.0000      -1.160468       -31.5779
  42   2.0000      -1.058644       -28.8072
  43   2.0000      -0.987094       -26.8602
  44   2.0000      -0.845278       -23.0012
  45   2.0000      -0.825365       -22.4593
  46   2.0000      -0.775705       -21.1080
  47   2.0000      -0.727807       -19.8046
  48   2.0000      -0.716869       -19.5070
  49   2.0000      -0.691165       -18.8076
  50   2.0000      -0.673162       -18.3177
  51   2.0000      -0.665843       -18.1185
  52   2.0000      -0.648205       -17.6385
  53   2.0000      -0.631524       -17.1846
  54   2.0000      -0.605097       -16.4655
  55   2.0000      -0.565468       -15.3872
  56   2.0000      -0.561375       -15.2758
  57   2.0000      -0.540526       -14.7085
  58   2.0000      -0.534549       -14.5458
  59   2.0000      -0.512145       -13.9362
  60   2.0000      -0.460603       -12.5336
  61   2.0000      -0.450998       -12.2723
  62   2.0000      -0.444992       -12.1088
  63   2.0000      -0.443185       -12.0597
  64   2.0000      -0.418749       -11.3947
  65   2.0000      -0.404075       -10.9954
  66   2.0000      -0.387943       -10.5565
  67   2.0000      -0.376164       -10.2360
  68   2.0000      -0.372091       -10.1251
  69   2.0000      -0.369291       -10.0489
  70   2.0000      -0.368005       -10.0139
  71   2.0000      -0.365145        -9.9361
  72   2.0000      -0.351354        -9.5608
  73   2.0000      -0.343039        -9.3346
  74   2.0000      -0.332855        -9.0574
  75   2.0000      -0.322278        -8.7696
  76   2.0000      -0.320165        -8.7121
  77   2.0000      -0.311067        -8.4646
  78   2.0000      -0.306445        -8.3388
  79   2.0000      -0.294993        -8.0272
  80   2.0000      -0.292775        -7.9668
  81   2.0000      -0.287321        -7.8184
  82   2.0000      -0.281276        -7.6539
  83   2.0000      -0.263749        -7.1770
  84   2.0000      -0.252186        -6.8623
  85   2.0000      -0.248495        -6.7619
  86   2.0000      -0.241280        -6.5656
  87   2.0000      -0.239673        -6.5218
  88   2.0000      -0.216074        -5.8797
  89   2.0000      -0.214197        -5.8286
  90   2.0000      -0.207259        -5.6398
  91   2.0000      -0.181187        -4.9303
  92   2.0000      -0.173861        -4.7310
  93   2.0000      -0.172284        -4.6881
  94   2.0000      -0.165586        -4.5058
  95   2.0000      -0.158721        -4.3190
  96   2.0000      -0.151667        -4.1271
  97   2.0000      -0.149286        -4.0623
  98   2.0000      -0.146086        -3.9752
  99   2.0000      -0.103127        -2.8062
 100   0.0000       0.065249         1.7755
 101   0.0000       0.120323         3.2742
 102   0.0000       0.132263         3.5991
 103   0.0000       0.151549         4.1239
 104   0.0000       0.157568         4.2876

MULLIKEN ATOMIC CHARGES
-----------------------
   0 C :   -0.126229
   1 C :    0.058751
   2 C :   -0.322394
   3 C :   -0.223506
   4 C :   -0.227340
   5 C :   -0.256651
   6 H :    0.497748
   7 H :    0.223284
   8 H :    0.157676
   9 H :    0.171951
  10 H :    0.169432
  11 C :   -0.463443
  12 C :   -0.530509
  13 H :    0.214531
  14 H :    0.256986
  15 C :    0.108648
  16 H :    0.284492
  17 H :    0.198596
  18 C :   -0.116248
  19 C :   -0.328317
  20 C :   -0.224470
  21 C :   -0.276551
  22 C :   -0.225399
  23 H :    0.229094
  24 H :    0.184818
  25 H :    0.178966
  26 H :    0.182112
  27 Pd:    0.026244
  28 Br:   -0.525563
  29 P :   -0.141430
  30 H :    0.124533
  31 C :    0.695504
  32 O :   -0.502683
  33 O :   -0.561673
  34 O :   -0.562833
  35 H :    0.096362
  36 H :    0.120842
  37 H :    0.434672
Sum of atomic charges:   -1.0000000

LOEWDIN ATOMIC CHARGES
----------------------
   0 C :   -0.108214
   1 C :   -0.058885
   2 C :   -0.146486
   3 C :   -0.165430
   4 C :   -0.172109
   5 C :   -0.156628
   6 H :    0.372610
   7 H :    0.135477
   8 H :    0.111217
   9 H :    0.113650
  10 H :    0.114221
  11 C :   -0.224681
  12 C :   -0.211081
  13 H :    0.126195
  14 H :    0.143415
  15 C :   -0.040839
  16 H :    0.167903
  17 H :    0.114910
  18 C :   -0.030385
  19 C :   -0.144028
  20 C :   -0.159661
  21 C :   -0.149768
  22 C :   -0.162255
  23 H :    0.143154
  24 H :    0.120250
  25 H :    0.119795
  26 H :    0.119220
  27 Pd:   -0.841404
  28 Br:   -0.303593
  29 P :    0.393301
  30 H :    0.059895
  31 C :    0.106967
  32 O :   -0.317112
  33 O :   -0.218501
  34 O :   -0.269573
  35 H :    0.036483
  36 H :    0.051923
  37 H :    0.330046

  Mayer bond orders larger than 0.100000
B(  0-C ,  1-C ) :   1.3971 B(  0-C ,  2-C ) :   1.4440 B(  0-C , 27-Pd) :   0.6087
B(  1-C ,  5-C ) :   1.3961 B(  1-C , 11-C ) :   0.9775 B(  2-C ,  3-C ) :   1.4195
B(  2-C ,  7-H ) :   0.9037 B(  3-C ,  4-C ) :   1.4280 B(  3-C ,  9-H ) :   0.9284
B(  4-C ,  5-C ) :   1.4438 B(  4-C , 10-H ) :   0.9313 B(  5-C ,  8-H ) :   0.9281
B(  6-H , 28-Br) :   0.1428 B(  6-H , 33-O ) :   0.5649 B( 11-C , 12-C ) :   0.9408
B( 11-C , 13-H ) :   0.9260 B( 11-C , 14-H ) :   0.9013 B( 12-C , 15-C ) :   0.9655
B( 12-C , 16-H ) :   0.8771 B( 12-C , 17-H ) :   0.9333 B( 15-C , 18-C ) :   1.3534
B( 15-C , 21-C ) :   1.4069 B( 18-C , 19-C ) :   1.3976 B( 18-C , 27-Pd) :   0.7317
B( 19-C , 20-C ) :   1.4130 B( 19-C , 23-H ) :   0.8985 B( 20-C , 22-C ) :   1.4333
B( 20-C , 24-H ) :   0.9272 B( 21-C , 22-C ) :   1.4267 B( 21-C , 25-H ) :   0.9264
B( 22-C , 26-H ) :   0.9279 B( 27-Pd, 28-Br) :   0.4684 B( 27-Pd, 29-P ) :   0.5892
B( 29-P , 30-H ) :   0.9350 B( 29-P , 35-H ) :   0.9209 B( 29-P , 36-H ) :   0.9277
B( 31-C , 32-O ) :   1.8635 B( 31-C , 33-O ) :   1.2328 B( 31-C , 34-O ) :   1.1461
B( 34-O , 37-H ) :   0.7688

Dispersion correction           -0.031394027
FINAL SINGLE POINT ENERGY     -3847.617876633970
Dispersion correction            ... done

DIPOLE MOMENT
-------------
                                X             Y             Z
Electronic contribution:     -8.61660     -65.74236     -10.44966
Nuclear contribution   :     10.43537      66.27385      10.92829
                        -----------------------------------------
Total Dipole Moment    :      1.81877       0.53149       0.47863
                        -----------------------------------------
Magnitude (a.u.)       :      1.95435
Magnitude (Debye)      :      4.96757

Rotational constants in cm-1:     0.006852     0.006600     0.004420
Rotational constants in MHz :   205.409779   197.848279   132.519179

                             ****ORCA TERMINATED NORMALLY****
TOTAL RUN TIME: 0 days 0 hours 12 minutes 39 seconds 604 msec
