                         Program Version 5.0.3 -  RELEASE  -
|  1> ! EnGrad PBEh-3c
|  2> %output
|  3> xyzfile=True
|  4> end
|  5> %scf
|  6> maxiter 250
|  7> end
|  8> %output
|  9> Print[P_Hirshfeld] = 1
| 10> end
| 11> % maxcore
| 12> 4000
| 13> *xyz -1 1
| 14> C   -2.11461532  -0.08935674   0.73035488
| 15> C   -1.83014274   1.10775020   1.36725313
| 16> C   -3.47238437  -0.47505109   0.71720585
| 17> C   -4.49594448   0.35069574   1.16755649
| 18> C   -4.19145960   1.57960300   1.70489681
| 19> C   -2.86957029   1.93414329   1.77146748
| 20> H   -1.50480115  -1.81397095  -2.40753033
| 21> H   -3.76644245  -1.44836344   0.33821205
| 22> H   -2.60941247   2.86943945   2.23825035
| 23> H   -5.52312434   0.04309372   1.05103107
| 24> H   -4.97289091   2.22479488   2.05754257
| 25> C   -0.43979180   1.55819453   1.72228119
| 26> C    0.68786420   0.55779088   1.93521846
| 27> H   -0.49263650   2.13439853   2.61147371
| 28> H   -0.10301520   2.30529118   1.01088938
| 29> C    1.73662413   0.64083966   0.87464118
| 30> H    0.27888829  -0.44287450   1.97099934
| 31> H    1.17425045   0.68654627   2.90876126
| 32> C    1.54463100  -0.02648319  -0.33831537
| 33> C    2.55841111   0.15738029  -1.31267012
| 34> C    3.62126453   1.05482233  -1.11680544
| 35> C    2.86766030   1.42044719   1.10170230
| 36> C    3.75806344   1.72593108   0.08764621
| 37> H    2.56833487  -0.36860086  -2.26342071
| 38> H    4.35619132   1.24879497  -1.89607598
| 39> H    3.00037970   1.86781854   2.07912408
| 40> H    4.56469262   2.43421412   0.25735582
| 41> Pd  -0.16447732  -1.33316409  -0.36087379
| 42> Br  -1.80151926  -3.42219459  -0.89153345
| 43> P    1.42362212  -2.94338566  -0.04957689
| 44> H    1.02850913  -3.54248337   1.14474194
| 45> C    0.12164852  -1.33231152  -3.74410160
| 46> O    1.15330497  -1.92049438  -4.01546695
| 47> O   -0.84167226  -1.91621727  -3.14558378
| 48> O   -0.20877678  -0.12888227  -4.21254181
| 49> H    2.76833016  -2.77946101   0.30899099
| 50> H    1.58815919  -4.11668830  -0.78531156
| 51> H    0.59142387   0.19468163  -4.63393333
| 52> *
| 53>
| 54>                          ****END OF INPUT****

CARTESIAN COORDINATES (ANGSTROEM)
---------------------------------
  C     -2.114615   -0.089357    0.730355
  C     -1.830143    1.107750    1.367253
  C     -3.472384   -0.475051    0.717206
  C     -4.495944    0.350696    1.167556
  C     -4.191460    1.579603    1.704897
  C     -2.869570    1.934143    1.771467
  H     -1.504801   -1.813971   -2.407530
  H     -3.766442   -1.448363    0.338212
  H     -2.609412    2.869439    2.238250
  H     -5.523124    0.043094    1.051031
  H     -4.972891    2.224795    2.057543
  C     -0.439792    1.558195    1.722281
  C      0.687864    0.557791    1.935218
  H     -0.492636    2.134399    2.611474
  H     -0.103015    2.305291    1.010889
  C      1.736624    0.640840    0.874641
  H      0.278888   -0.442874    1.970999
  H      1.174250    0.686546    2.908761
  C      1.544631   -0.026483   -0.338315
  C      2.558411    0.157380   -1.312670
  C      3.621265    1.054822   -1.116805
  C      2.867660    1.420447    1.101702
  C      3.758063    1.725931    0.087646
  H      2.568335   -0.368601   -2.263421
  H      4.356191    1.248795   -1.896076
  H      3.000380    1.867819    2.079124
  H      4.564693    2.434214    0.257356
  Pd    -0.164477   -1.333164   -0.360874
  Br    -1.801519   -3.422195   -0.891533
  P      1.423622   -2.943386   -0.049577
  H      1.028509   -3.542483    1.144742
  C      0.121649   -1.332312   -3.744102
  O      1.153305   -1.920494   -4.015467
  O     -0.841672   -1.916217   -3.145584
  O     -0.208777   -0.128882   -4.212542
  H      2.768330   -2.779461    0.308991
  H      1.588159   -4.116688   -0.785312
  H      0.591424    0.194682   -4.633933

 Total Charge           Charge          ....   -1
 Multiplicity           Mult            ....    1
 Number of Electrons    NEL             ....  200
 Basis Dimension        Dim             ....  385

ORBITAL ENERGIES
----------------

  NO   OCC          E(Eh)            E(eV)
   0   2.0000    -484.331371    -13179.3266
   1   2.0000     -77.666387     -2113.4098
   2   2.0000     -62.992854     -1714.1227
   3   2.0000     -56.696443     -1542.7886
   4   2.0000     -56.695564     -1542.7647
   5   2.0000     -56.695474     -1542.7623
   6   2.0000     -19.438672      -528.9532
   7   2.0000     -19.399463      -527.8862
   8   2.0000     -19.358084      -526.7602
   9   2.0000     -10.513510      -286.0871
  10   2.0000     -10.344226      -281.4807
  11   2.0000     -10.341521      -281.4071
  12   2.0000     -10.340424      -281.3772
  13   2.0000     -10.338015      -281.3117
  14   2.0000     -10.336202      -281.2624
  15   2.0000     -10.335529      -281.2440
  16   2.0000     -10.318272      -280.7745
  17   2.0000     -10.313069      -280.6329
  18   2.0000     -10.312346      -280.6132
  19   2.0000     -10.312239      -280.6103
  20   2.0000     -10.309543      -280.5369
  21   2.0000     -10.308633      -280.5122
  22   2.0000     -10.302183      -280.3366
  23   2.0000     -10.299235      -280.2564
  24   2.0000      -8.820125      -240.0078
  25   2.0000      -6.742259      -183.4662
  26   2.0000      -6.589327      -179.3047
  27   2.0000      -6.585656      -179.2048
  28   2.0000      -6.584068      -179.1616
  29   2.0000      -4.833226      -131.5188
  30   2.0000      -4.833049      -131.5140
  31   2.0000      -4.831285      -131.4660
  32   2.0000      -3.515135       -95.6517
  33   2.0000      -2.603514       -70.8452
  34   2.0000      -2.602882       -70.8280
  35   2.0000      -2.601466       -70.7895
  36   2.0000      -2.598297       -70.7032
  37   2.0000      -2.598192       -70.7004
  38   2.0000      -2.158877       -58.7460
  39   2.0000      -2.156165       -58.6722
  40   2.0000      -2.132402       -58.0256
  41   2.0000      -1.148118       -31.2419
  42   2.0000      -1.045531       -28.4503
  43   2.0000      -0.999520       -27.1983
  44   2.0000      -0.845378       -23.0039
  45   2.0000      -0.822506       -22.3815
  46   2.0000      -0.773814       -21.0565
  47   2.0000      -0.726440       -19.7674
  48   2.0000      -0.717454       -19.5229
  49   2.0000      -0.688611       -18.7381
  50   2.0000      -0.672128       -18.2895
  51   2.0000      -0.660323       -17.9683
  52   2.0000      -0.644463       -17.5367
  53   2.0000      -0.626275       -17.0418
  54   2.0000      -0.601417       -16.3654
  55   2.0000      -0.565853       -15.3976
  56   2.0000      -0.549814       -14.9612
  57   2.0000      -0.540327       -14.7031
  58   2.0000      -0.534425       -14.5424
  59   2.0000      -0.508605       -13.8398
  60   2.0000      -0.460654       -12.5350
  61   2.0000      -0.450356       -12.2548
  62   2.0000      -0.442987       -12.0543
  63   2.0000      -0.437622       -11.9083
  64   2.0000      -0.418115       -11.3775
  65   2.0000      -0.403266       -10.9734
  66   2.0000      -0.386167       -10.5081
  67   2.0000      -0.377745       -10.2790
  68   2.0000      -0.375094       -10.2068
  69   2.0000      -0.366000        -9.9594
  70   2.0000      -0.365885        -9.9562
  71   2.0000      -0.363768        -9.8986
  72   2.0000      -0.350879        -9.5479
  73   2.0000      -0.341296        -9.2871
  74   2.0000      -0.331665        -9.0251
  75   2.0000      -0.320980        -8.7343
  76   2.0000      -0.319212        -8.6862
  77   2.0000      -0.306881        -8.3507
  78   2.0000      -0.306722        -8.3463
  79   2.0000      -0.293426        -7.9845
  80   2.0000      -0.292264        -7.9529
  81   2.0000      -0.286998        -7.8096
  82   2.0000      -0.279296        -7.6000
  83   2.0000      -0.261957        -7.1282
  84   2.0000      -0.255161        -6.9433
  85   2.0000      -0.251434        -6.8419
  86   2.0000      -0.244483        -6.6527
  87   2.0000      -0.240909        -6.5555
  88   2.0000      -0.226691        -6.1686
  89   2.0000      -0.215049        -5.8518
  90   2.0000      -0.208870        -5.6836
  91   2.0000      -0.181649        -4.9429
  92   2.0000      -0.173997        -4.7347
  93   2.0000      -0.172473        -4.6932
  94   2.0000      -0.165890        -4.5141
  95   2.0000      -0.158335        -4.3085
  96   2.0000      -0.149801        -4.0763
  97   2.0000      -0.147863        -4.0235
  98   2.0000      -0.145961        -3.9718
  99   2.0000      -0.105894        -2.8815
 100   0.0000       0.065447         1.7809
 101   0.0000       0.119959         3.2642
 102   0.0000       0.131868         3.5883
 103   0.0000       0.150822         4.1041
 104   0.0000       0.155882         4.2418

MULLIKEN ATOMIC CHARGES
-----------------------
   0 C :   -0.127604
   1 C :    0.077445
   2 C :   -0.326061
   3 C :   -0.221332
   4 C :   -0.228104
   5 C :   -0.262181
   6 H :    0.496566
   7 H :    0.221770
   8 H :    0.158604
   9 H :    0.172458
  10 H :    0.170513
  11 C :   -0.468668
  12 C :   -0.526273
  13 H :    0.206972
  14 H :    0.245614
  15 C :    0.111674
  16 H :    0.284721
  17 H :    0.199694
  18 C :   -0.114416
  19 C :   -0.330125
  20 C :   -0.223508
  21 C :   -0.275286
  22 C :   -0.225906
  23 H :    0.226871
  24 H :    0.184462
  25 H :    0.179049
  26 H :    0.182872
  27 Pd:    0.032030
  28 Br:   -0.523956
  29 P :   -0.139072
  30 H :    0.123006
  31 C :    0.716546
  32 O :   -0.479462
  33 O :   -0.592033
  34 O :   -0.573047
  35 H :    0.094234
  36 H :    0.119542
  37 H :    0.432392
Sum of atomic charges:   -1.0000000

LOEWDIN ATOMIC CHARGES
----------------------
   0 C :   -0.110101
   1 C :   -0.062128
   2 C :   -0.142729
   3 C :   -0.168159
   4 C :   -0.172390
   5 C :   -0.155258
   6 H :    0.371678
   7 H :    0.135237
   8 H :    0.110738
   9 H :    0.114141
  10 H :    0.114239
  11 C :   -0.218080
  12 C :   -0.212917
  13 H :    0.122812
  14 H :    0.141145
  15 C :   -0.040577
  16 H :    0.168155
  17 H :    0.115495
  18 C :   -0.029729
  19 C :   -0.143407
  20 C :   -0.159447
  21 C :   -0.148938
  22 C :   -0.162379
  23 H :    0.142101
  24 H :    0.120304
  25 H :    0.120178
  26 H :    0.119510
  27 Pd:   -0.841581
  28 Br:   -0.301840
  29 P :    0.394950
  30 H :    0.059775
  31 C :    0.134832
  32 O :   -0.291139
  33 O :   -0.254974
  34 O :   -0.286209
  35 H :    0.035464
  36 H :    0.051252
  37 H :    0.329977

  Mayer bond orders larger than 0.100000
B(  0-C ,  1-C ) :   1.4058 B(  0-C ,  2-C ) :   1.4272 B(  0-C , 27-Pd) :   0.6080
B(  1-C ,  5-C ) :   1.3790 B(  1-C , 11-C ) :   0.9639 B(  2-C ,  3-C ) :   1.4273
B(  2-C ,  7-H ) :   0.9050 B(  3-C ,  4-C ) :   1.4174 B(  3-C ,  9-H ) :   0.9288
B(  4-C ,  5-C ) :   1.4546 B(  4-C , 10-H ) :   0.9306 B(  5-C ,  8-H ) :   0.9285
B(  6-H , 28-Br) :   0.1403 B(  6-H , 33-O ) :   0.5688 B( 11-C , 12-C ) :   0.9355
B( 11-C , 13-H ) :   0.9295 B( 11-C , 14-H ) :   0.9040 B( 12-C , 15-C ) :   0.9653
B( 12-C , 16-H ) :   0.8769 B( 12-C , 17-H ) :   0.9328 B( 15-C , 18-C ) :   1.3512
B( 15-C , 21-C ) :   1.4067 B( 18-C , 19-C ) :   1.3954 B( 18-C , 27-Pd) :   0.7341
B( 19-C , 20-C ) :   1.4143 B( 19-C , 23-H ) :   0.9001 B( 20-C , 22-C ) :   1.4331
B( 20-C , 24-H ) :   0.9273 B( 21-C , 22-C ) :   1.4282 B( 21-C , 25-H ) :   0.9265
B( 22-C , 26-H ) :   0.9277 B( 27-Pd, 28-Br) :   0.4669 B( 27-Pd, 29-P ) :   0.5938
B( 29-P , 30-H ) :   0.9344 B( 29-P , 35-H ) :   0.9194 B( 29-P , 36-H ) :   0.9257
B( 31-C , 32-O ) :   1.8954 B( 31-C , 33-O ) :   1.1957 B( 31-C , 34-O ) :   1.1282
B( 34-O , 37-H ) :   0.7702

Dispersion correction           -0.031396235
FINAL SINGLE POINT ENERGY     -3847.632851111900
Dispersion correction            ... done

DIPOLE MOMENT
-------------
                                X             Y             Z
Electronic contribution:     -8.51793     -65.33694     -10.21264
Nuclear contribution   :     10.41322      65.82794      10.62274
                        -----------------------------------------
Total Dipole Moment    :      1.89529       0.49100       0.41010
                        -----------------------------------------
Magnitude (a.u.)       :      2.00035
Magnitude (Debye)      :      5.08448

Rotational constants in cm-1:     0.006863     0.006606     0.004423
Rotational constants in MHz :   205.749019   198.045757   132.612764

                             ****ORCA TERMINATED NORMALLY****
TOTAL RUN TIME: 0 days 0 hours 14 minutes 27 seconds 168 msec
