                         Program Version 5.0.3 -  RELEASE  -
|  1> ! EnGrad PBEh-3c
|  2> %output
|  3> xyzfile=True
|  4> end
|  5> %scf
|  6> maxiter 250
|  7> end
|  8> %output
|  9> Print[P_Hirshfeld] = 1
| 10> end
| 11> % maxcore
| 12> 4000
| 13> *xyz -1 1
| 14> C   -2.07786853  -0.10318355   0.71281276
| 15> C   -1.82148426   1.08326466   1.36542694
| 16> C   -3.44878355  -0.44568803   0.67954817
| 17> C   -4.47499155   0.37538912   1.11823078
| 18> C   -4.17927750   1.60233948   1.66216903
| 19> C   -2.85207043   1.93813258   1.77591705
| 20> H   -1.51452069  -1.87724839  -2.36501545
| 21> H   -3.74412939  -1.40258409   0.26048535
| 22> H   -2.60726515   2.87482630   2.29487361
| 23> H   -5.49768006   0.08549610   0.99903832
| 24> H   -4.94827993   2.26014648   2.01291665
| 25> C   -0.44522793   1.50616581   1.74714591
| 26> C    0.69387250   0.53198945   1.95291288
| 27> H   -0.52271366   2.08426006   2.65639507
| 28> H   -0.08780190   2.29532221   1.05593862
| 29> C    1.72686058   0.63715621   0.88039611
| 30> H    0.28634325  -0.46024744   1.98143897
| 31> H    1.17524376   0.67870167   2.91874686
| 32> C    1.52247990  -0.01946535  -0.33580894
| 33> C    2.53167089   0.17444376  -1.30507009
| 34> C    3.58782476   1.07739122  -1.11670803
| 35> C    2.84526149   1.43572541   1.10249987
| 36> C    3.74124965   1.72796282   0.09303443
| 37> H    2.53601662  -0.35243108  -2.25321724
| 38> H    4.31937791   1.26280194  -1.89777445
| 39> H    2.99896698   1.86782191   2.08298058
| 40> H    4.54063815   2.43934056   0.25654493
| 41> Pd  -0.11830419  -1.33979510  -0.36406733
| 42> Br  -1.79957214  -3.41465880  -0.77576754
| 43> P    1.41647532  -2.93801740  -0.06906497
| 44> H    1.06160139  -3.56222617   1.14742386
| 45> C    0.12728726  -1.36034575  -3.76016191
| 46> O    1.17788228  -1.88142544  -4.03493514
| 47> O   -0.84261006  -1.98812144  -3.14857772
| 48> O   -0.23080663  -0.12713351  -4.19514024
| 49> H    2.77111243  -2.76303733   0.27706159
| 50> H    1.57734712  -4.11711312  -0.80164912
| 51> H    0.56584186   0.21100381  -4.62355455
| 52> *
| 53>
| 54>                          ****END OF INPUT****

CARTESIAN COORDINATES (ANGSTROEM)
---------------------------------
  C     -2.077869   -0.103184    0.712813
  C     -1.821484    1.083265    1.365427
  C     -3.448784   -0.445688    0.679548
  C     -4.474992    0.375389    1.118231
  C     -4.179278    1.602339    1.662169
  C     -2.852070    1.938133    1.775917
  H     -1.514521   -1.877248   -2.365015
  H     -3.744129   -1.402584    0.260485
  H     -2.607265    2.874826    2.294874
  H     -5.497680    0.085496    0.999038
  H     -4.948280    2.260146    2.012917
  C     -0.445228    1.506166    1.747146
  C      0.693872    0.531989    1.952913
  H     -0.522714    2.084260    2.656395
  H     -0.087802    2.295322    1.055939
  C      1.726861    0.637156    0.880396
  H      0.286343   -0.460247    1.981439
  H      1.175244    0.678702    2.918747
  C      1.522480   -0.019465   -0.335809
  C      2.531671    0.174444   -1.305070
  C      3.587825    1.077391   -1.116708
  C      2.845261    1.435725    1.102500
  C      3.741250    1.727963    0.093034
  H      2.536017   -0.352431   -2.253217
  H      4.319378    1.262802   -1.897774
  H      2.998967    1.867822    2.082981
  H      4.540638    2.439341    0.256545
  Pd    -0.118304   -1.339795   -0.364067
  Br    -1.799572   -3.414659   -0.775768
  P      1.416475   -2.938017   -0.069065
  H      1.061601   -3.562226    1.147424
  C      0.127287   -1.360346   -3.760162
  O      1.177882   -1.881425   -4.034935
  O     -0.842610   -1.988121   -3.148578
  O     -0.230807   -0.127134   -4.195140
  H      2.771112   -2.763037    0.277062
  H      1.577347   -4.117113   -0.801649
  H      0.565842    0.211004   -4.623555

 Total Charge           Charge          ....   -1
 Multiplicity           Mult            ....    1
 Number of Electrons    NEL             ....  200
 Basis Dimension        Dim             ....  385

ORBITAL ENERGIES
----------------

  NO   OCC          E(Eh)            E(eV)
   0   2.0000    -484.335785    -13179.4467
   1   2.0000     -77.669728     -2113.5008
   2   2.0000     -62.997203     -1714.2410
   3   2.0000     -56.700791     -1542.9070
   4   2.0000     -56.699945     -1542.8839
   5   2.0000     -56.699791     -1542.8798
   6   2.0000     -19.436204      -528.8860
   7   2.0000     -19.400597      -527.9171
   8   2.0000     -19.367468      -527.0156
   9   2.0000     -10.517129      -286.1856
  10   2.0000     -10.343534      -281.4619
  11   2.0000     -10.340307      -281.3741
  12   2.0000     -10.339165      -281.3430
  13   2.0000     -10.336712      -281.2762
  14   2.0000     -10.335833      -281.2523
  15   2.0000     -10.335188      -281.2348
  16   2.0000     -10.315432      -280.6972
  17   2.0000     -10.311504      -280.5903
  18   2.0000     -10.311000      -280.5766
  19   2.0000     -10.310523      -280.5636
  20   2.0000     -10.309900      -280.5466
  21   2.0000     -10.306178      -280.4454
  22   2.0000     -10.299749      -280.2704
  23   2.0000     -10.295176      -280.1460
  24   2.0000      -8.824446      -240.1254
  25   2.0000      -6.744895      -183.5379
  26   2.0000      -6.593619      -179.4215
  27   2.0000      -6.590051      -179.3244
  28   2.0000      -6.588324      -179.2774
  29   2.0000      -4.835879      -131.5910
  30   2.0000      -4.835675      -131.5854
  31   2.0000      -4.834058      -131.5414
  32   2.0000      -3.521058       -95.8128
  33   2.0000      -2.607834       -70.9628
  34   2.0000      -2.607239       -70.9466
  35   2.0000      -2.605726       -70.9054
  36   2.0000      -2.602635       -70.8213
  37   2.0000      -2.602490       -70.8174
  38   2.0000      -2.164831       -58.9080
  39   2.0000      -2.162746       -58.8513
  40   2.0000      -2.137854       -58.1740
  41   2.0000      -1.137336       -30.9485
  42   2.0000      -1.033098       -28.1120
  43   2.0000      -1.005797       -27.3691
  44   2.0000      -0.846795       -23.0425
  45   2.0000      -0.820819       -22.3356
  46   2.0000      -0.774510       -21.0755
  47   2.0000      -0.725655       -19.7461
  48   2.0000      -0.719284       -19.5727
  49   2.0000      -0.687281       -18.7019
  50   2.0000      -0.671548       -18.2737
  51   2.0000      -0.657736       -17.8979
  52   2.0000      -0.641956       -17.4685
  53   2.0000      -0.617345       -16.7988
  54   2.0000      -0.599174       -16.3043
  55   2.0000      -0.566731       -15.4215
  56   2.0000      -0.540140       -14.6980
  57   2.0000      -0.536758       -14.6059
  58   2.0000      -0.534072       -14.5328
  59   2.0000      -0.505114       -13.7448
  60   2.0000      -0.461943       -12.5701
  61   2.0000      -0.449729       -12.2377
  62   2.0000      -0.441818       -12.0225
  63   2.0000      -0.431891       -11.7523
  64   2.0000      -0.419111       -11.4046
  65   2.0000      -0.403714       -10.9856
  66   2.0000      -0.384823       -10.4716
  67   2.0000      -0.380741       -10.3605
  68   2.0000      -0.375516       -10.2183
  69   2.0000      -0.365985        -9.9590
  70   2.0000      -0.364635        -9.9222
  71   2.0000      -0.362215        -9.8564
  72   2.0000      -0.350982        -9.5507
  73   2.0000      -0.338900        -9.2219
  74   2.0000      -0.331883        -9.0310
  75   2.0000      -0.323172        -8.7940
  76   2.0000      -0.316671        -8.6171
  77   2.0000      -0.310483        -8.4487
  78   2.0000      -0.302604        -8.2343
  79   2.0000      -0.293534        -7.9875
  80   2.0000      -0.288765        -7.8577
  81   2.0000      -0.286305        -7.7908
  82   2.0000      -0.277481        -7.5506
  83   2.0000      -0.265249        -7.2178
  84   2.0000      -0.257808        -7.0153
  85   2.0000      -0.253608        -6.9010
  86   2.0000      -0.246755        -6.7146
  87   2.0000      -0.242591        -6.6012
  88   2.0000      -0.234058        -6.3690
  89   2.0000      -0.218780        -5.9533
  90   2.0000      -0.214427        -5.8349
  91   2.0000      -0.184347        -5.0163
  92   2.0000      -0.178026        -4.8443
  93   2.0000      -0.173696        -4.7265
  94   2.0000      -0.168347        -4.5810
  95   2.0000      -0.161018        -4.3815
  96   2.0000      -0.153312        -4.1718
  97   2.0000      -0.147171        -4.0047
  98   2.0000      -0.143573        -3.9068
  99   2.0000      -0.108899        -2.9633
 100   0.0000       0.068014         1.8508
 101   0.0000       0.120427         3.2770
 102   0.0000       0.132299         3.6001
 103   0.0000       0.150091         4.0842
 104   0.0000       0.156462         4.2575

MULLIKEN ATOMIC CHARGES
-----------------------
   0 C :   -0.116709
   1 C :    0.076711
   2 C :   -0.336676
   3 C :   -0.212673
   4 C :   -0.231337
   5 C :   -0.262114
   6 H :    0.494274
   7 H :    0.215557
   8 H :    0.156682
   9 H :    0.171773
  10 H :    0.171100
  11 C :   -0.471052
  12 C :   -0.525480
  13 H :    0.201373
  14 H :    0.237705
  15 C :    0.111794
  16 H :    0.285934
  17 H :    0.201987
  18 C :   -0.103738
  19 C :   -0.326360
  20 C :   -0.222107
  21 C :   -0.274802
  22 C :   -0.226578
  23 H :    0.226191
  24 H :    0.184215
  25 H :    0.179033
  26 H :    0.183372
  27 Pd:    0.027457
  28 Br:   -0.508640
  29 P :   -0.136969
  30 H :    0.120959
  31 C :    0.729690
  32 O :   -0.459188
  33 O :   -0.617982
  34 O :   -0.585232
  35 H :    0.092722
  36 H :    0.118796
  37 H :    0.430309
Sum of atomic charges:   -1.0000000

LOEWDIN ATOMIC CHARGES
----------------------
   0 C :   -0.120478
   1 C :   -0.063742
   2 C :   -0.139365
   3 C :   -0.172795
   4 C :   -0.170902
   5 C :   -0.157145
   6 H :    0.379757
   7 H :    0.131921
   8 H :    0.110191
   9 H :    0.114408
  10 H :    0.113463
  11 C :   -0.215250
  12 C :   -0.215258
  13 H :    0.120334
  14 H :    0.138382
  15 C :   -0.036582
  16 H :    0.167849
  17 H :    0.116953
  18 C :   -0.026319
  19 C :   -0.140676
  20 C :   -0.159309
  21 C :   -0.149108
  22 C :   -0.161738
  23 H :    0.141955
  24 H :    0.120495
  25 H :    0.120721
  26 H :    0.119616
  27 Pd:   -0.846777
  28 Br:   -0.289804
  29 P :    0.406102
  30 H :    0.058174
  31 C :    0.155021
  32 O :   -0.268313
  33 O :   -0.291544
  34 O :   -0.304511
  35 H :    0.034680
  36 H :    0.050949
  37 H :    0.328646

  Mayer bond orders larger than 0.100000
B(  0-C ,  1-C ) :   1.4174 B(  0-C ,  2-C ) :   1.4164 B(  0-C , 27-Pd) :   0.5928
B(  1-C ,  5-C ) :   1.3570 B(  1-C , 11-C ) :   0.9594 B(  2-C ,  3-C ) :   1.4339
B(  2-C ,  7-H ) :   0.9061 B(  3-C ,  4-C ) :   1.4113 B(  3-C ,  9-H ) :   0.9295
B(  4-C ,  5-C ) :   1.4682 B(  4-C , 10-H ) :   0.9292 B(  5-C ,  8-H ) :   0.9299
B(  6-H , 28-Br) :   0.1515 B(  6-H , 33-O ) :   0.5582 B( 11-C , 12-C ) :   0.9319
B( 11-C , 13-H ) :   0.9314 B( 11-C , 14-H ) :   0.9048 B( 12-C , 15-C ) :   0.9693
B( 12-C , 16-H ) :   0.8772 B( 12-C , 17-H ) :   0.9324 B( 15-C , 18-C ) :   1.3461
B( 15-C , 21-C ) :   1.4080 B( 18-C , 19-C ) :   1.3917 B( 18-C , 27-Pd) :   0.7497
B( 18-C , 28-Br) :   0.1038 B( 19-C , 20-C ) :   1.4142 B( 19-C , 23-H ) :   0.9004
B( 20-C , 22-C ) :   1.4354 B( 20-C , 24-H ) :   0.9276 B( 21-C , 22-C ) :   1.4286
B( 21-C , 25-H ) :   0.9269 B( 22-C , 26-H ) :   0.9273 B( 27-Pd, 28-Br) :   0.4584
B( 27-Pd, 29-P ) :   0.6461 B( 29-P , 30-H ) :   0.9327 B( 29-P , 35-H ) :   0.9174
B( 29-P , 36-H ) :   0.9231 B( 31-C , 32-O ) :   1.9223 B( 31-C , 33-O ) :   1.1764
B( 31-C , 34-O ) :   1.1061 B( 34-O , 37-H ) :   0.7717

Dispersion correction           -0.031520365
FINAL SINGLE POINT ENERGY     -3847.639904952239
Dispersion correction            ... done

DIPOLE MOMENT
-------------
                                X             Y             Z
Electronic contribution:     -5.96415     -65.81090     -10.35695
Nuclear contribution   :      7.92502      66.16153      10.71637
                        -----------------------------------------
Total Dipole Moment    :      1.96087       0.35063       0.35942
                        -----------------------------------------
Magnitude (a.u.)       :      2.02414
Magnitude (Debye)      :      5.14494

Rotational constants in cm-1:     0.006905     0.006613     0.004469
Rotational constants in MHz :   207.001706   198.248405   133.974234

                             ****ORCA TERMINATED NORMALLY****
TOTAL RUN TIME: 0 days 0 hours 13 minutes 16 seconds 691 msec
