                         Program Version 5.0.3 -  RELEASE  -
|  1> ! EnGrad PBEh-3c
|  2> %output
|  3> xyzfile=True
|  4> end
|  5> %scf
|  6> maxiter 250
|  7> end
|  8> %output
|  9> Print[P_Hirshfeld] = 1
| 10> end
| 11> % maxcore
| 12> 4000
| 13> *xyz -1 1
| 14> C   -2.07355318  -0.12286684   0.70846284
| 15> C   -1.82619693   1.07651972   1.36088238
| 16> C   -3.45013872  -0.46072814   0.69048030
| 17> C   -4.48086852   0.35834495   1.13960704
| 18> C   -4.18481592   1.59678215   1.67002831
| 19> C   -2.85137801   1.94129133   1.78882958
| 20> H   -1.48952673  -1.86036448  -2.34257138
| 21> H   -3.75028652  -1.41052053   0.27032863
| 22> H   -2.60797466   2.87841162   2.30934852
| 23> H   -5.50918537   0.06592454   1.03649335
| 24> H   -4.95444894   2.26005543   2.02512482
| 25> C   -0.44134356   1.52023873   1.71906970
| 26> C    0.69017872   0.52782270   1.94457984
| 27> H   -0.52291301   2.12459672   2.63325508
| 28> H   -0.08141754   2.28597552   0.99653174
| 29> C    1.72680797   0.63037486   0.87657167
| 30> H    0.27356319  -0.46042502   1.97568924
| 31> H    1.15930764   0.69184905   2.91393718
| 32> C    1.52428864  -0.02798402  -0.33876740
| 33> C    2.53431629   0.16573032  -1.30653352
| 34> C    3.58903033   1.06955888  -1.11496969
| 35> C    2.83736166   1.44063185   1.09756561
| 36> C    3.74659256   1.71445783   0.09357296
| 37> H    2.53744504  -0.36066655  -2.25095852
| 38> H    4.32261535   1.24946605  -1.89689342
| 39> H    2.98997524   1.87579201   2.07877961
| 40> H    4.54800756   2.42313614   0.25836982
| 41> Pd  -0.10102037  -1.34077475  -0.36765049
| 42> Br  -1.81075635  -3.39074835  -0.77114253
| 43> P    1.40918183  -2.93658654  -0.06388724
| 44> H    1.04436873  -3.56266593   1.15735121
| 45> C    0.12424971  -1.35520322  -3.76625722
| 46> O    1.19908779  -1.86465821  -4.04080479
| 47> O   -0.85394240  -1.98468213  -3.13897304
| 48> O   -0.20927257  -0.10872080  -4.20788132
| 49> H    2.76500459  -2.75516615   0.29758925
| 50> H    1.57750025  -4.11879625  -0.79406129
| 51> H    0.58925578   0.22201106  -4.65209415
| 52> *
| 53>
| 54>                          ****END OF INPUT****

CARTESIAN COORDINATES (ANGSTROEM)
---------------------------------
  C     -2.073553   -0.122867    0.708463
  C     -1.826197    1.076520    1.360882
  C     -3.450139   -0.460728    0.690480
  C     -4.480869    0.358345    1.139607
  C     -4.184816    1.596782    1.670028
  C     -2.851378    1.941291    1.788830
  H     -1.489527   -1.860364   -2.342571
  H     -3.750287   -1.410521    0.270329
  H     -2.607975    2.878412    2.309349
  H     -5.509185    0.065925    1.036493
  H     -4.954449    2.260055    2.025125
  C     -0.441344    1.520239    1.719070
  C      0.690179    0.527823    1.944580
  H     -0.522913    2.124597    2.633255
  H     -0.081418    2.285976    0.996532
  C      1.726808    0.630375    0.876572
  H      0.273563   -0.460425    1.975689
  H      1.159308    0.691849    2.913937
  C      1.524289   -0.027984   -0.338767
  C      2.534316    0.165730   -1.306534
  C      3.589030    1.069559   -1.114970
  C      2.837362    1.440632    1.097566
  C      3.746593    1.714458    0.093573
  H      2.537445   -0.360667   -2.250959
  H      4.322615    1.249466   -1.896893
  H      2.989975    1.875792    2.078780
  H      4.548008    2.423136    0.258370
  Pd    -0.101020   -1.340775   -0.367650
  Br    -1.810756   -3.390748   -0.771143
  P      1.409182   -2.936587   -0.063887
  H      1.044369   -3.562666    1.157351
  C      0.124250   -1.355203   -3.766257
  O      1.199088   -1.864658   -4.040805
  O     -0.853942   -1.984682   -3.138973
  O     -0.209273   -0.108721   -4.207881
  H      2.765005   -2.755166    0.297589
  H      1.577500   -4.118796   -0.794061
  H      0.589256    0.222011   -4.652094

 Total Charge           Charge          ....   -1
 Multiplicity           Mult            ....    1
 Number of Electrons    NEL             ....  200
 Basis Dimension        Dim             ....  385

ORBITAL ENERGIES
----------------

  NO   OCC          E(Eh)            E(eV)
   0   2.0000    -484.336115    -13179.4557
   1   2.0000     -77.672001     -2113.5626
   2   2.0000     -62.997549     -1714.2505
   3   2.0000     -56.701141     -1542.9165
   4   2.0000     -56.700291     -1542.8934
   5   2.0000     -56.700132     -1542.8890
   6   2.0000     -19.438170      -528.9395
   7   2.0000     -19.404967      -528.0360
   8   2.0000     -19.370281      -527.0921
   9   2.0000     -10.523265      -286.3526
  10   2.0000     -10.343834      -281.4700
  11   2.0000     -10.340232      -281.3720
  12   2.0000     -10.339157      -281.3428
  13   2.0000     -10.336477      -281.2698
  14   2.0000     -10.336180      -281.2618
  15   2.0000     -10.335554      -281.2447
  16   2.0000     -10.315506      -280.6992
  17   2.0000     -10.314073      -280.6602
  18   2.0000     -10.312373      -280.6139
  19   2.0000     -10.311802      -280.5984
  20   2.0000     -10.311153      -280.5807
  21   2.0000     -10.307499      -280.4813
  22   2.0000     -10.300001      -280.2773
  23   2.0000     -10.295909      -280.1659
  24   2.0000      -8.824805      -240.1352
  25   2.0000      -6.746834      -183.5907
  26   2.0000      -6.594021      -179.4324
  27   2.0000      -6.590388      -179.3336
  28   2.0000      -6.588667      -179.2867
  29   2.0000      -4.837831      -131.6441
  30   2.0000      -4.837622      -131.6384
  31   2.0000      -4.836050      -131.5956
  32   2.0000      -3.523912       -95.8905
  33   2.0000      -2.608233       -70.9736
  34   2.0000      -2.607610       -70.9567
  35   2.0000      -2.606115       -70.9160
  36   2.0000      -2.602961       -70.8302
  37   2.0000      -2.602812       -70.8261
  38   2.0000      -2.167684       -58.9857
  39   2.0000      -2.165883       -58.9367
  40   2.0000      -2.140628       -58.2494
  41   2.0000      -1.131454       -30.7884
  42   2.0000      -1.031181       -28.0599
  43   2.0000      -1.001722       -27.2582
  44   2.0000      -0.847173       -23.0527
  45   2.0000      -0.816604       -22.2209
  46   2.0000      -0.772912       -21.0320
  47   2.0000      -0.723386       -19.6843
  48   2.0000      -0.719880       -19.5889
  49   2.0000      -0.685450       -18.6520
  50   2.0000      -0.669179       -18.2093
  51   2.0000      -0.658637       -17.9224
  52   2.0000      -0.642307       -17.4781
  53   2.0000      -0.618769       -16.8376
  54   2.0000      -0.596779       -16.2392
  55   2.0000      -0.567401       -15.4398
  56   2.0000      -0.539532       -14.6814
  57   2.0000      -0.536906       -14.6100
  58   2.0000      -0.532675       -14.4948
  59   2.0000      -0.503032       -13.6882
  60   2.0000      -0.462205       -12.5772
  61   2.0000      -0.448750       -12.2111
  62   2.0000      -0.439135       -11.9495
  63   2.0000      -0.428620       -11.6633
  64   2.0000      -0.418922       -11.3995
  65   2.0000      -0.403365       -10.9761
  66   2.0000      -0.382706       -10.4140
  67   2.0000      -0.379526       -10.3274
  68   2.0000      -0.374951       -10.2029
  69   2.0000      -0.366795        -9.9810
  70   2.0000      -0.363911        -9.9025
  71   2.0000      -0.362432        -9.8623
  72   2.0000      -0.351041        -9.5523
  73   2.0000      -0.338442        -9.2095
  74   2.0000      -0.331440        -9.0190
  75   2.0000      -0.324010        -8.8168
  76   2.0000      -0.315612        -8.5882
  77   2.0000      -0.311267        -8.4700
  78   2.0000      -0.305916        -8.3244
  79   2.0000      -0.291806        -7.9405
  80   2.0000      -0.289817        -7.8863
  81   2.0000      -0.286575        -7.7981
  82   2.0000      -0.275719        -7.5027
  83   2.0000      -0.265216        -7.2169
  84   2.0000      -0.257729        -7.0132
  85   2.0000      -0.255025        -6.9396
  86   2.0000      -0.248915        -6.7733
  87   2.0000      -0.240667        -6.5489
  88   2.0000      -0.234354        -6.3771
  89   2.0000      -0.220907        -6.0112
  90   2.0000      -0.217136        -5.9086
  91   2.0000      -0.185369        -5.0441
  92   2.0000      -0.179687        -4.8895
  93   2.0000      -0.173935        -4.7330
  94   2.0000      -0.169214        -4.6045
  95   2.0000      -0.161553        -4.3961
  96   2.0000      -0.153901        -4.1879
  97   2.0000      -0.145809        -3.9677
  98   2.0000      -0.142380        -3.8744
  99   2.0000      -0.110008        -2.9935
 100   0.0000       0.067914         1.8480
 101   0.0000       0.119855         3.2614
 102   0.0000       0.132122         3.5952
 103   0.0000       0.149146         4.0585
 104   0.0000       0.156043         4.2461

MULLIKEN ATOMIC CHARGES
-----------------------
   0 C :   -0.114227
   1 C :    0.069045
   2 C :   -0.338232
   3 C :   -0.210335
   4 C :   -0.235198
   5 C :   -0.259571
   6 H :    0.496136
   7 H :    0.214735
   8 H :    0.159445
   9 H :    0.171502
  10 H :    0.169877
  11 C :   -0.470058
  12 C :   -0.523120
  13 H :    0.193607
  14 H :    0.237365
  15 C :    0.112981
  16 H :    0.286469
  17 H :    0.201672
  18 C :   -0.103885
  19 C :   -0.324505
  20 C :   -0.222130
  21 C :   -0.273961
  22 C :   -0.226115
  23 H :    0.228538
  24 H :    0.183685
  25 H :    0.179192
  26 H :    0.183417
  27 Pd:    0.024080
  28 Br:   -0.504123
  29 P :   -0.134066
  30 H :    0.120659
  31 C :    0.744370
  32 O :   -0.469513
  33 O :   -0.622671
  34 O :   -0.588111
  35 H :    0.092529
  36 H :    0.118166
  37 H :    0.432351
Sum of atomic charges:   -1.0000000

LOEWDIN ATOMIC CHARGES
----------------------
   0 C :   -0.125580
   1 C :   -0.062295
   2 C :   -0.139471
   3 C :   -0.174174
   4 C :   -0.170177
   5 C :   -0.161233
   6 H :    0.376556
   7 H :    0.131046
   8 H :    0.111267
   9 H :    0.114565
  10 H :    0.112540
  11 C :   -0.212364
  12 C :   -0.215675
  13 H :    0.117161
  14 H :    0.138051
  15 C :   -0.035872
  16 H :    0.168132
  17 H :    0.116969
  18 C :   -0.025878
  19 C :   -0.139835
  20 C :   -0.158906
  21 C :   -0.148711
  22 C :   -0.161615
  23 H :    0.142848
  24 H :    0.120418
  25 H :    0.121031
  26 H :    0.119749
  27 Pd:   -0.850429
  28 Br:   -0.285671
  29 P :    0.410921
  30 H :    0.058525
  31 C :    0.181407
  32 O :   -0.282804
  33 O :   -0.297772
  34 O :   -0.309603
  35 H :    0.035062
  36 H :    0.051107
  37 H :    0.330707

  Mayer bond orders larger than 0.100000
B(  0-C ,  1-C ) :   1.4089 B(  0-C ,  2-C ) :   1.4170 B(  0-C , 27-Pd) :   0.5858
B(  1-C ,  5-C ) :   1.3586 B(  1-C , 11-C ) :   0.9547 B(  2-C ,  3-C ) :   1.4277
B(  2-C ,  7-H ) :   0.9060 B(  3-C ,  4-C ) :   1.4136 B(  3-C ,  9-H ) :   0.9298
B(  4-C ,  5-C ) :   1.4642 B(  4-C , 10-H ) :   0.9292 B(  5-C ,  8-H ) :   0.9291
B(  6-H , 28-Br) :   0.1519 B(  6-H , 33-O ) :   0.5572 B( 11-C , 12-C ) :   0.9280
B( 11-C , 13-H ) :   0.9347 B( 11-C , 14-H ) :   0.9046 B( 12-C , 15-C ) :   0.9698
B( 12-C , 16-H ) :   0.8768 B( 12-C , 17-H ) :   0.9323 B( 15-C , 18-C ) :   1.3427
B( 15-C , 21-C ) :   1.4082 B( 18-C , 19-C ) :   1.3931 B( 18-C , 27-Pd) :   0.7542
B( 18-C , 28-Br) :   0.1072 B( 19-C , 20-C ) :   1.4127 B( 19-C , 23-H ) :   0.8989
B( 20-C , 22-C ) :   1.4369 B( 20-C , 24-H ) :   0.9278 B( 21-C , 22-C ) :   1.4265
B( 21-C , 25-H ) :   0.9269 B( 22-C , 26-H ) :   0.9272 B( 27-Pd, 28-Br) :   0.4587
B( 27-Pd, 29-P ) :   0.6670 B( 29-P , 30-H ) :   0.9318 B( 29-P , 35-H ) :   0.9168
B( 29-P , 36-H ) :   0.9218 B( 31-C , 32-O ) :   1.9063 B( 31-C , 33-O ) :   1.1708
B( 31-C , 34-O ) :   1.1027 B( 34-O , 37-H ) :   0.7693

Dispersion correction           -0.031552280
FINAL SINGLE POINT ENERGY     -3847.640942998479
Dispersion correction            ... done

DIPOLE MOMENT
-------------
                                X             Y             Z
Electronic contribution:     -5.00078     -65.90669     -10.58627
Nuclear contribution   :      7.00842      66.21695      10.90731
                        -----------------------------------------
Total Dipole Moment    :      2.00763       0.31025       0.32104
                        -----------------------------------------
Magnitude (a.u.)       :      2.05668
Magnitude (Debye)      :      5.22766

Rotational constants in cm-1:     0.006943     0.006594     0.004474
Rotational constants in MHz :   208.146880   197.693475   134.133361

                             ****ORCA TERMINATED NORMALLY****
TOTAL RUN TIME: 0 days 0 hours 12 minutes 16 seconds 101 msec
