                         Program Version 5.0.3 -  RELEASE  -
|  1> ! EnGrad PBEh-3c
|  2> %output
|  3> xyzfile=True
|  4> end
|  5> %scf
|  6> maxiter 250
|  7> end
|  8> %output
|  9> Print[P_Hirshfeld] = 1
| 10> end
| 11> % maxcore
| 12> 4000
| 13> *xyz -1 1
| 14> C   -2.06999964  -0.15545494   0.69342736
| 15> C   -1.83074841   1.06806792   1.36021318
| 16> C   -3.45040286  -0.48934214   0.69474812
| 17> C   -4.48556426   0.33764792   1.17034667
| 18> C   -4.18439425   1.59386719   1.68340104
| 19> C   -2.84874597   1.94075812   1.82191529
| 20> H   -1.45935314  -1.84450973  -2.25526224
| 21> H   -3.76819383  -1.42203645   0.27623920
| 22> H   -2.60535760   2.87014580   2.34440789
| 23> H   -5.53596734   0.03756738   1.09723554
| 24> H   -4.96368966   2.27071219   2.04065775
| 25> C   -0.42883604   1.56526428   1.66877906
| 26> C    0.68072649   0.51742691   1.93016117
| 27> H   -0.52378066   2.18867583   2.58093860
| 28> H   -0.07582433   2.24927558   0.88581712
| 29> C    1.72454481   0.61405409   0.87263338
| 30> H    0.24730859  -0.47844514   1.96629842
| 31> H    1.12665130   0.71197188   2.90603644
| 32> C    1.53539239  -0.04505599  -0.34414631
| 33> C    2.53418867   0.15434449  -1.31142033
| 34> C    3.58746945   1.05454504  -1.11643621
| 35> C    2.81892572   1.44951499   1.09022052
| 36> C    3.74893601   1.69282540   0.09760242
| 37> H    2.53584244  -0.37655062  -2.25086850
| 38> H    4.32154252   1.22844851  -1.89628097
| 39> H    2.96574546   1.89080290   2.07030121
| 40> H    4.55786120   2.39443617   0.26360608
| 41> Pd  -0.06889485  -1.33334911  -0.38288166
| 42> Br  -1.82847877  -3.33473360  -0.74135627
| 43> P    1.40576608  -2.94635687  -0.04059655
| 44> H    1.01630045  -3.56334591   1.17397570
| 45> C    0.15019562  -1.35343367  -3.78612029
| 46> O    1.21357492  -1.80259610  -4.05104532
| 47> O   -0.84052364  -1.97791344  -3.13623721
| 48> O   -0.16314647  -0.09285125  -4.23047243
| 49> H    2.75230180  -2.73588253   0.33388537
| 50> H    1.57698171  -4.12219254  -0.78155833
| 51> H    0.61842699   0.24245915  -4.70490124
| 52> *
| 53>
| 54>                          ****END OF INPUT****

CARTESIAN COORDINATES (ANGSTROEM)
---------------------------------
  C     -2.070000   -0.155455    0.693427
  C     -1.830748    1.068068    1.360213
  C     -3.450403   -0.489342    0.694748
  C     -4.485564    0.337648    1.170347
  C     -4.184394    1.593867    1.683401
  C     -2.848746    1.940758    1.821915
  H     -1.459353   -1.844510   -2.255262
  H     -3.768194   -1.422036    0.276239
  H     -2.605358    2.870146    2.344408
  H     -5.535967    0.037567    1.097236
  H     -4.963690    2.270712    2.040658
  C     -0.428836    1.565264    1.668779
  C      0.680726    0.517427    1.930161
  H     -0.523781    2.188676    2.580939
  H     -0.075824    2.249276    0.885817
  C      1.724545    0.614054    0.872633
  H      0.247309   -0.478445    1.966298
  H      1.126651    0.711972    2.906036
  C      1.535392   -0.045056   -0.344146
  C      2.534189    0.154344   -1.311420
  C      3.587469    1.054545   -1.116436
  C      2.818926    1.449515    1.090221
  C      3.748936    1.692825    0.097602
  H      2.535842   -0.376551   -2.250869
  H      4.321543    1.228449   -1.896281
  H      2.965745    1.890803    2.070301
  H      4.557861    2.394436    0.263606
  Pd    -0.068895   -1.333349   -0.382882
  Br    -1.828479   -3.334734   -0.741356
  P      1.405766   -2.946357   -0.040597
  H      1.016300   -3.563346    1.173976
  C      0.150196   -1.353434   -3.786120
  O      1.213575   -1.802596   -4.051045
  O     -0.840524   -1.977913   -3.136237
  O     -0.163146   -0.092851   -4.230472
  H      2.752302   -2.735883    0.333885
  H      1.576982   -4.122193   -0.781558
  H      0.618427    0.242459   -4.704901

 Total Charge           Charge          ....   -1
 Multiplicity           Mult            ....    1
 Number of Electrons    NEL             ....  200
 Basis Dimension        Dim             ....  385

ORBITAL ENERGIES
----------------

  NO   OCC          E(Eh)            E(eV)
   0   2.0000    -484.340513    -13179.5754
   1   2.0000     -77.674700     -2113.6360
   2   2.0000     -63.001951     -1714.3702
   3   2.0000     -56.705548     -1543.0364
   4   2.0000     -56.704721     -1543.0139
   5   2.0000     -56.704488     -1543.0076
   6   2.0000     -19.425614      -528.5978
   7   2.0000     -19.398645      -527.8640
   8   2.0000     -19.370412      -527.0957
   9   2.0000     -10.515313      -286.1362
  10   2.0000     -10.343179      -281.4522
  11   2.0000     -10.340216      -281.3716
  12   2.0000     -10.339549      -281.3534
  13   2.0000     -10.336672      -281.2751
  14   2.0000     -10.335986      -281.2565
  15   2.0000     -10.335656      -281.2475
  16   2.0000     -10.317553      -280.7549
  17   2.0000     -10.316086      -280.7150
  18   2.0000     -10.314699      -280.6772
  19   2.0000     -10.314625      -280.6752
  20   2.0000     -10.311807      -280.5985
  21   2.0000     -10.311681      -280.5951
  22   2.0000     -10.300876      -280.3011
  23   2.0000     -10.298260      -280.2299
  24   2.0000      -8.829240      -240.2558
  25   2.0000      -6.749735      -183.6696
  26   2.0000      -6.598447      -179.5529
  27   2.0000      -6.594963      -179.4581
  28   2.0000      -6.592957      -179.4035
  29   2.0000      -4.840737      -131.7232
  30   2.0000      -4.840518      -131.7172
  31   2.0000      -4.838963      -131.6749
  32   2.0000      -3.526715       -95.9668
  33   2.0000      -2.612723       -71.0958
  34   2.0000      -2.612145       -71.0801
  35   2.0000      -2.610440       -71.0337
  36   2.0000      -2.607397       -70.9509
  37   2.0000      -2.607187       -70.9452
  38   2.0000      -2.171190       -59.0811
  39   2.0000      -2.168402       -59.0052
  40   2.0000      -2.143403       -58.3250
  41   2.0000      -1.128149       -30.6985
  42   2.0000      -1.018202       -27.7067
  43   2.0000      -1.003067       -27.2948
  44   2.0000      -0.847791       -23.0696
  45   2.0000      -0.809311       -22.0225
  46   2.0000      -0.769731       -20.9455
  47   2.0000      -0.721651       -19.6371
  48   2.0000      -0.718376       -19.5480
  49   2.0000      -0.683626       -18.6024
  50   2.0000      -0.664127       -18.0718
  51   2.0000      -0.660282       -17.9672
  52   2.0000      -0.644704       -17.5433
  53   2.0000      -0.602591       -16.3973
  54   2.0000      -0.594099       -16.1663
  55   2.0000      -0.567958       -15.4549
  56   2.0000      -0.538390       -14.6503
  57   2.0000      -0.529459       -14.4073
  58   2.0000      -0.523909       -14.2563
  59   2.0000      -0.500344       -13.6151
  60   2.0000      -0.462437       -12.5835
  61   2.0000      -0.443565       -12.0700
  62   2.0000      -0.433999       -11.8097
  63   2.0000      -0.425524       -11.5791
  64   2.0000      -0.418716       -11.3938
  65   2.0000      -0.403097       -10.9688
  66   2.0000      -0.380725       -10.3601
  67   2.0000      -0.377471       -10.2715
  68   2.0000      -0.373945       -10.1756
  69   2.0000      -0.370563       -10.0835
  70   2.0000      -0.366886        -9.9835
  71   2.0000      -0.363009        -9.8780
  72   2.0000      -0.351263        -9.5584
  73   2.0000      -0.337400        -9.1811
  74   2.0000      -0.330556        -8.9949
  75   2.0000      -0.323647        -8.8069
  76   2.0000      -0.316517        -8.6129
  77   2.0000      -0.311298        -8.4709
  78   2.0000      -0.298432        -8.1208
  79   2.0000      -0.288111        -7.8399
  80   2.0000      -0.286988        -7.8093
  81   2.0000      -0.279291        -7.5999
  82   2.0000      -0.272810        -7.4235
  83   2.0000      -0.267437        -7.2773
  84   2.0000      -0.260063        -7.0767
  85   2.0000      -0.258719        -7.0401
  86   2.0000      -0.252307        -6.8656
  87   2.0000      -0.238035        -6.4773
  88   2.0000      -0.233996        -6.3674
  89   2.0000      -0.223203        -6.0737
  90   2.0000      -0.219497        -5.9728
  91   2.0000      -0.187684        -5.1071
  92   2.0000      -0.184058        -5.0085
  93   2.0000      -0.174464        -4.7474
  94   2.0000      -0.170082        -4.6282
  95   2.0000      -0.163439        -4.4474
  96   2.0000      -0.156789        -4.2664
  97   2.0000      -0.144404        -3.9294
  98   2.0000      -0.138981        -3.7819
  99   2.0000      -0.110223        -2.9993
 100   0.0000       0.068326         1.8593
 101   0.0000       0.119717         3.2577
 102   0.0000       0.130997         3.5646
 103   0.0000       0.147716         4.0196
 104   0.0000       0.156242         4.2516

MULLIKEN ATOMIC CHARGES
-----------------------
   0 C :   -0.111078
   1 C :    0.048643
   2 C :   -0.333609
   3 C :   -0.214355
   4 C :   -0.235517
   5 C :   -0.255465
   6 H :    0.487878
   7 H :    0.213513
   8 H :    0.164022
   9 H :    0.169016
  10 H :    0.166402
  11 C :   -0.467457
  12 C :   -0.520154
  13 H :    0.186991
  14 H :    0.244185
  15 C :    0.114511
  16 H :    0.283604
  17 H :    0.199678
  18 C :   -0.101025
  19 C :   -0.317774
  20 C :   -0.224398
  21 C :   -0.270402
  22 C :   -0.227497
  23 H :    0.231822
  24 H :    0.184041
  25 H :    0.179454
  26 H :    0.182800
  27 Pd:    0.020780
  28 Br:   -0.483405
  29 P :   -0.133262
  30 H :    0.122080
  31 C :    0.737352
  32 O :   -0.438890
  33 O :   -0.639281
  34 O :   -0.601780
  35 H :    0.094548
  36 H :    0.117227
  37 H :    0.426799
Sum of atomic charges:   -1.0000000

LOEWDIN ATOMIC CHARGES
----------------------
   0 C :   -0.131570
   1 C :   -0.057329
   2 C :   -0.142656
   3 C :   -0.173948
   4 C :   -0.169607
   5 C :   -0.169102
   6 H :    0.386128
   7 H :    0.129517
   8 H :    0.112813
   9 H :    0.113757
  10 H :    0.110836
  11 C :   -0.211182
  12 C :   -0.214569
  13 H :    0.115033
  14 H :    0.140616
  15 C :   -0.035185
  16 H :    0.168921
  17 H :    0.116341
  18 C :   -0.025129
  19 C :   -0.137589
  20 C :   -0.158227
  21 C :   -0.147958
  22 C :   -0.161216
  23 H :    0.144561
  24 H :    0.120604
  25 H :    0.121529
  26 H :    0.119704
  27 Pd:   -0.857477
  28 Br:   -0.264065
  29 P :    0.411588
  30 H :    0.060030
  31 C :    0.166599
  32 O :   -0.244001
  33 O :   -0.329105
  34 O :   -0.324845
  35 H :    0.037585
  36 H :    0.052075
  37 H :    0.326520

  Mayer bond orders larger than 0.100000
B(  0-C ,  1-C ) :   1.3898 B(  0-C ,  2-C ) :   1.4245 B(  0-C , 27-Pd) :   0.5756
B(  1-C ,  5-C ) :   1.3700 B(  1-C , 11-C ) :   0.9512 B(  2-C ,  3-C ) :   1.4130
B(  2-C ,  7-H ) :   0.9055 B(  3-C ,  4-C ) :   1.4210 B(  3-C ,  9-H ) :   0.9305
B(  4-C ,  5-C ) :   1.4521 B(  4-C , 10-H ) :   0.9297 B(  5-C ,  8-H ) :   0.9273
B(  6-H , 28-Br) :   0.1816 B(  6-H , 33-O ) :   0.5267 B( 11-C , 12-C ) :   0.9239
B( 11-C , 13-H ) :   0.9378 B( 11-C , 14-H ) :   0.9031 B( 12-C , 15-C ) :   0.9693
B( 12-C , 16-H ) :   0.8768 B( 12-C , 17-H ) :   0.9315 B( 15-C , 18-C ) :   1.3404
B( 15-C , 21-C ) :   1.4047 B( 18-C , 19-C ) :   1.3966 B( 18-C , 27-Pd) :   0.7638
B( 18-C , 28-Br) :   0.1124 B( 19-C , 20-C ) :   1.4130 B( 19-C , 23-H ) :   0.8975
B( 20-C , 22-C ) :   1.4350 B( 20-C , 24-H ) :   0.9278 B( 21-C , 22-C ) :   1.4270
B( 21-C , 25-H ) :   0.9267 B( 22-C , 26-H ) :   0.9276 B( 27-Pd, 28-Br) :   0.4494
B( 27-Pd, 29-P ) :   0.6773 B( 29-P , 30-H ) :   0.9316 B( 29-P , 35-H ) :   0.9180
B( 29-P , 36-H ) :   0.9221 B( 31-C , 32-O ) :   1.9495 B( 31-C , 33-O ) :   1.1687
B( 31-C , 34-O ) :   1.0802 B( 34-O , 37-H ) :   0.7726

Dispersion correction           -0.031632117
FINAL SINGLE POINT ENERGY     -3847.633274194263
Dispersion correction            ... done

DIPOLE MOMENT
-------------
                                X             Y             Z
Electronic contribution:     -3.20527     -65.71302     -11.33597
Nuclear contribution   :      5.36198      65.82937      11.72940
                        -----------------------------------------
Total Dipole Moment    :      2.15671       0.11635       0.39343
                        -----------------------------------------
Magnitude (a.u.)       :      2.19539
Magnitude (Debye)      :      5.58023

Rotational constants in cm-1:     0.007027     0.006558     0.004495
Rotational constants in MHz :   210.652577   196.617318   134.757042

                             ****ORCA TERMINATED NORMALLY****
TOTAL RUN TIME: 0 days 0 hours 13 minutes 3 seconds 385 msec
