                         Program Version 5.0.3 -  RELEASE  -
|  1> ! EnGrad PBEh-3c
|  2> %output
|  3> xyzfile=True
|  4> end
|  5> %scf
|  6> maxiter 250
|  7> end
|  8> %output
|  9> Print[P_Hirshfeld] = 1
| 10> end
| 11> % maxcore
| 12> 4000
| 13> *xyz -1 1
| 14> C   -2.06991375  -0.16165877   0.67006583
| 15> C   -1.83043913   1.05832705   1.36728165
| 16> C   -3.45754916  -0.50416379   0.68366198
| 17> C   -4.49340213   0.32696482   1.18531336
| 18> C   -4.19153222   1.59276559   1.70415763
| 19> C   -2.84553857   1.91582228   1.86998185
| 20> H   -1.47131623  -1.83533649  -2.11902622
| 21> H   -3.80272439  -1.44681930   0.28809505
| 22> H   -2.58914119   2.86045074   2.36695167
| 23> H   -5.56401205   0.02885871   1.13880993
| 24> H   -4.96964258   2.28762067   2.05528101
| 25> C   -0.42089697   1.60120460   1.63174181
| 26> C    0.66560882   0.50344832   1.91630160
| 27> H   -0.51342164   2.24792306   2.53349743
| 28> H   -0.08494692   2.21066886   0.76603714
| 29> C    1.73060613   0.59077767   0.87128388
| 30> H    0.22374046  -0.50800511   1.95623530
| 31> H    1.09565734   0.72118956   2.89660244
| 32> C    1.55746976  -0.06263845  -0.34748708
| 33> C    2.53983666   0.14747345  -1.32523511
| 34> C    3.58980943   1.04421070  -1.11931699
| 35> C    2.80228551   1.45549541   1.08582730
| 36> C    3.74821820   1.67825163   0.10187940
| 37> H    2.53764433  -0.39418801  -2.26131388
| 38> H    4.32109758   1.21845478  -1.89924510
| 39> H    2.93479807   1.90269532   2.06553215
| 40> H    4.56106072   2.37627031   0.27067408
| 41> Pd  -0.05745489  -1.30683109  -0.40542269
| 42> Br  -1.83266075  -3.27703291  -0.73670507
| 43> P    1.41240496  -2.96166313  -0.00831573
| 44> H    0.98896109  -3.56318423   1.19471008
| 45> C    0.14544481  -1.33303423  -3.79318922
| 46> O    1.28375819  -1.75616179  -4.08061861
| 47> O   -0.79876326  -1.96818668  -3.12187109
| 48> O   -0.12534578  -0.09724032  -4.25098703
| 49> H    2.75151427  -2.72047969   0.37101345
| 50> H    1.58156551  -4.13006664  -0.77120696
| 51> H    0.63164494   0.25734881  -4.75295740
| 52> *
| 53>
| 54>                          ****END OF INPUT****

CARTESIAN COORDINATES (ANGSTROEM)
---------------------------------
  C     -2.069914   -0.161659    0.670066
  C     -1.830439    1.058327    1.367282
  C     -3.457549   -0.504164    0.683662
  C     -4.493402    0.326965    1.185313
  C     -4.191532    1.592766    1.704158
  C     -2.845539    1.915822    1.869982
  H     -1.471316   -1.835336   -2.119026
  H     -3.802724   -1.446819    0.288095
  H     -2.589141    2.860451    2.366952
  H     -5.564012    0.028859    1.138810
  H     -4.969643    2.287621    2.055281
  C     -0.420897    1.601205    1.631742
  C      0.665609    0.503448    1.916302
  H     -0.513422    2.247923    2.533497
  H     -0.084947    2.210669    0.766037
  C      1.730606    0.590778    0.871284
  H      0.223740   -0.508005    1.956235
  H      1.095657    0.721190    2.896602
  C      1.557470   -0.062638   -0.347487
  C      2.539837    0.147473   -1.325235
  C      3.589809    1.044211   -1.119317
  C      2.802286    1.455495    1.085827
  C      3.748218    1.678252    0.101879
  H      2.537644   -0.394188   -2.261314
  H      4.321098    1.218455   -1.899245
  H      2.934798    1.902695    2.065532
  H      4.561061    2.376270    0.270674
  Pd    -0.057455   -1.306831   -0.405423
  Br    -1.832661   -3.277033   -0.736705
  P      1.412405   -2.961663   -0.008316
  H      0.988961   -3.563184    1.194710
  C      0.145445   -1.333034   -3.793189
  O      1.283758   -1.756162   -4.080619
  O     -0.798763   -1.968187   -3.121871
  O     -0.125346   -0.097240   -4.250987
  H      2.751514   -2.720480    0.371013
  H      1.581566   -4.130067   -0.771207
  H      0.631645    0.257349   -4.752957

 Total Charge           Charge          ....   -1
 Multiplicity           Mult            ....    1
 Number of Electrons    NEL             ....  200
 Basis Dimension        Dim             ....  385

ORBITAL ENERGIES
----------------

  NO   OCC          E(Eh)            E(eV)
   0   2.0000    -484.354537    -13179.9570
   1   2.0000     -77.677998     -2113.7258
   2   2.0000     -63.016003     -1714.7526
   3   2.0000     -56.719632     -1543.4197
   4   2.0000     -56.718800     -1543.3970
   5   2.0000     -56.718439     -1543.3872
   6   2.0000     -19.418637      -528.4080
   7   2.0000     -19.392697      -527.7021
   8   2.0000     -19.343900      -526.3743
   9   2.0000     -10.503288      -285.8090
  10   2.0000     -10.343679      -281.4658
  11   2.0000     -10.340700      -281.3848
  12   2.0000     -10.339785      -281.3599
  13   2.0000     -10.337418      -281.2954
  14   2.0000     -10.336746      -281.2771
  15   2.0000     -10.334587      -281.2184
  16   2.0000     -10.322357      -280.8856
  17   2.0000     -10.322194      -280.8812
  18   2.0000     -10.318736      -280.7871
  19   2.0000     -10.317853      -280.7630
  20   2.0000     -10.317804      -280.7617
  21   2.0000     -10.314599      -280.6745
  22   2.0000     -10.306901      -280.4650
  23   2.0000     -10.303101      -280.3616
  24   2.0000      -8.843393      -240.6410
  25   2.0000      -6.753128      -183.7620
  26   2.0000      -6.612661      -179.9396
  27   2.0000      -6.609403      -179.8510
  28   2.0000      -6.606717      -179.7779
  29   2.0000      -4.844142      -131.8158
  30   2.0000      -4.843922      -131.8098
  31   2.0000      -4.842308      -131.7659
  32   2.0000      -3.527426       -95.9861
  33   2.0000      -2.627100       -71.4870
  34   2.0000      -2.626578       -71.4728
  35   2.0000      -2.624330       -71.4116
  36   2.0000      -2.621469       -71.3338
  37   2.0000      -2.621128       -71.3245
  38   2.0000      -2.173473       -59.1432
  39   2.0000      -2.167700       -58.9861
  40   2.0000      -2.144346       -58.3506
  41   2.0000      -1.110021       -30.2052
  42   2.0000      -1.002039       -27.2669
  43   2.0000      -0.962971       -26.2038
  44   2.0000      -0.848038       -23.0763
  45   2.0000      -0.806138       -21.9361
  46   2.0000      -0.767251       -20.8780
  47   2.0000      -0.722141       -19.6505
  48   2.0000      -0.716537       -19.4980
  49   2.0000      -0.683253       -18.5923
  50   2.0000      -0.673312       -18.3218
  51   2.0000      -0.660410       -17.9707
  52   2.0000      -0.648676       -17.6514
  53   2.0000      -0.592422       -16.1206
  54   2.0000      -0.591626       -16.0990
  55   2.0000      -0.568159       -15.4604
  56   2.0000      -0.537966       -14.6388
  57   2.0000      -0.528636       -14.3849
  58   2.0000      -0.506192       -13.7742
  59   2.0000      -0.499293       -13.5865
  60   2.0000      -0.461803       -12.5663
  61   2.0000      -0.431307       -11.7364
  62   2.0000      -0.424607       -11.5542
  63   2.0000      -0.418280       -11.3820
  64   2.0000      -0.409767       -11.1503
  65   2.0000      -0.401477       -10.9247
  66   2.0000      -0.381502       -10.3812
  67   2.0000      -0.376910       -10.2562
  68   2.0000      -0.372212       -10.1284
  69   2.0000      -0.371898       -10.1199
  70   2.0000      -0.362817        -9.8727
  71   2.0000      -0.352626        -9.5954
  72   2.0000      -0.351118        -9.5544
  73   2.0000      -0.336999        -9.1702
  74   2.0000      -0.329332        -8.9616
  75   2.0000      -0.322940        -8.7877
  76   2.0000      -0.317242        -8.6326
  77   2.0000      -0.311094        -8.4653
  78   2.0000      -0.293129        -7.9764
  79   2.0000      -0.288309        -7.8453
  80   2.0000      -0.286386        -7.7930
  81   2.0000      -0.272080        -7.4037
  82   2.0000      -0.267296        -7.2735
  83   2.0000      -0.265510        -7.2249
  84   2.0000      -0.260977        -7.1015
  85   2.0000      -0.254398        -6.9225
  86   2.0000      -0.241788        -6.5794
  87   2.0000      -0.237061        -6.4508
  88   2.0000      -0.220807        -6.0085
  89   2.0000      -0.219135        -5.9630
  90   2.0000      -0.208211        -5.6657
  91   2.0000      -0.193376        -5.2620
  92   2.0000      -0.191067        -5.1992
  93   2.0000      -0.175253        -4.7689
  94   2.0000      -0.174746        -4.7551
  95   2.0000      -0.166779        -4.5383
  96   2.0000      -0.163341        -4.4447
  97   2.0000      -0.145212        -3.9514
  98   2.0000      -0.138130        -3.7587
  99   2.0000      -0.111472        -3.0333
 100   0.0000       0.066570         1.8115
 101   0.0000       0.118209         3.2166
 102   0.0000       0.129042         3.5114
 103   0.0000       0.143257         3.8982
 104   0.0000       0.153627         4.1804

MULLIKEN ATOMIC CHARGES
-----------------------
   0 C :   -0.114052
   1 C :    0.050675
   2 C :   -0.328472
   3 C :   -0.219574
   4 C :   -0.234073
   5 C :   -0.259968
   6 H :    0.454122
   7 H :    0.208992
   8 H :    0.165624
   9 H :    0.167207
  10 H :    0.167116
  11 C :   -0.468007
  12 C :   -0.515215
  13 H :    0.187255
  14 H :    0.245672
  15 C :    0.118024
  16 H :    0.278331
  17 H :    0.197652
  18 C :   -0.102780
  19 C :   -0.313617
  20 C :   -0.228758
  21 C :   -0.266520
  22 C :   -0.228494
  23 H :    0.248216
  24 H :    0.186395
  25 H :    0.179712
  26 H :    0.182155
  27 Pd:    0.022240
  28 Br:   -0.438867
  29 P :   -0.132238
  30 H :    0.121811
  31 C :    0.745045
  32 O :   -0.520783
  33 O :   -0.615206
  34 O :   -0.591357
  35 H :    0.099558
  36 H :    0.119877
  37 H :    0.432302
Sum of atomic charges:   -1.0000000

LOEWDIN ATOMIC CHARGES
----------------------
   0 C :   -0.132237
   1 C :   -0.057634
   2 C :   -0.145781
   3 C :   -0.172512
   4 C :   -0.171532
   5 C :   -0.170536
   6 H :    0.397560
   7 H :    0.128022
   8 H :    0.112456
   9 H :    0.112772
  10 H :    0.111287
  11 C :   -0.208703
  12 C :   -0.212772
  13 H :    0.115448
  14 H :    0.143940
  15 C :   -0.037208
  16 H :    0.169406
  17 H :    0.115764
  18 C :   -0.022288
  19 C :   -0.134659
  20 C :   -0.156502
  21 C :   -0.146611
  22 C :   -0.160752
  23 H :    0.152104
  24 H :    0.121565
  25 H :    0.121934
  26 H :    0.119737
  27 Pd:   -0.865288
  28 Br:   -0.214298
  29 P :    0.404672
  30 H :    0.060671
  31 C :    0.174746
  32 O :   -0.338759
  33 O :   -0.335232
  34 O :   -0.307979
  35 H :    0.042535
  36 H :    0.055650
  37 H :    0.331015

  Mayer bond orders larger than 0.100000
B(  0-C ,  1-C ) :   1.3818 B(  0-C ,  2-C ) :   1.4191 B(  0-C , 27-Pd) :   0.5749
B(  1-C ,  5-C ) :   1.3779 B(  1-C , 11-C ) :   0.9449 B(  2-C ,  3-C ) :   1.4088
B(  2-C ,  7-H ) :   0.9074 B(  3-C ,  4-C ) :   1.4215 B(  3-C ,  9-H ) :   0.9306
B(  4-C ,  5-C ) :   1.4452 B(  4-C , 10-H ) :   0.9295 B(  5-C ,  8-H ) :   0.9260
B(  6-H , 28-Br) :   0.2718 B(  6-H , 33-O ) :   0.4423 B( 11-C , 12-C ) :   0.9206
B( 11-C , 13-H ) :   0.9376 B( 11-C , 14-H ) :   0.9034 B( 12-C , 15-C ) :   0.9672
B( 12-C , 16-H ) :   0.8777 B( 12-C , 17-H ) :   0.9299 B( 15-C , 18-C ) :   1.3425
B( 15-C , 21-C ) :   1.3990 B( 18-C , 19-C ) :   1.4011 B( 18-C , 27-Pd) :   0.7735
B( 18-C , 28-Br) :   0.1119 B( 19-C , 20-C ) :   1.4132 B( 19-C , 23-H ) :   0.8855
B( 20-C , 22-C ) :   1.4294 B( 20-C , 24-H ) :   0.9275 B( 21-C , 22-C ) :   1.4298
B( 21-C , 25-H ) :   0.9262 B( 22-C , 26-H ) :   0.9283 B( 27-Pd, 28-Br) :   0.4187
B( 27-Pd, 29-P ) :   0.6393 B( 29-P , 30-H ) :   0.9326 B( 29-P , 35-H ) :   0.9219
B( 29-P , 36-H ) :   0.9246 B( 31-C , 32-O ) :   1.8327 B( 31-C , 33-O ) :   1.2533
B( 31-C , 34-O ) :   1.1013 B( 34-O , 37-H ) :   0.7649

Dispersion correction           -0.031696621
FINAL SINGLE POINT ENERGY     -3847.607310987090
Dispersion correction            ... done

DIPOLE MOMENT
-------------
                                X             Y             Z
Electronic contribution:     -2.96156     -64.39402     -12.16362
Nuclear contribution   :      4.91021      64.39222      12.96105
                        -----------------------------------------
Total Dipole Moment    :      1.94865      -0.00180       0.79743
                        -----------------------------------------
Magnitude (a.u.)       :      2.10551
Magnitude (Debye)      :      5.35177

Rotational constants in cm-1:     0.007111     0.006525     0.004509
Rotational constants in MHz :   213.183003   195.611646   135.180508

                             ****ORCA TERMINATED NORMALLY****
TOTAL RUN TIME: 0 days 0 hours 13 minutes 6 seconds 323 msec
