                         Program Version 5.0.3 -  RELEASE  -
|  1> ! EnGrad PBEh-3c
|  2> %output
|  3> xyzfile=True
|  4> end
|  5> %scf
|  6> maxiter 250
|  7> end
|  8> %output
|  9> Print[P_Hirshfeld] = 1
| 10> end
| 11> % maxcore
| 12> 4000
| 13> *xyz -1 1
| 14> C   -2.06998211  -0.15672065   0.68866114
| 15> C   -1.83068531   1.06608059   1.36165529
| 16> C   -3.45186085  -0.49236605   0.69248633
| 17> C   -4.48716334   0.33546835   1.17340017
| 18> C   -4.18585054   1.59364244   1.68763580
| 19> C   -2.84809160   1.93567071   1.83172182
| 20> H   -1.46179385  -1.84263821  -2.22746738
| 21> H   -3.77523875  -1.42709265   0.27865803
| 22> H   -2.60204913   2.86816781   2.34900727
| 23> H   -5.54168902   0.03579064   1.10571755
| 24> H   -4.96490417   2.27416185   2.04364119
| 25> C   -0.42721631   1.57259683   1.66122272
| 26> C    0.67764218   0.51457500   1.92733354
| 27> H   -0.52166721   2.20076345   2.57125966
| 28> H   -0.07768552   2.24139904   0.86137962
| 29> C    1.72578144   0.60930524   0.87235805
| 30> H    0.24250022  -0.48447596   1.96424534
| 31> H    1.12032791   0.71385247   2.90411171
| 32> C    1.53989661  -0.04864316  -0.34482790
| 33> C    2.53534097   0.15294266  -1.31423882
| 34> C    3.58794685   1.05243663  -1.11702394
| 35> C    2.81553078   1.45073512   1.08932421
| 36> C    3.74878957   1.68985206   0.09847501
| 37> H    2.53621006  -0.38014900  -2.25299957
| 38> H    4.32145175   1.22640959  -1.89688571
| 39> H    2.95943158   1.89322919   2.06932822
| 40> H    4.55851396   2.39072998   0.26504810
| 41> Pd  -0.06656087  -1.32793891  -0.38748048
| 42> Br  -1.82933197  -3.32296150  -0.74040733
| 43> P    1.40712054  -2.94947965  -0.03401062
| 44> H    1.01072267  -3.56331292   1.17820592
| 45> C    0.14922636  -1.34927178  -3.78756249
| 46> O    1.22789370  -1.79312258  -4.05707886
| 47> O   -0.83200369  -1.97592899  -3.13330624
| 48> O   -0.15543438  -0.09374670  -4.23465782
| 49> H    2.75214113  -2.73274004   0.34146024
| 50> H    1.57791690  -4.12379901  -0.77944645
| 51> H    0.62112372   0.24549694  -4.71470565
| 52> *
| 53>
| 54>                          ****END OF INPUT****

CARTESIAN COORDINATES (ANGSTROEM)
---------------------------------
  C     -2.069982   -0.156721    0.688661
  C     -1.830685    1.066081    1.361655
  C     -3.451861   -0.492366    0.692486
  C     -4.487163    0.335468    1.173400
  C     -4.185851    1.593642    1.687636
  C     -2.848092    1.935671    1.831722
  H     -1.461794   -1.842638   -2.227467
  H     -3.775239   -1.427093    0.278658
  H     -2.602049    2.868168    2.349007
  H     -5.541689    0.035791    1.105718
  H     -4.964904    2.274162    2.043641
  C     -0.427216    1.572597    1.661223
  C      0.677642    0.514575    1.927334
  H     -0.521667    2.200763    2.571260
  H     -0.077686    2.241399    0.861380
  C      1.725781    0.609305    0.872358
  H      0.242500   -0.484476    1.964245
  H      1.120328    0.713852    2.904112
  C      1.539897   -0.048643   -0.344828
  C      2.535341    0.152943   -1.314239
  C      3.587947    1.052437   -1.117024
  C      2.815531    1.450735    1.089324
  C      3.748790    1.689852    0.098475
  H      2.536210   -0.380149   -2.253000
  H      4.321452    1.226410   -1.896886
  H      2.959432    1.893229    2.069328
  H      4.558514    2.390730    0.265048
  Pd    -0.066561   -1.327939   -0.387480
  Br    -1.829332   -3.322961   -0.740407
  P      1.407121   -2.949480   -0.034011
  H      1.010723   -3.563313    1.178206
  C      0.149226   -1.349272   -3.787562
  O      1.227894   -1.793123   -4.057079
  O     -0.832004   -1.975929   -3.133306
  O     -0.155434   -0.093747   -4.234658
  H      2.752141   -2.732740    0.341460
  H      1.577917   -4.123799   -0.779446
  H      0.621124    0.245497   -4.714706

 Total Charge           Charge          ....   -1
 Multiplicity           Mult            ....    1
 Number of Electrons    NEL             ....  200
 Basis Dimension        Dim             ....  385

ORBITAL ENERGIES
----------------

  NO   OCC          E(Eh)            E(eV)
   0   2.0000    -484.343053    -13179.6445
   1   2.0000     -77.675331     -2113.6532
   2   2.0000     -63.004496     -1714.4395
   3   2.0000     -56.708094     -1543.1057
   4   2.0000     -56.707275     -1543.0834
   5   2.0000     -56.707016     -1543.0764
   6   2.0000     -19.424385      -528.5644
   7   2.0000     -19.398242      -527.8530
   8   2.0000     -19.365280      -526.9561
   9   2.0000     -10.513205      -286.0789
  10   2.0000     -10.343210      -281.4530
  11   2.0000     -10.340246      -281.3724
  12   2.0000     -10.339622      -281.3554
  13   2.0000     -10.336775      -281.2780
  14   2.0000     -10.336097      -281.2595
  15   2.0000     -10.335426      -281.2412
  16   2.0000     -10.318446      -280.7792
  17   2.0000     -10.317171      -280.7445
  18   2.0000     -10.315408      -280.6965
  19   2.0000     -10.315240      -280.6920
  20   2.0000     -10.313005      -280.6311
  21   2.0000     -10.312222      -280.6098
  22   2.0000     -10.302042      -280.3328
  23   2.0000     -10.299220      -280.2560
  24   2.0000      -8.831804      -240.3256
  25   2.0000      -6.750385      -183.6873
  26   2.0000      -6.600990      -179.6221
  27   2.0000      -6.597608      -179.5300
  28   2.0000      -6.595453      -179.4714
  29   2.0000      -4.841391      -131.7409
  30   2.0000      -4.841172      -131.7350
  31   2.0000      -4.839601      -131.6922
  32   2.0000      -3.526803       -95.9692
  33   2.0000      -2.615304       -71.1660
  34   2.0000      -2.614758       -71.1512
  35   2.0000      -2.612933       -71.1015
  36   2.0000      -2.609974       -71.0210
  37   2.0000      -2.609735       -71.0145
  38   2.0000      -2.171581       -59.0917
  39   2.0000      -2.168205       -58.9998
  40   2.0000      -2.143542       -58.3287
  41   2.0000      -1.123731       -30.5783
  42   2.0000      -1.014058       -27.5939
  43   2.0000      -0.996808       -27.1245
  44   2.0000      -0.847821       -23.0704
  45   2.0000      -0.808647       -22.0044
  46   2.0000      -0.769199       -20.9310
  47   2.0000      -0.721736       -19.6394
  48   2.0000      -0.718001       -19.5378
  49   2.0000      -0.683443       -18.5974
  50   2.0000      -0.664552       -18.0834
  51   2.0000      -0.661370       -17.9968
  52   2.0000      -0.645523       -17.5656
  53   2.0000      -0.599837       -16.3224
  54   2.0000      -0.593756       -16.1569
  55   2.0000      -0.567978       -15.4555
  56   2.0000      -0.538288       -14.6476
  57   2.0000      -0.529256       -14.4018
  58   2.0000      -0.521015       -14.1775
  59   2.0000      -0.500124       -13.6091
  60   2.0000      -0.462290       -12.5795
  61   2.0000      -0.439682       -11.9644
  62   2.0000      -0.433417       -11.7939
  63   2.0000      -0.422075       -11.4852
  64   2.0000      -0.418625       -11.3914
  65   2.0000      -0.402824       -10.9614
  66   2.0000      -0.380727       -10.3601
  67   2.0000      -0.375221       -10.2103
  68   2.0000      -0.372431       -10.1344
  69   2.0000      -0.370636       -10.0855
  70   2.0000      -0.367855       -10.0098
  71   2.0000      -0.362805        -9.8724
  72   2.0000      -0.351282        -9.5589
  73   2.0000      -0.337284        -9.1780
  74   2.0000      -0.330271        -8.9871
  75   2.0000      -0.323426        -8.8009
  76   2.0000      -0.316802        -8.6206
  77   2.0000      -0.311243        -8.4694
  78   2.0000      -0.297351        -8.0913
  79   2.0000      -0.288052        -7.8383
  80   2.0000      -0.286884        -7.8065
  81   2.0000      -0.277116        -7.5407
  82   2.0000      -0.272432        -7.4133
  83   2.0000      -0.265783        -7.2323
  84   2.0000      -0.259435        -7.0596
  85   2.0000      -0.257033        -6.9942
  86   2.0000      -0.252723        -6.8769
  87   2.0000      -0.238052        -6.4777
  88   2.0000      -0.228846        -6.2272
  89   2.0000      -0.223272        -6.0755
  90   2.0000      -0.219521        -5.9735
  91   2.0000      -0.188631        -5.1329
  92   2.0000      -0.185672        -5.0524
  93   2.0000      -0.174632        -4.7520
  94   2.0000      -0.170759        -4.6466
  95   2.0000      -0.164340        -4.4719
  96   2.0000      -0.158167        -4.3039
  97   2.0000      -0.144526        -3.9328
  98   2.0000      -0.138837        -3.7780
  99   2.0000      -0.110458        -3.0057
 100   0.0000       0.068067         1.8522
 101   0.0000       0.119536         3.2527
 102   0.0000       0.130675         3.5558
 103   0.0000       0.146982         3.9996
 104   0.0000       0.155909         4.2425

MULLIKEN ATOMIC CHARGES
-----------------------
   0 C :   -0.111593
   1 C :    0.048971
   2 C :   -0.332686
   3 C :   -0.215493
   4 C :   -0.235125
   5 C :   -0.256376
   6 H :    0.482347
   7 H :    0.212660
   8 H :    0.164412
   9 H :    0.168638
  10 H :    0.166499
  11 C :   -0.467347
  12 C :   -0.519215
  13 H :    0.186868
  14 H :    0.244585
  15 C :    0.115261
  16 H :    0.282571
  17 H :    0.199259
  18 C :   -0.101450
  19 C :   -0.317146
  20 C :   -0.225207
  21 C :   -0.269678
  22 C :   -0.227706
  23 H :    0.235105
  24 H :    0.184458
  25 H :    0.179496
  26 H :    0.182644
  27 Pd:    0.020890
  28 Br:   -0.475845
  29 P :   -0.132762
  30 H :    0.122075
  31 C :    0.740208
  32 O :   -0.456047
  33 O :   -0.634678
  34 O :   -0.599785
  35 H :    0.095492
  36 H :    0.117698
  37 H :    0.427999
Sum of atomic charges:   -1.0000000

LOEWDIN ATOMIC CHARGES
----------------------
   0 C :   -0.131565
   1 C :   -0.057461
   2 C :   -0.143285
   3 C :   -0.173607
   4 C :   -0.170049
   5 C :   -0.169354
   6 H :    0.390166
   7 H :    0.129223
   8 H :    0.112740
   9 H :    0.113553
  10 H :    0.110915
  11 C :   -0.210639
  12 C :   -0.214163
  13 H :    0.115030
  14 H :    0.141249
  15 C :   -0.035605
  16 H :    0.169015
  17 H :    0.116204
  18 C :   -0.024636
  19 C :   -0.137041
  20 C :   -0.157876
  21 C :   -0.147692
  22 C :   -0.161156
  23 H :    0.146037
  24 H :    0.120778
  25 H :    0.121607
  26 H :    0.119705
  27 Pd:   -0.859400
  28 Br:   -0.255455
  29 P :    0.410374
  30 H :    0.060191
  31 C :    0.168682
  32 O :   -0.263450
  33 O :   -0.330439
  34 O :   -0.321348
  35 H :    0.038542
  36 H :    0.052766
  37 H :    0.327447

  Mayer bond orders larger than 0.100000
B(  0-C ,  1-C ) :   1.3880 B(  0-C ,  2-C ) :   1.4234 B(  0-C , 27-Pd) :   0.5757
B(  1-C ,  5-C ) :   1.3718 B(  1-C , 11-C ) :   0.9500 B(  2-C ,  3-C ) :   1.4122
B(  2-C ,  7-H ) :   0.9059 B(  3-C ,  4-C ) :   1.4211 B(  3-C ,  9-H ) :   0.9305
B(  4-C ,  5-C ) :   1.4508 B(  4-C , 10-H ) :   0.9296 B(  5-C ,  8-H ) :   0.9270
B(  6-H , 28-Br) :   0.1984 B(  6-H , 33-O ) :   0.5106 B( 11-C , 12-C ) :   0.9232
B( 11-C , 13-H ) :   0.9379 B( 11-C , 14-H ) :   0.9032 B( 12-C , 15-C ) :   0.9689
B( 12-C , 16-H ) :   0.8771 B( 12-C , 17-H ) :   0.9312 B( 15-C , 18-C ) :   1.3409
B( 15-C , 21-C ) :   1.4036 B( 18-C , 19-C ) :   1.3975 B( 18-C , 27-Pd) :   0.7658
B( 18-C , 28-Br) :   0.1124 B( 19-C , 20-C ) :   1.4131 B( 19-C , 23-H ) :   0.8953
B( 20-C , 22-C ) :   1.4338 B( 20-C , 24-H ) :   0.9277 B( 21-C , 22-C ) :   1.4275
B( 21-C , 25-H ) :   0.9266 B( 22-C , 26-H ) :   0.9277 B( 27-Pd, 28-Br) :   0.4433
B( 27-Pd, 29-P ) :   0.6696 B( 29-P , 30-H ) :   0.9318 B( 29-P , 35-H ) :   0.9188
B( 29-P , 36-H ) :   0.9226 B( 31-C , 32-O ) :   1.9258 B( 31-C , 33-O ) :   1.1848
B( 31-C , 34-O ) :   1.0846 B( 34-O , 37-H ) :   0.7710

Dispersion correction           -0.031643133
FINAL SINGLE POINT ENERGY     -3847.630002725336
Dispersion correction            ... done

DIPOLE MOMENT
-------------
                                X             Y             Z
Electronic contribution:     -3.15333     -65.44143     -11.51245
Nuclear contribution   :      5.26981      65.53616      11.98069
                        -----------------------------------------
Total Dipole Moment    :      2.11648       0.09473       0.46824
                        -----------------------------------------
Magnitude (a.u.)       :      2.16973
Magnitude (Debye)      :      5.51501

Rotational constants in cm-1:     0.007044     0.006552     0.004498
Rotational constants in MHz :   211.159720   196.426267   134.846175

                             ****ORCA TERMINATED NORMALLY****
TOTAL RUN TIME: 0 days 0 hours 13 minutes 4 seconds 95 msec
