                         Program Version 5.0.3 -  RELEASE  -
|  1> ! EnGrad PBEh-3c
|  2> %output
|  3> xyzfile=True
|  4> end
|  5> %scf
|  6> maxiter 250
|  7> end
|  8> %output
|  9> Print[P_Hirshfeld] = 1
| 10> end
| 11> % maxcore
| 12> 4000
| 13> *xyz -1 1
| 14> C   -1.90192448   0.00321122   0.54728022
| 15> C   -1.70522371   1.02987972   1.48683347
| 16> C   -3.26998476  -0.11056331   0.12903843
| 17> C   -4.26212362   0.81957392   0.43063609
| 18> C   -3.96231993   1.88335581   1.25079444
| 19> C   -2.69365321   1.98658568   1.77453970
| 20> H   -2.02315105  -2.62142513  -2.14582181
| 21> H   -3.56428038  -0.95431151  -0.43491887
| 22> H   -2.55003447   2.75234925   2.47832809
| 23> H   -5.26647640   0.68403802   0.06685571
| 24> H   -4.72135530   2.60241538   1.52051702
| 25> C   -0.42929282   1.22988262   2.30237530
| 26> C    0.78846276   0.32051335   2.16059532
| 27> H   -0.73409214   1.16495756   3.29866332
| 28> H   -0.13331965   2.20488493   2.15853940
| 29> C    1.65578981   0.66036788   0.99717807
| 30> H    0.50398124  -0.71791977   2.13666753
| 31> H    1.39004286   0.42909009   3.07550789
| 32> C    1.39995603   0.13402573  -0.28204252
| 33> C    2.30200557   0.41666585  -1.30269468
| 34> C    3.31453367   1.36085044  -1.12210097
| 35> C    2.76615492   1.48611469   1.17793765
| 36> C    3.52625218   1.93448839   0.10762554
| 37> H    2.28274868  -0.12367922  -2.21942018
| 38> H    4.00241617   1.57342688  -1.94392407
| 39> H    3.07429413   1.75549263   2.18432750
| 40> H    4.25765146   2.72122207   0.24166342
| 41> Pd  -0.04386503  -1.28901389  -0.39768133
| 42> Br  -1.58909195  -3.61624635   0.02044422
| 43> P    1.53437995  -2.99746449  -0.19595609
| 44> H    1.53952269  -3.68956443   1.03029296
| 45> C    0.06653639  -1.64424706  -3.76749193
| 46> O    1.26474759  -1.71872546  -4.19289004
| 47> O   -0.60306860  -2.58751288  -3.22686278
| 48> O   -0.60175150  -0.46458391  -3.90586721
| 49> H    2.88332684  -2.73426794  -0.22346984
| 50> H    1.50065786  -4.10646873  -1.03191959
| 51> H    0.00239849   0.22240636  -4.18638092
| 52> *
| 53>
| 54>                          ****END OF INPUT****

CARTESIAN COORDINATES (ANGSTROEM)
---------------------------------
  C     -1.901924    0.003211    0.547280
  C     -1.705224    1.029880    1.486833
  C     -3.269985   -0.110563    0.129038
  C     -4.262124    0.819574    0.430636
  C     -3.962320    1.883356    1.250794
  C     -2.693653    1.986586    1.774540
  H     -2.023151   -2.621425   -2.145822
  H     -3.564280   -0.954312   -0.434919
  H     -2.550034    2.752349    2.478328
  H     -5.266476    0.684038    0.066856
  H     -4.721355    2.602415    1.520517
  C     -0.429293    1.229883    2.302375
  C      0.788463    0.320513    2.160595
  H     -0.734092    1.164958    3.298663
  H     -0.133320    2.204885    2.158539
  C      1.655790    0.660368    0.997178
  H      0.503981   -0.717920    2.136668
  H      1.390043    0.429090    3.075508
  C      1.399956    0.134026   -0.282043
  C      2.302006    0.416666   -1.302695
  C      3.314534    1.360850   -1.122101
  C      2.766155    1.486115    1.177938
  C      3.526252    1.934488    0.107626
  H      2.282749   -0.123679   -2.219420
  H      4.002416    1.573427   -1.943924
  H      3.074294    1.755493    2.184327
  H      4.257651    2.721222    0.241663
  Pd    -0.043865   -1.289014   -0.397681
  Br    -1.589092   -3.616246    0.020444
  P      1.534380   -2.997464   -0.195956
  H      1.539523   -3.689564    1.030293
  C      0.066536   -1.644247   -3.767492
  O      1.264748   -1.718725   -4.192890
  O     -0.603069   -2.587513   -3.226863
  O     -0.601751   -0.464584   -3.905867
  H      2.883327   -2.734268   -0.223470
  H      1.500658   -4.106469   -1.031920
  H      0.002398    0.222406   -4.186381

 Total Charge           Charge          ....   -1
 Multiplicity           Mult            ....    1
 Number of Electrons    NEL             ....  200
 Basis Dimension        Dim             ....  385

ORBITAL ENERGIES
----------------

  NO   OCC          E(Eh)            E(eV)
   0   2.0000    -484.377999    -13180.5954
   1   2.0000     -77.662828     -2113.3130
   2   2.0000     -63.038885     -1715.3753
   3   2.0000     -56.742310     -1544.0368
   4   2.0000     -56.741882     -1544.0251
   5   2.0000     -56.741332     -1544.0101
   6   2.0000     -19.402563      -527.9706
   7   2.0000     -19.381240      -527.3903
   8   2.0000     -19.327687      -525.9331
   9   2.0000     -10.478980      -285.1476
  10   2.0000     -10.343101      -281.4501
  11   2.0000     -10.338584      -281.3272
  12   2.0000     -10.337336      -281.2932
  13   2.0000     -10.336954      -281.2828
  14   2.0000     -10.336417      -281.2682
  15   2.0000     -10.326481      -280.9978
  16   2.0000     -10.325073      -280.9595
  17   2.0000     -10.321859      -280.8721
  18   2.0000     -10.316357      -280.7223
  19   2.0000     -10.313682      -280.6496
  20   2.0000     -10.311470      -280.5894
  21   2.0000     -10.310958      -280.5754
  22   2.0000     -10.309352      -280.5317
  23   2.0000     -10.308877      -280.5188
  24   2.0000      -8.865655      -241.2467
  25   2.0000      -6.739515      -183.3915
  26   2.0000      -6.635197      -180.5529
  27   2.0000      -6.631486      -180.4519
  28   2.0000      -6.628500      -180.3707
  29   2.0000      -4.830509      -131.4448
  30   2.0000      -4.830095      -131.4336
  31   2.0000      -4.828528      -131.3909
  32   2.0000      -3.514934       -95.6462
  33   2.0000      -2.649462       -72.0955
  34   2.0000      -2.648991       -72.0827
  35   2.0000      -2.646488       -72.0146
  36   2.0000      -2.643220       -71.9257
  37   2.0000      -2.642942       -71.9181
  38   2.0000      -2.161935       -58.8292
  39   2.0000      -2.154247       -58.6200
  40   2.0000      -2.131447       -57.9996
  41   2.0000      -1.090164       -29.6649
  42   2.0000      -0.986176       -26.8352
  43   2.0000      -0.935907       -25.4673
  44   2.0000      -0.846711       -23.0402
  45   2.0000      -0.821469       -22.3533
  46   2.0000      -0.776475       -21.1290
  47   2.0000      -0.727451       -19.7949
  48   2.0000      -0.719088       -19.5674
  49   2.0000      -0.693286       -18.8653
  50   2.0000      -0.681014       -18.5313
  51   2.0000      -0.674438       -18.3524
  52   2.0000      -0.642891       -17.4940
  53   2.0000      -0.606785       -16.5115
  54   2.0000      -0.564581       -15.3630
  55   2.0000      -0.560421       -15.2498
  56   2.0000      -0.544368       -14.8130
  57   2.0000      -0.540221       -14.7002
  58   2.0000      -0.509520       -13.8647
  59   2.0000      -0.461318       -12.5531
  60   2.0000      -0.445186       -12.1141
  61   2.0000      -0.436551       -11.8792
  62   2.0000      -0.417012       -11.3475
  63   2.0000      -0.410278       -11.1642
  64   2.0000      -0.406309       -11.0562
  65   2.0000      -0.390829       -10.6350
  66   2.0000      -0.386466       -10.5163
  67   2.0000      -0.379886       -10.3372
  68   2.0000      -0.378534       -10.3004
  69   2.0000      -0.370251       -10.0750
  70   2.0000      -0.361862        -9.8468
  71   2.0000      -0.353515        -9.6196
  72   2.0000      -0.347328        -9.4513
  73   2.0000      -0.333217        -9.0673
  74   2.0000      -0.329215        -8.9584
  75   2.0000      -0.328595        -8.9415
  76   2.0000      -0.318993        -8.6802
  77   2.0000      -0.306842        -8.3496
  78   2.0000      -0.295673        -8.0457
  79   2.0000      -0.291103        -7.9213
  80   2.0000      -0.283868        -7.7245
  81   2.0000      -0.271164        -7.3787
  82   2.0000      -0.265346        -7.2204
  83   2.0000      -0.256200        -6.9716
  84   2.0000      -0.252783        -6.8786
  85   2.0000      -0.247144        -6.7251
  86   2.0000      -0.242887        -6.6093
  87   2.0000      -0.223487        -6.0814
  88   2.0000      -0.214440        -5.8352
  89   2.0000      -0.209061        -5.6888
  90   2.0000      -0.202990        -5.5237
  91   2.0000      -0.194045        -5.2802
  92   2.0000      -0.187390        -5.0991
  93   2.0000      -0.180053        -4.8995
  94   2.0000      -0.172898        -4.7048
  95   2.0000      -0.167279        -4.5519
  96   2.0000      -0.160708        -4.3731
  97   2.0000      -0.151332        -4.1179
  98   2.0000      -0.147729        -4.0199
  99   2.0000      -0.117674        -3.2021
 100   0.0000       0.013187         0.3588
 101   0.0000       0.075004         2.0410
 102   0.0000       0.125233         3.4078
 103   0.0000       0.132994         3.6190
 104   0.0000       0.148154         4.0315

MULLIKEN ATOMIC CHARGES
-----------------------
   0 C :   -0.087085
   1 C :    0.002005
   2 C :   -0.305686
   3 C :   -0.212046
   4 C :   -0.238819
   5 C :   -0.224852
   6 H :    0.333645
   7 H :    0.183076
   8 H :    0.167955
   9 H :    0.172091
  10 H :    0.170058
  11 C :   -0.453521
  12 C :   -0.529125
  13 H :    0.217166
  14 H :    0.235924
  15 C :    0.143304
  16 H :    0.274762
  17 H :    0.193883
  18 C :   -0.104595
  19 C :   -0.298614
  20 C :   -0.236246
  21 C :   -0.296476
  22 C :   -0.220067
  23 H :    0.254961
  24 H :    0.186914
  25 H :    0.177657
  26 H :    0.183923
  27 Pd:    0.090618
  28 Br:   -0.420065
  29 P :   -0.164995
  30 H :    0.108488
  31 C :    0.699596
  32 O :   -0.551518
  33 O :   -0.508952
  34 O :   -0.607870
  35 H :    0.095247
  36 H :    0.136418
  37 H :    0.432842
Sum of atomic charges:   -1.0000000

LOEWDIN ATOMIC CHARGES
----------------------
   0 C :   -0.098238
   1 C :   -0.048922
   2 C :   -0.136508
   3 C :   -0.171930
   4 C :   -0.165927
   5 C :   -0.162576
   6 H :    0.355245
   7 H :    0.122205
   8 H :    0.116314
   9 H :    0.115344
  10 H :    0.112528
  11 C :   -0.227971
  12 C :   -0.207322
  13 H :    0.128759
  14 H :    0.134769
  15 C :   -0.033971
  16 H :    0.160471
  17 H :    0.116737
  18 C :    0.007840
  19 C :   -0.139061
  20 C :   -0.150311
  21 C :   -0.146270
  22 C :   -0.165105
  23 H :    0.154851
  24 H :    0.122442
  25 H :    0.119939
  26 H :    0.120726
  27 Pd:   -0.797240
  28 Br:   -0.225890
  29 P :    0.362997
  30 H :    0.047209
  31 C :    0.137990
  32 O :   -0.376988
  33 O :   -0.284053
  34 O :   -0.322058
  35 H :    0.035349
  36 H :    0.062181
  37 H :    0.326444

  Mayer bond orders larger than 0.100000
B(  0-C ,  1-C ) :   1.4327 B(  0-C ,  2-C ) :   1.3837 B(  0-C , 27-Pd) :   0.6061
B(  1-C ,  5-C ) :   1.3479 B(  1-C , 11-C ) :   0.9726 B(  2-C ,  3-C ) :   1.4458
B(  2-C ,  7-H ) :   0.9214 B(  3-C ,  4-C ) :   1.4127 B(  3-C ,  9-H ) :   0.9288
B(  4-C ,  5-C ) :   1.4704 B(  4-C , 10-H ) :   0.9286 B(  5-C ,  8-H ) :   0.9292
B(  6-H , 28-Br) :   0.3835 B(  6-H , 33-O ) :   0.3975 B( 11-C , 12-C ) :   0.9827
B( 11-C , 13-H ) :   0.9169 B( 11-C , 14-H ) :   0.9107 B( 12-C , 15-C ) :   0.9674
B( 12-C , 16-H ) :   0.8762 B( 12-C , 17-H ) :   0.9264 B( 15-C , 18-C ) :   1.3335
B( 15-C , 21-C ) :   1.4198 B( 18-C , 19-C ) :   1.4135 B( 18-C , 27-Pd) :   0.8307
B( 19-C , 20-C ) :   1.4023 B( 19-C , 23-H ) :   0.8820 B( 20-C , 22-C ) :   1.4454
B( 20-C , 24-H ) :   0.9271 B( 21-C , 22-C ) :   1.4090 B( 21-C , 25-H ) :   0.9275
B( 22-C , 26-H ) :   0.9283 B( 27-Pd, 28-Br) :   0.3037 B( 27-Pd, 29-P ) :   0.5359
B( 29-P , 30-H ) :   0.9371 B( 29-P , 35-H ) :   0.9242 B( 29-P , 36-H ) :   0.9337
B( 31-C , 32-O ) :   1.7752 B( 31-C , 33-O ) :   1.4239 B( 31-C , 34-O ) :   1.0552
B( 34-O , 37-H ) :   0.7653

Dispersion correction           -0.031833831
FINAL SINGLE POINT ENERGY     -3847.545258186047
Dispersion correction            ... done

DIPOLE MOMENT
-------------
                                X             Y             Z
Electronic contribution:     -3.22264     -63.14238     -10.55181
Nuclear contribution   :      4.23435      63.17117      12.06395
                        -----------------------------------------
Total Dipole Moment    :      1.01171       0.02878       1.51214
                        -----------------------------------------
Magnitude (a.u.)       :      1.81960
Magnitude (Debye)      :      4.62505

Rotational constants in cm-1:     0.006692     0.006469     0.004677
Rotational constants in MHz :   200.608553   193.949171   140.222594

                             ****ORCA TERMINATED NORMALLY****
TOTAL RUN TIME: 0 days 0 hours 9 minutes 37 seconds 914 msec
