                         Program Version 5.0.3 -  RELEASE  -
|  1> ! EnGrad PBEh-3c
|  2> %output
|  3> xyzfile=True
|  4> end
|  5> %scf
|  6> maxiter 250
|  7> end
|  8> %output
|  9> Print[P_Hirshfeld] = 1
| 10> end
| 11> % maxcore
| 12> 4000
| 13> *xyz -1 1
| 14> C   -1.88472299  -0.01857428   0.50485774
| 15> C   -1.78443077   0.98724507   1.50560389
| 16> C   -3.34902602  -0.22021381   0.30118634
| 17> C   -4.35031943   0.70476665   0.61200241
| 18> C   -4.06001047   1.78495318   1.41819817
| 19> C   -2.76568405   1.94966840   1.81756387
| 20> H   -2.00839412  -2.28951328  -2.15078587
| 21> H   -3.64709272  -1.14196464  -0.14634375
| 22> H   -2.54354537   2.85220252   2.35919246
| 23> H   -5.37760348   0.52485265   0.33277371
| 24> H   -4.80319115   2.50301967   1.70612482
| 25> C   -0.41556184   1.33798792   2.14658969
| 26> C    0.76258406   0.36196501   2.08927528
| 27> H   -0.65567413   1.45738347   3.13745240
| 28> H   -0.15676349   2.27968906   1.78604608
| 29> C    1.72647767   0.59664016   0.96958974
| 30> H    0.44684042  -0.66218107   2.07667349
| 31> H    1.32623880   0.50476012   3.01591622
| 32> C    1.47912629   0.10112955  -0.32305812
| 33> C    2.41212983   0.33881135  -1.33060874
| 34> C    3.40425819   1.30223640  -1.12634871
| 35> C    2.76963284   1.50685358   1.15631714
| 36> C    3.63462520   1.85238196   0.11313550
| 37> H    2.38417889  -0.20764381  -2.23891224
| 38> H    4.11585363   1.48988428  -1.93130588
| 39> H    3.05743483   1.77327619   2.16632185
| 40> H    4.33848830   2.66562466   0.24524410
| 41> Pd  -0.16872080  -1.24060520  -0.35573389
| 42> Br  -1.59593281  -3.60033445  -0.33431632
| 43> P    1.53435616  -2.99353590  -0.16582795
| 44> H    1.37357095  -3.64819000   1.09272450
| 45> C    0.09484337  -1.64261892  -3.81416989
| 46> O    1.31364880  -1.73100722  -4.15853176
| 47> O   -0.70264661  -2.46132295  -3.15495941
| 48> O   -0.49408666  -0.37309942  -3.97575657
| 49> H    2.87036909  -2.75973278  -0.06324234
| 50> H    1.53798612  -4.12305393  -0.96298642
| 51> H    0.18308884   0.23843442  -4.32736981
| 52> *
| 53>
| 54>                          ****END OF INPUT****

CARTESIAN COORDINATES (ANGSTROEM)
---------------------------------
  C     -1.884723   -0.018574    0.504858
  C     -1.784431    0.987245    1.505604
  C     -3.349026   -0.220214    0.301186
  C     -4.350319    0.704767    0.612002
  C     -4.060010    1.784953    1.418198
  C     -2.765684    1.949668    1.817564
  H     -2.008394   -2.289513   -2.150786
  H     -3.647093   -1.141965   -0.146344
  H     -2.543545    2.852203    2.359192
  H     -5.377603    0.524853    0.332774
  H     -4.803191    2.503020    1.706125
  C     -0.415562    1.337988    2.146590
  C      0.762584    0.361965    2.089275
  H     -0.655674    1.457383    3.137452
  H     -0.156763    2.279689    1.786046
  C      1.726478    0.596640    0.969590
  H      0.446840   -0.662181    2.076673
  H      1.326239    0.504760    3.015916
  C      1.479126    0.101130   -0.323058
  C      2.412130    0.338811   -1.330609
  C      3.404258    1.302236   -1.126349
  C      2.769633    1.506854    1.156317
  C      3.634625    1.852382    0.113135
  H      2.384179   -0.207644   -2.238912
  H      4.115854    1.489884   -1.931306
  H      3.057435    1.773276    2.166322
  H      4.338488    2.665625    0.245244
  Pd    -0.168721   -1.240605   -0.355734
  Br    -1.595933   -3.600334   -0.334316
  P      1.534356   -2.993536   -0.165828
  H      1.373571   -3.648190    1.092724
  C      0.094843   -1.642619   -3.814170
  O      1.313649   -1.731007   -4.158532
  O     -0.702647   -2.461323   -3.154959
  O     -0.494087   -0.373099   -3.975757
  H      2.870369   -2.759733   -0.063242
  H      1.537986   -4.123054   -0.962986
  H      0.183089    0.238434   -4.327370

 Total Charge           Charge          ....   -1
 Multiplicity           Mult            ....    1
 Number of Electrons    NEL             ....  200
 Basis Dimension        Dim             ....  385

ORBITAL ENERGIES
----------------

  NO   OCC          E(Eh)            E(eV)
   0   2.0000    -484.377680    -13180.5868
   1   2.0000     -77.663788     -2113.3391
   2   2.0000     -63.038643     -1715.3687
   3   2.0000     -56.742137     -1544.0321
   4   2.0000     -56.741586     -1544.0170
   5   2.0000     -56.741072     -1544.0031
   6   2.0000     -19.393491      -527.7237
   7   2.0000     -19.381464      -527.3964
   8   2.0000     -19.340581      -526.2840
   9   2.0000     -10.487437      -285.3777
  10   2.0000     -10.344149      -281.4786
  11   2.0000     -10.338861      -281.3347
  12   2.0000     -10.338167      -281.3158
  13   2.0000     -10.337743      -281.3043
  14   2.0000     -10.336967      -281.2832
  15   2.0000     -10.329573      -281.0820
  16   2.0000     -10.324435      -280.9422
  17   2.0000     -10.322957      -280.9019
  18   2.0000     -10.321186      -280.8537
  19   2.0000     -10.317329      -280.7488
  20   2.0000     -10.315351      -280.6950
  21   2.0000     -10.314771      -280.6792
  22   2.0000     -10.314081      -280.6604
  23   2.0000     -10.307866      -280.4913
  24   2.0000      -8.865520      -241.2431
  25   2.0000      -6.740419      -183.4161
  26   2.0000      -6.634954      -180.5463
  27   2.0000      -6.631463      -180.4513
  28   2.0000      -6.628431      -180.3688
  29   2.0000      -4.831430      -131.4699
  30   2.0000      -4.831049      -131.4595
  31   2.0000      -4.829245      -131.4104
  32   2.0000      -3.512000       -95.5664
  33   2.0000      -2.649344       -72.0923
  34   2.0000      -2.648852       -72.0789
  35   2.0000      -2.646269       -72.0086
  36   2.0000      -2.643264       -71.9269
  37   2.0000      -2.642895       -71.9168
  38   2.0000      -2.157354       -58.7046
  39   2.0000      -2.151832       -58.5543
  40   2.0000      -2.128299       -57.9140
  41   2.0000      -1.069246       -29.0956
  42   2.0000      -0.964085       -26.2341
  43   2.0000      -0.944256       -25.6945
  44   2.0000      -0.844839       -22.9893
  45   2.0000      -0.819903       -22.3107
  46   2.0000      -0.773767       -21.0553
  47   2.0000      -0.725313       -19.7368
  48   2.0000      -0.717846       -19.5336
  49   2.0000      -0.691733       -18.8230
  50   2.0000      -0.683285       -18.5931
  51   2.0000      -0.671559       -18.2740
  52   2.0000      -0.643603       -17.5133
  53   2.0000      -0.604974       -16.4622
  54   2.0000      -0.564269       -15.3545
  55   2.0000      -0.543046       -14.7770
  56   2.0000      -0.540121       -14.6974
  57   2.0000      -0.536872       -14.6090
  58   2.0000      -0.508964       -13.8496
  59   2.0000      -0.459127       -12.4935
  60   2.0000      -0.444667       -12.1000
  61   2.0000      -0.437744       -11.9116
  62   2.0000      -0.415691       -11.3115
  63   2.0000      -0.406987       -11.0747
  64   2.0000      -0.402355       -10.9486
  65   2.0000      -0.388339       -10.5672
  66   2.0000      -0.378950       -10.3118
  67   2.0000      -0.375730       -10.2241
  68   2.0000      -0.374951       -10.2029
  69   2.0000      -0.373444       -10.1619
  70   2.0000      -0.361520        -9.8375
  71   2.0000      -0.353202        -9.6111
  72   2.0000      -0.343041        -9.3346
  73   2.0000      -0.333281        -9.0690
  74   2.0000      -0.331612        -9.0236
  75   2.0000      -0.326297        -8.8790
  76   2.0000      -0.319032        -8.6813
  77   2.0000      -0.300002        -8.1635
  78   2.0000      -0.293596        -7.9892
  79   2.0000      -0.288783        -7.8582
  80   2.0000      -0.281516        -7.6605
  81   2.0000      -0.268294        -7.3007
  82   2.0000      -0.262963        -7.1556
  83   2.0000      -0.251253        -6.8369
  84   2.0000      -0.247522        -6.7354
  85   2.0000      -0.242822        -6.6075
  86   2.0000      -0.231518        -6.2999
  87   2.0000      -0.223692        -6.0870
  88   2.0000      -0.219431        -5.9710
  89   2.0000      -0.209015        -5.6876
  90   2.0000      -0.203238        -5.5304
  91   2.0000      -0.193307        -5.2602
  92   2.0000      -0.191378        -5.2077
  93   2.0000      -0.183582        -4.9955
  94   2.0000      -0.173604        -4.7240
  95   2.0000      -0.171714        -4.6726
  96   2.0000      -0.164397        -4.4735
  97   2.0000      -0.150126        -4.0851
  98   2.0000      -0.143489        -3.9045
  99   2.0000      -0.120817        -3.2876
 100   0.0000       0.040803         1.1103
 101   0.0000       0.071841         1.9549
 102   0.0000       0.120995         3.2925
 103   0.0000       0.131553         3.5797
 104   0.0000       0.143775         3.9123

MULLIKEN ATOMIC CHARGES
-----------------------
   0 C :   -0.091407
   1 C :   -0.017480
   2 C :   -0.320738
   3 C :   -0.203657
   4 C :   -0.233203
   5 C :   -0.218653
   6 H :    0.359630
   7 H :    0.191583
   8 H :    0.172311
   9 H :    0.171556
  10 H :    0.172439
  11 C :   -0.453078
  12 C :   -0.524501
  13 H :    0.215332
  14 H :    0.242382
  15 C :    0.102387
  16 H :    0.275799
  17 H :    0.193238
  18 C :   -0.089423
  19 C :   -0.312284
  20 C :   -0.227050
  21 C :   -0.266852
  22 C :   -0.236233
  23 H :    0.261513
  24 H :    0.184558
  25 H :    0.175809
  26 H :    0.184085
  27 Pd:    0.099812
  28 Br:   -0.418428
  29 P :   -0.166591
  30 H :    0.109396
  31 C :    0.722307
  32 O :   -0.537181
  33 O :   -0.545398
  34 O :   -0.627195
  35 H :    0.100566
  36 H :    0.133704
  37 H :    0.420943
Sum of atomic charges:   -1.0000000

LOEWDIN ATOMIC CHARGES
----------------------
   0 C :   -0.074525
   1 C :   -0.046239
   2 C :   -0.131230
   3 C :   -0.177929
   4 C :   -0.168303
   5 C :   -0.165109
   6 H :    0.379017
   7 H :    0.124160
   8 H :    0.118138
   9 H :    0.115864
  10 H :    0.113215
  11 C :   -0.231275
  12 C :   -0.209074
  13 H :    0.126855
  14 H :    0.139162
  15 C :   -0.041184
  16 H :    0.162925
  17 H :    0.116899
  18 C :    0.001757
  19 C :   -0.140868
  20 C :   -0.148980
  21 C :   -0.146242
  22 C :   -0.167732
  23 H :    0.154378
  24 H :    0.121214
  25 H :    0.119802
  26 H :    0.121560
  27 Pd:   -0.800351
  28 Br:   -0.202143
  29 P :    0.337007
  30 H :    0.049522
  31 C :    0.186455
  32 O :   -0.363817
  33 O :   -0.328765
  34 O :   -0.360868
  35 H :    0.037187
  36 H :    0.059696
  37 H :    0.319819

  Mayer bond orders larger than 0.100000
B(  0-C ,  1-C ) :   1.4190 B(  0-C ,  2-C ) :   1.3187 B(  0-C , 27-Pd) :   0.6650
B(  1-C ,  5-C ) :   1.3145 B(  1-C , 11-C ) :   0.9797 B(  2-C ,  3-C ) :   1.4630
B(  2-C ,  7-H ) :   0.9192 B(  3-C ,  4-C ) :   1.3854 B(  3-C ,  9-H ) :   0.9302
B(  4-C ,  5-C ) :   1.4920 B(  4-C , 10-H ) :   0.9270 B(  5-C ,  8-H ) :   0.9300
B(  6-H , 28-Br) :   0.3863 B(  6-H , 33-O ) :   0.3964 B( 11-C , 12-C ) :   0.9656
B( 11-C , 13-H ) :   0.9189 B( 11-C , 14-H ) :   0.9098 B( 12-C , 15-C ) :   0.9859
B( 12-C , 16-H ) :   0.8752 B( 12-C , 17-H ) :   0.9272 B( 15-C , 18-C ) :   1.3265
B( 15-C , 21-C ) :   1.4158 B( 18-C , 19-C ) :   1.4218 B( 18-C , 27-Pd) :   0.7897
B( 19-C , 20-C ) :   1.4029 B( 19-C , 23-H ) :   0.8796 B( 20-C , 22-C ) :   1.4427
B( 20-C , 24-H ) :   0.9272 B( 21-C , 22-C ) :   1.4056 B( 21-C , 25-H ) :   0.9254
B( 22-C , 26-H ) :   0.9276 B( 27-Pd, 28-Br) :   0.3247 B( 27-Pd, 29-P ) :   0.4479
B( 29-P , 30-H ) :   0.9424 B( 29-P , 35-H ) :   0.9247 B( 29-P , 36-H ) :   0.9348
B( 31-C , 32-O ) :   1.8057 B( 31-C , 33-O ) :   1.3790 B( 31-C , 34-O ) :   1.0150
B( 34-O , 37-H ) :   0.7747

Dispersion correction           -0.031849416
FINAL SINGLE POINT ENERGY     -3847.530485585652
Dispersion correction            ... done

DIPOLE MOMENT
-------------
                                X             Y             Z
Electronic contribution:     -9.87083     -60.57885      -8.53766
Nuclear contribution   :     11.02070      60.51713       9.94829
                        -----------------------------------------
Total Dipole Moment    :      1.14987      -0.06172       1.41063
                        -----------------------------------------
Magnitude (a.u.)       :      1.82095
Magnitude (Debye)      :      4.62850

Rotational constants in cm-1:     0.006728     0.006574     0.004573
Rotational constants in MHz :   201.693961   197.069378   137.106574

                             ****ORCA TERMINATED NORMALLY****
TOTAL RUN TIME: 0 days 0 hours 10 minutes 2 seconds 81 msec
