                         Program Version 5.0.3 -  RELEASE  -
|  1> ! EnGrad PBEh-3c
|  2> %output
|  3> xyzfile=True
|  4> end
|  5> %scf
|  6> maxiter 250
|  7> end
|  8> %output
|  9> Print[P_Hirshfeld] = 1
| 10> end
| 11> % maxcore
| 12> 4000
| 13> *xyz -1 1
| 14> C   -1.89659027  -0.00354449   0.53412495
| 15> C   -1.72978593   1.01665866   1.49265420
| 16> C   -3.29449556  -0.14456608   0.18242173
| 17> C   -4.28947326   0.78397203   0.48687803
| 18> C   -3.99261390   1.85284102   1.30270656
| 19> C   -2.71599007   1.97513758   1.78788156
| 20> H   -2.01857491  -2.51849882  -2.14736117
| 21> H   -3.58996060  -1.01250300  -0.34543134
| 22> H   -2.54802219   2.78331389   2.44138397
| 23> H   -5.30093705   0.63467442   0.14931724
| 24> H   -4.74673271   2.57159264   1.57807425
| 25> C   -0.42503482   1.26340622   2.25406597
| 26> C    0.78043774   0.33336756   2.13847888
| 27> H   -0.70977461   1.25563923   3.24867160
| 28> H   -0.14058962   2.22808179   2.04302872
| 29> C    1.67771021   0.64060583   0.98862289
| 30> H    0.48626179  -0.70063512   2.11806330
| 31> H    1.37025713   0.45255547   3.05702843
| 32> C    1.42450684   0.12382458  -0.29476151
| 33> C    2.33615525   0.39252306  -1.31135087
| 34> C    3.34235737   1.34267414  -1.12341820
| 35> C    2.76723343   1.49254585   1.17123310
| 36> C    3.55985880   1.90902707   0.10933419
| 37> H    2.31420232  -0.14971675  -2.22546470
| 38> H    4.03759328   1.54752020  -1.94001115
| 39> H    3.06906604   1.76100734   2.17874392
| 40> H    4.28271907   2.70398124   0.24277380
| 41> Pd  -0.08258297  -1.27400229  -0.38467337
| 42> Br  -1.59121331  -3.61131205  -0.08956751
| 43> P    1.53437257  -2.99624623  -0.18661331
| 44> H    1.48806083  -3.67673416   1.04965307
| 45> C    0.07531442  -1.64374217  -3.78196683
| 46> O    1.27991192  -1.72253405  -4.18223549
| 47> O   -0.63394788  -2.54838121  -3.20456545
| 48> O   -0.56836449  -0.43621444  -3.92753999
| 49> H    2.87930862  -2.74216462  -0.17378307
| 50> H    1.51223340  -4.11161182  -1.01054332
| 51> H    0.05843081   0.22737668  -4.23010176
| 52> *
| 53>
| 54>                          ****END OF INPUT****

CARTESIAN COORDINATES (ANGSTROEM)
---------------------------------
  C     -1.896590   -0.003544    0.534125
  C     -1.729786    1.016659    1.492654
  C     -3.294496   -0.144566    0.182422
  C     -4.289473    0.783972    0.486878
  C     -3.992614    1.852841    1.302707
  C     -2.715990    1.975138    1.787882
  H     -2.018575   -2.518499   -2.147361
  H     -3.589961   -1.012503   -0.345431
  H     -2.548022    2.783314    2.441384
  H     -5.300937    0.634674    0.149317
  H     -4.746733    2.571593    1.578074
  C     -0.425035    1.263406    2.254066
  C      0.780438    0.333368    2.138479
  H     -0.709775    1.255639    3.248672
  H     -0.140590    2.228082    2.043029
  C      1.677710    0.640606    0.988623
  H      0.486262   -0.700635    2.118063
  H      1.370257    0.452555    3.057028
  C      1.424507    0.123825   -0.294762
  C      2.336155    0.392523   -1.311351
  C      3.342357    1.342674   -1.123418
  C      2.767233    1.492546    1.171233
  C      3.559859    1.909027    0.109334
  H      2.314202   -0.149717   -2.225465
  H      4.037593    1.547520   -1.940011
  H      3.069066    1.761007    2.178744
  H      4.282719    2.703981    0.242774
  Pd    -0.082583   -1.274002   -0.384673
  Br    -1.591213   -3.611312   -0.089568
  P      1.534373   -2.996246   -0.186613
  H      1.488061   -3.676734    1.049653
  C      0.075314   -1.643742   -3.781967
  O      1.279912   -1.722534   -4.182235
  O     -0.633948   -2.548381   -3.204565
  O     -0.568364   -0.436214   -3.927540
  H      2.879309   -2.742165   -0.173783
  H      1.512233   -4.111612   -1.010543
  H      0.058431    0.227377   -4.230102

 Total Charge           Charge          ....   -1
 Multiplicity           Mult            ....    1
 Number of Electrons    NEL             ....  200
 Basis Dimension        Dim             ....  385

ORBITAL ENERGIES
----------------

  NO   OCC          E(Eh)            E(eV)
   0   2.0000    -484.379158    -13180.6270
   1   2.0000     -77.663174     -2113.3224
   2   2.0000     -63.040075     -1715.4077
   3   2.0000     -56.743523     -1544.0698
   4   2.0000     -56.743057     -1544.0571
   5   2.0000     -56.742513     -1544.0423
   6   2.0000     -19.398658      -527.8643
   7   2.0000     -19.380484      -527.3698
   8   2.0000     -19.330257      -526.0030
   9   2.0000     -10.480357      -285.1850
  10   2.0000     -10.343065      -281.4491
  11   2.0000     -10.338009      -281.3115
  12   2.0000     -10.337480      -281.2971
  13   2.0000     -10.336877      -281.2807
  14   2.0000     -10.336459      -281.2694
  15   2.0000     -10.327223      -281.0180
  16   2.0000     -10.324282      -280.9380
  17   2.0000     -10.321949      -280.8745
  18   2.0000     -10.315476      -280.6984
  19   2.0000     -10.313514      -280.6450
  20   2.0000     -10.311530      -280.5910
  21   2.0000     -10.311244      -280.5832
  22   2.0000     -10.310601      -280.5657
  23   2.0000     -10.308711      -280.5143
  24   2.0000      -8.866882      -241.2801
  25   2.0000      -6.739900      -183.4020
  26   2.0000      -6.636384      -180.5852
  27   2.0000      -6.632767      -180.4868
  28   2.0000      -6.629733      -180.4042
  29   2.0000      -4.830902      -131.4555
  30   2.0000      -4.830502      -131.4446
  31   2.0000      -4.828842      -131.3995
  32   2.0000      -3.513625       -95.6106
  33   2.0000      -2.650710       -72.1295
  34   2.0000      -2.650208       -72.1158
  35   2.0000      -2.647679       -72.0470
  36   2.0000      -2.644493       -71.9603
  37   2.0000      -2.644202       -71.9524
  38   2.0000      -2.160184       -58.7816
  39   2.0000      -2.152918       -58.5839
  40   2.0000      -2.130063       -57.9620
  41   2.0000      -1.083437       -29.4818
  42   2.0000      -0.979408       -26.6510
  43   2.0000      -0.938390       -25.5349
  44   2.0000      -0.846236       -23.0273
  45   2.0000      -0.821163       -22.3450
  46   2.0000      -0.776080       -21.1182
  47   2.0000      -0.727087       -19.7850
  48   2.0000      -0.718767       -19.5586
  49   2.0000      -0.693263       -18.8647
  50   2.0000      -0.682911       -18.5830
  51   2.0000      -0.673588       -18.3293
  52   2.0000      -0.643575       -17.5126
  53   2.0000      -0.606937       -16.5156
  54   2.0000      -0.564416       -15.3585
  55   2.0000      -0.553350       -15.0574
  56   2.0000      -0.543945       -14.8015
  57   2.0000      -0.539488       -14.6802
  58   2.0000      -0.509506       -13.8644
  59   2.0000      -0.460760       -12.5379
  60   2.0000      -0.445329       -12.1180
  61   2.0000      -0.437117       -11.8946
  62   2.0000      -0.416775       -11.3410
  63   2.0000      -0.409646       -11.1470
  64   2.0000      -0.403952       -10.9921
  65   2.0000      -0.388994       -10.5851
  66   2.0000      -0.385131       -10.4799
  67   2.0000      -0.378664       -10.3040
  68   2.0000      -0.377574       -10.2743
  69   2.0000      -0.372150       -10.1267
  70   2.0000      -0.362131        -9.8541
  71   2.0000      -0.353367        -9.6156
  72   2.0000      -0.345754        -9.4084
  73   2.0000      -0.333268        -9.0687
  74   2.0000      -0.329740        -8.9727
  75   2.0000      -0.328113        -8.9284
  76   2.0000      -0.319108        -8.6834
  77   2.0000      -0.304539        -8.2869
  78   2.0000      -0.294868        -8.0238
  79   2.0000      -0.290824        -7.9137
  80   2.0000      -0.283381        -7.7112
  81   2.0000      -0.270513        -7.3610
  82   2.0000      -0.264699        -7.2028
  83   2.0000      -0.253576        -6.9001
  84   2.0000      -0.251599        -6.8464
  85   2.0000      -0.245734        -6.6867
  86   2.0000      -0.239798        -6.5252
  87   2.0000      -0.223514        -6.0821
  88   2.0000      -0.214793        -5.8448
  89   2.0000      -0.207208        -5.6384
  90   2.0000      -0.204444        -5.5632
  91   2.0000      -0.193856        -5.2751
  92   2.0000      -0.188304        -5.1240
  93   2.0000      -0.182174        -4.9572
  94   2.0000      -0.173158        -4.7119
  95   2.0000      -0.168846        -4.5945
  96   2.0000      -0.162020        -4.4088
  97   2.0000      -0.151118        -4.1121
  98   2.0000      -0.146615        -3.9896
  99   2.0000      -0.119444        -3.2502
 100   0.0000       0.022117         0.6018
 101   0.0000       0.075312         2.0493
 102   0.0000       0.124463         3.3868
 103   0.0000       0.133007         3.6193
 104   0.0000       0.149154         4.0587

MULLIKEN ATOMIC CHARGES
-----------------------
   0 C :   -0.088242
   1 C :   -0.007366
   2 C :   -0.310664
   3 C :   -0.209774
   4 C :   -0.237759
   5 C :   -0.220496
   6 H :    0.343572
   7 H :    0.184331
   8 H :    0.168454
   9 H :    0.171534
  10 H :    0.170708
  11 C :   -0.452782
  12 C :   -0.528697
  13 H :    0.217598
  14 H :    0.239273
  15 C :    0.135335
  16 H :    0.274976
  17 H :    0.193775
  18 C :   -0.099468
  19 C :   -0.303453
  20 C :   -0.234298
  21 C :   -0.289393
  22 C :   -0.224085
  23 H :    0.257499
  24 H :    0.185845
  25 H :    0.176402
  26 H :    0.184028
  27 Pd:    0.091954
  28 Br:   -0.417147
  29 P :   -0.164305
  30 H :    0.108818
  31 C :    0.706657
  32 O :   -0.549153
  33 O :   -0.521205
  34 O :   -0.614810
  35 H :    0.097284
  36 H :    0.135885
  37 H :    0.429167
Sum of atomic charges:   -1.0000000

LOEWDIN ATOMIC CHARGES
----------------------
   0 C :   -0.093376
   1 C :   -0.047338
   2 C :   -0.134963
   3 C :   -0.173927
   4 C :   -0.166363
   5 C :   -0.163855
   6 H :    0.364466
   7 H :    0.122290
   8 H :    0.116719
   9 H :    0.115451
  10 H :    0.112639
  11 C :   -0.229665
  12 C :   -0.207386
  13 H :    0.128831
  14 H :    0.136547
  15 C :   -0.036059
  16 H :    0.161296
  17 H :    0.116861
  18 C :    0.006177
  19 C :   -0.139456
  20 C :   -0.150146
  21 C :   -0.146772
  22 C :   -0.165835
  23 H :    0.154847
  24 H :    0.122074
  25 H :    0.119841
  26 H :    0.121077
  27 Pd:   -0.799395
  28 Br:   -0.214755
  29 P :    0.356299
  30 H :    0.047727
  31 C :    0.150653
  32 O :   -0.374616
  33 O :   -0.297240
  34 O :   -0.334396
  35 H :    0.036143
  36 H :    0.061512
  37 H :    0.324095

  Mayer bond orders larger than 0.100000
B(  0-C ,  1-C ) :   1.4312 B(  0-C ,  2-C ) :   1.3665 B(  0-C , 27-Pd) :   0.6221
B(  1-C ,  5-C ) :   1.3377 B(  1-C , 11-C ) :   0.9756 B(  2-C ,  3-C ) :   1.4508
B(  2-C ,  7-H ) :   0.9210 B(  3-C ,  4-C ) :   1.4048 B(  3-C ,  9-H ) :   0.9295
B(  4-C ,  5-C ) :   1.4784 B(  4-C , 10-H ) :   0.9280 B(  5-C ,  8-H ) :   0.9296
B(  6-H , 28-Br) :   0.3887 B(  6-H , 33-O ) :   0.3945 B( 11-C , 12-C ) :   0.9782
B( 11-C , 13-H ) :   0.9175 B( 11-C , 14-H ) :   0.9101 B( 12-C , 15-C ) :   0.9725
B( 12-C , 16-H ) :   0.8760 B( 12-C , 17-H ) :   0.9266 B( 15-C , 18-C ) :   1.3328
B( 15-C , 21-C ) :   1.4192 B( 18-C , 19-C ) :   1.4166 B( 18-C , 27-Pd) :   0.8196
B( 19-C , 20-C ) :   1.4026 B( 19-C , 23-H ) :   0.8809 B( 20-C , 22-C ) :   1.4442
B( 20-C , 24-H ) :   0.9274 B( 21-C , 22-C ) :   1.4084 B( 21-C , 25-H ) :   0.9273
B( 22-C , 26-H ) :   0.9281 B( 27-Pd, 28-Br) :   0.3100 B( 27-Pd, 29-P ) :   0.5097
B( 29-P , 30-H ) :   0.9388 B( 29-P , 35-H ) :   0.9245 B( 29-P , 36-H ) :   0.9343
B( 31-C , 32-O ) :   1.7849 B( 31-C , 33-O ) :   1.4141 B( 31-C , 34-O ) :   1.0422
B( 34-O , 37-H ) :   0.7683

Dispersion correction           -0.031851093
FINAL SINGLE POINT ENERGY     -3847.548192733035
Dispersion correction            ... done

DIPOLE MOMENT
-------------
                                X             Y             Z
Electronic contribution:     -5.28737     -62.36288      -9.89881
Nuclear contribution   :      6.33881      62.34815      11.40788
                        -----------------------------------------
Total Dipole Moment    :      1.05144      -0.01473       1.50907
                        -----------------------------------------
Magnitude (a.u.)       :      1.83930
Magnitude (Debye)      :      4.67513

Rotational constants in cm-1:     0.006709     0.006507     0.004648
Rotational constants in MHz :   201.139461   195.067727   139.331096

                             ****ORCA TERMINATED NORMALLY****
TOTAL RUN TIME: 0 days 0 hours 9 minutes 58 seconds 180 msec
