                         Program Version 5.0.3 -  RELEASE  -
|  1> ! EnGrad PBEh-3c
|  2> %output
|  3> xyzfile=True
|  4> end
|  5> %scf
|  6> maxiter 250
|  7> end
|  8> %output
|  9> Print[P_Hirshfeld] = 1
| 10> end
| 11> % maxcore
| 12> 4000
| 13> *xyz -1 1
| 14> C   -1.91300371  -0.03148195   0.50528818
| 15> C   -1.80964187   0.97155185   1.49128264
| 16> C   -3.38540944  -0.29656645   0.42339066
| 17> C   -4.41494117   0.59560808   0.76592573
| 18> C   -4.13472870   1.71662044   1.53143820
| 19> C   -2.82193458   1.90787531   1.84796532
| 20> H   -1.98147455  -2.05036280  -2.16372324
| 21> H   -3.71624162  -1.29170939   0.06409133
| 22> H   -2.53402645   2.93125249   2.27646831
| 23> H   -5.46580265   0.39501025   0.53882010
| 24> H   -4.87214167   2.42843414   1.84746569
| 25> C   -0.41873346   1.39273142   2.00514797
| 26> C    0.75155332   0.40211400   2.03857212
| 27> H   -0.60029790   1.68939490   3.05514769
| 28> H   -0.15891733   2.36390492   1.48967358
| 29> C    1.77241796   0.56798223   0.93613015
| 30> H    0.39749840  -0.62411370   2.03547615
| 31> H    1.27951287   0.56166084   2.97324287
| 32> C    1.52312841   0.06310133  -0.33953052
| 33> C    2.48907661   0.28722254  -1.33874182
| 34> C    3.48370375   1.24498674  -1.13704077
| 35> C    2.78665398   1.50867895   1.14013137
| 36> C    3.70195086   1.79921803   0.11912824
| 37> H    2.46002135  -0.27499967  -2.26325382
| 38> H    4.20212871   1.42462167  -1.92081429
| 39> H    3.04370101   1.79103534   2.15343983
| 40> H    4.40452782   2.61909374   0.24827499
| 41> Pd  -0.23983627  -1.21115176  -0.33181560
| 42> Br  -1.61069334  -3.57649191  -0.60533897
| 43> P    1.50710906  -2.98055122  -0.13774628
| 44> H    1.24875865  -3.61602141   1.13574000
| 45> C    0.13057696  -1.61168527  -3.83672682
| 46> O    1.30743310  -1.75475768  -4.12312079
| 47> O   -0.76923036  -2.35464976  -3.11363537
| 48> O   -0.40125518  -0.31629770  -4.03384308
| 49> H    2.87449292  -2.77615321   0.05947157
| 50> H    1.56652306  -4.13873721  -0.91551174
| 51> H    0.32036076   0.24359807  -4.43141281
| 52> *
| 53>
| 54>                          ****END OF INPUT****

CARTESIAN COORDINATES (ANGSTROEM)
---------------------------------
  C     -1.913004   -0.031482    0.505288
  C     -1.809642    0.971552    1.491283
  C     -3.385409   -0.296566    0.423391
  C     -4.414941    0.595608    0.765926
  C     -4.134729    1.716620    1.531438
  C     -2.821935    1.907875    1.847965
  H     -1.981475   -2.050363   -2.163723
  H     -3.716242   -1.291709    0.064091
  H     -2.534026    2.931252    2.276468
  H     -5.465803    0.395010    0.538820
  H     -4.872142    2.428434    1.847466
  C     -0.418733    1.392731    2.005148
  C      0.751553    0.402114    2.038572
  H     -0.600298    1.689395    3.055148
  H     -0.158917    2.363905    1.489674
  C      1.772418    0.567982    0.936130
  H      0.397498   -0.624114    2.035476
  H      1.279513    0.561661    2.973243
  C      1.523128    0.063101   -0.339531
  C      2.489077    0.287223   -1.338742
  C      3.483704    1.244987   -1.137041
  C      2.786654    1.508679    1.140131
  C      3.701951    1.799218    0.119128
  H      2.460021   -0.275000   -2.263254
  H      4.202129    1.424622   -1.920814
  H      3.043701    1.791035    2.153440
  H      4.404528    2.619094    0.248275
  Pd    -0.239836   -1.211152   -0.331816
  Br    -1.610693   -3.576492   -0.605339
  P      1.507109   -2.980551   -0.137746
  H      1.248759   -3.616021    1.135740
  C      0.130577   -1.611685   -3.836727
  O      1.307433   -1.754758   -4.123121
  O     -0.769230   -2.354650   -3.113635
  O     -0.401255   -0.316298   -4.033843
  H      2.874493   -2.776153    0.059472
  H      1.566523   -4.138737   -0.915512
  H      0.320361    0.243598   -4.431413

 Total Charge           Charge          ....   -1
 Multiplicity           Mult            ....    1
 Number of Electrons    NEL             ....  200
 Basis Dimension        Dim             ....  385

ORBITAL ENERGIES
----------------

  NO   OCC          E(Eh)            E(eV)
   0   2.0000    -484.367804    -13180.3180
   1   2.0000     -77.667756     -2113.4471
   2   2.0000     -63.028801     -1715.1009
   3   2.0000     -56.732335     -1543.7653
   4   2.0000     -56.731694     -1543.7479
   5   2.0000     -56.731246     -1543.7357
   6   2.0000     -19.394609      -527.7541
   7   2.0000     -19.377468      -527.2877
   8   2.0000     -19.356290      -526.7114
   9   2.0000     -10.490695      -285.4663
  10   2.0000     -10.344691      -281.4934
  11   2.0000     -10.341263      -281.4001
  12   2.0000     -10.339824      -281.3609
  13   2.0000     -10.338123      -281.3146
  14   2.0000     -10.336441      -281.2689
  15   2.0000     -10.335118      -281.2329
  16   2.0000     -10.327184      -281.0170
  17   2.0000     -10.325663      -280.9756
  18   2.0000     -10.325222      -280.9636
  19   2.0000     -10.324910      -280.9551
  20   2.0000     -10.323996      -280.9302
  21   2.0000     -10.323664      -280.9212
  22   2.0000     -10.319812      -280.8164
  23   2.0000     -10.318027      -280.7678
  24   2.0000      -8.855769      -240.9777
  25   2.0000      -6.742426      -183.4707
  26   2.0000      -6.625045      -180.2766
  27   2.0000      -6.621888      -180.1907
  28   2.0000      -6.618725      -180.1047
  29   2.0000      -4.833404      -131.5236
  30   2.0000      -4.833175      -131.5174
  31   2.0000      -4.831312      -131.4667
  32   2.0000      -3.512505       -95.5801
  33   2.0000      -2.639527       -71.8252
  34   2.0000      -2.639106       -71.8137
  35   2.0000      -2.636378       -71.7395
  36   2.0000      -2.633683       -71.6661
  37   2.0000      -2.633306       -71.6559
  38   2.0000      -2.156890       -58.6920
  39   2.0000      -2.153085       -58.5884
  40   2.0000      -2.128648       -57.9235
  41   2.0000      -1.077203       -29.3122
  42   2.0000      -0.973358       -26.4864
  43   2.0000      -0.940214       -25.5845
  44   2.0000      -0.843345       -22.9486
  45   2.0000      -0.819718       -22.3056
  46   2.0000      -0.769542       -20.9403
  47   2.0000      -0.723714       -19.6933
  48   2.0000      -0.716000       -19.4833
  49   2.0000      -0.690435       -18.7877
  50   2.0000      -0.676099       -18.3976
  51   2.0000      -0.669940       -18.2300
  52   2.0000      -0.637027       -17.3344
  53   2.0000      -0.596887       -16.2421
  54   2.0000      -0.564562       -15.3625
  55   2.0000      -0.541433       -14.7331
  56   2.0000      -0.536712       -14.6047
  57   2.0000      -0.533850       -14.5268
  58   2.0000      -0.504448       -13.7267
  59   2.0000      -0.457320       -12.4443
  60   2.0000      -0.440357       -11.9827
  61   2.0000      -0.438168       -11.9232
  62   2.0000      -0.415322       -11.3015
  63   2.0000      -0.412557       -11.2262
  64   2.0000      -0.401889       -10.9360
  65   2.0000      -0.383529       -10.4364
  66   2.0000      -0.381487       -10.3808
  67   2.0000      -0.376306       -10.2398
  68   2.0000      -0.367468        -9.9993
  69   2.0000      -0.366016        -9.9598
  70   2.0000      -0.357735        -9.7345
  71   2.0000      -0.350620        -9.5409
  72   2.0000      -0.343851        -9.3567
  73   2.0000      -0.339051        -9.2261
  74   2.0000      -0.331971        -9.0334
  75   2.0000      -0.322809        -8.7841
  76   2.0000      -0.315081        -8.5738
  77   2.0000      -0.298012        -8.1093
  78   2.0000      -0.290014        -7.8917
  79   2.0000      -0.287675        -7.8280
  80   2.0000      -0.278386        -7.5753
  81   2.0000      -0.262569        -7.1449
  82   2.0000      -0.259084        -7.0500
  83   2.0000      -0.250433        -6.8146
  84   2.0000      -0.245474        -6.6797
  85   2.0000      -0.241115        -6.5611
  86   2.0000      -0.232325        -6.3219
  87   2.0000      -0.230018        -6.2591
  88   2.0000      -0.223124        -6.0715
  89   2.0000      -0.216248        -5.8844
  90   2.0000      -0.205840        -5.6012
  91   2.0000      -0.193008        -5.2520
  92   2.0000      -0.187934        -5.1140
  93   2.0000      -0.180159        -4.9024
  94   2.0000      -0.174363        -4.7447
  95   2.0000      -0.167404        -4.5553
  96   2.0000      -0.165263        -4.4970
  97   2.0000      -0.150131        -4.0853
  98   2.0000      -0.139380        -3.7927
  99   2.0000      -0.121218        -3.2985
 100   0.0000       0.064030         1.7424
 101   0.0000       0.064916         1.7664
 102   0.0000       0.117891         3.2080
 103   0.0000       0.129399         3.5211
 104   0.0000       0.138173         3.7599

MULLIKEN ATOMIC CHARGES
-----------------------
   0 C :   -0.090203
   1 C :    0.021120
   2 C :   -0.328835
   3 C :   -0.207000
   4 C :   -0.224998
   5 C :   -0.232260
   6 H :    0.366509
   7 H :    0.200798
   8 H :    0.166055
   9 H :    0.172371
  10 H :    0.177897
  11 C :   -0.451727
  12 C :   -0.514981
  13 H :    0.192827
  14 H :    0.226702
  15 C :    0.083941
  16 H :    0.273600
  17 H :    0.197788
  18 C :   -0.089189
  19 C :   -0.325926
  20 C :   -0.218197
  21 C :   -0.248816
  22 C :   -0.247501
  23 H :    0.253750
  24 H :    0.187342
  25 H :    0.178105
  26 H :    0.182445
  27 Pd:    0.111677
  28 Br:   -0.432596
  29 P :   -0.161588
  30 H :    0.110066
  31 C :    0.719347
  32 O :   -0.482170
  33 O :   -0.575144
  34 O :   -0.625232
  35 H :    0.094764
  36 H :    0.127692
  37 H :    0.411565
Sum of atomic charges:   -1.0000000

LOEWDIN ATOMIC CHARGES
----------------------
   0 C :   -0.065523
   1 C :   -0.052474
   2 C :   -0.126165
   3 C :   -0.179766
   4 C :   -0.172828
   5 C :   -0.158447
   6 H :    0.383454
   7 H :    0.129049
   8 H :    0.115545
   9 H :    0.115931
  10 H :    0.115885
  11 C :   -0.214773
  12 C :   -0.213068
  13 H :    0.118627
  14 H :    0.136749
  15 C :   -0.046577
  16 H :    0.165080
  17 H :    0.117469
  18 C :   -0.009734
  19 C :   -0.138942
  20 C :   -0.152927
  21 C :   -0.145511
  22 C :   -0.166319
  23 H :    0.151100
  24 H :    0.121845
  25 H :    0.121013
  26 H :    0.120466
  27 Pd:   -0.797160
  28 Br:   -0.210725
  29 P :    0.327092
  30 H :    0.051811
  31 C :    0.186689
  32 O :   -0.297982
  33 O :   -0.370064
  34 O :   -0.366207
  35 H :    0.034461
  36 H :    0.056265
  37 H :    0.316658

  Mayer bond orders larger than 0.100000
B(  0-C ,  1-C ) :   1.4208 B(  0-C ,  2-C ) :   1.2881 B(  0-C , 27-Pd) :   0.6971
B(  1-C ,  5-C ) :   1.2919 B(  1-C , 11-C ) :   0.9634 B(  2-C ,  3-C ) :   1.4692
B(  2-C ,  7-H ) :   0.9156 B(  3-C ,  4-C ) :   1.3663 B(  3-C ,  9-H ) :   0.9306
B(  4-C ,  5-C ) :   1.5023 B(  4-C , 10-H ) :   0.9260 B(  5-C ,  8-H ) :   0.9320
B(  6-H , 28-Br) :   0.3500 B(  6-H , 33-O ) :   0.4328 B( 11-C , 12-C ) :   0.9442
B( 11-C , 13-H ) :   0.9279 B( 11-C , 14-H ) :   0.9106 B( 12-C , 15-C ) :   0.9847
B( 12-C , 16-H ) :   0.8764 B( 12-C , 17-H ) :   0.9275 B( 15-C , 18-C ) :   1.3367
B( 15-C , 21-C ) :   1.3962 B( 18-C , 19-C ) :   1.4052 B( 18-C , 27-Pd) :   0.7613
B( 19-C , 20-C ) :   1.4212 B( 19-C , 23-H ) :   0.8854 B( 20-C , 22-C ) :   1.4244
B( 20-C , 24-H ) :   0.9263 B( 21-C , 22-C ) :   1.4220 B( 21-C , 25-H ) :   0.9241
B( 22-C , 26-H ) :   0.9275 B( 27-Pd, 28-Br) :   0.3448 B( 27-Pd, 29-P ) :   0.4110
B( 29-P , 30-H ) :   0.9422 B( 29-P , 35-H ) :   0.9234 B( 29-P , 36-H ) :   0.9324
B( 31-C , 32-O ) :   1.8908 B( 31-C , 33-O ) :   1.2931 B( 31-C , 34-O ) :   1.0109
B( 34-O , 37-H ) :   0.7813

Dispersion correction           -0.031800534
FINAL SINGLE POINT ENERGY     -3847.517009322573
Dispersion correction            ... done

DIPOLE MOMENT
-------------
                                X             Y             Z
Electronic contribution:    -13.49880     -58.87197      -7.64320
Nuclear contribution   :     14.82551      58.90074       8.76788
                        -----------------------------------------
Total Dipole Moment    :      1.32671       0.02878       1.12468
                        -----------------------------------------
Magnitude (a.u.)       :      1.73950
Magnitude (Debye)      :      4.42147

Rotational constants in cm-1:     0.006740     0.006646     0.004496
Rotational constants in MHz :   202.062983   199.233424   134.781049

                             ****ORCA TERMINATED NORMALLY****
TOTAL RUN TIME: 0 days 0 hours 10 minutes 33 seconds 905 msec
