                         Program Version 5.0.3 -  RELEASE  -
|  1> ! EnGrad PBEh-3c
|  2> %output
|  3> xyzfile=True
|  4> end
|  5> %scf
|  6> maxiter 250
|  7> end
|  8> %output
|  9> Print[P_Hirshfeld] = 1
| 10> end
| 11> % maxcore
| 12> 4000
| 13> *xyz -1 1
| 14> C   -1.90196590  -0.01269439   0.52468051
| 15> C   -1.75593985   1.00188556   1.49220500
| 16> C   -3.32427111  -0.19434829   0.26134237
| 17> C   -4.33056573   0.72228025   0.57826999
| 18> C   -4.03915845   1.80822690   1.37761932
| 19> C   -2.75068835   1.95310826   1.80755982
| 20> H   -2.00642403  -2.36517783  -2.15271997
| 21> H   -3.63131937  -1.10394693  -0.21130702
| 22> H   -2.54343839   2.83176582   2.38737182
| 23> H   -5.35493281   0.55618111   0.27688479
| 24> H   -4.78780587   2.52470626   1.66630365
| 25> C   -0.42297104   1.30576200   2.17254190
| 26> C    0.77097769   0.35588297   2.10575804
| 27> H   -0.67391948   1.39770018   3.18528985
| 28> H   -0.14659219   2.27256574   1.86179729
| 29> C    1.70872830   0.61682060   0.97143080
| 30> H    0.45719056  -0.67557330   2.09101487
| 31> H    1.34053714   0.48828898   3.02958751
| 32> C    1.45680676   0.10393688  -0.30942398
| 33> C    2.38623910   0.35803569  -1.32032178
| 34> C    3.38865025   1.31068017  -1.12787978
| 35> C    2.77359392   1.49782966   1.16104686
| 36> C    3.60639591   1.87306310   0.11254187
| 37> H    2.36196006  -0.19074863  -2.23784116
| 38> H    4.09148090   1.50726924  -1.93372392
| 39> H    3.06075864   1.77084192   2.17045649
| 40> H    4.32261312   2.67617942   0.24457552
| 41> Pd  -0.13408559  -1.25341788  -0.36736172
| 42> Br  -1.59759329  -3.59990798  -0.25848976
| 43> P    1.52544340  -2.99110590  -0.17060869
| 44> H    1.40968607  -3.65684990   1.07784772
| 45> C    0.09341367  -1.63324310  -3.79990148
| 46> O    1.28892548  -1.73308773  -4.16287461
| 47> O   -0.67825475  -2.48493149  -3.17478460
| 48> O   -0.51363389  -0.39694006  -3.96235572
| 49> H    2.87773142  -2.75329635  -0.09738897
| 50> H    1.53001401  -4.12049576  -0.97941917
| 51> H    0.14421648   0.23268941  -4.29603390
| 52> *
| 53>
| 54>                          ****END OF INPUT****

CARTESIAN COORDINATES (ANGSTROEM)
---------------------------------
  C     -1.901966   -0.012694    0.524681
  C     -1.755940    1.001886    1.492205
  C     -3.324271   -0.194348    0.261342
  C     -4.330566    0.722280    0.578270
  C     -4.039158    1.808227    1.377619
  C     -2.750688    1.953108    1.807560
  H     -2.006424   -2.365178   -2.152720
  H     -3.631319   -1.103947   -0.211307
  H     -2.543438    2.831766    2.387372
  H     -5.354933    0.556181    0.276885
  H     -4.787806    2.524706    1.666304
  C     -0.422971    1.305762    2.172542
  C      0.770978    0.355883    2.105758
  H     -0.673919    1.397700    3.185290
  H     -0.146592    2.272566    1.861797
  C      1.708728    0.616821    0.971431
  H      0.457191   -0.675573    2.091015
  H      1.340537    0.488289    3.029588
  C      1.456807    0.103937   -0.309424
  C      2.386239    0.358036   -1.320322
  C      3.388650    1.310680   -1.127880
  C      2.773594    1.497830    1.161047
  C      3.606396    1.873063    0.112542
  H      2.361960   -0.190749   -2.237841
  H      4.091481    1.507269   -1.933724
  H      3.060759    1.770842    2.170456
  H      4.322613    2.676179    0.244576
  Pd    -0.134086   -1.253418   -0.367362
  Br    -1.597593   -3.599908   -0.258490
  P      1.525443   -2.991106   -0.170609
  H      1.409686   -3.656850    1.077848
  C      0.093414   -1.633243   -3.799901
  O      1.288925   -1.733088   -4.162875
  O     -0.678255   -2.484931   -3.174785
  O     -0.513634   -0.396940   -3.962356
  H      2.877731   -2.753296   -0.097389
  H      1.530014   -4.120496   -0.979419
  H      0.144216    0.232689   -4.296034

 Total Charge           Charge          ....   -1
 Multiplicity           Mult            ....    1
 Number of Electrons    NEL             ....  200
 Basis Dimension        Dim             ....  385

ORBITAL ENERGIES
----------------

  NO   OCC          E(Eh)            E(eV)
   0   2.0000    -484.377845    -13180.5913
   1   2.0000     -77.664544     -2113.3597
   2   2.0000     -63.038805     -1715.3731
   3   2.0000     -56.742278     -1544.0359
   4   2.0000     -56.741766     -1544.0219
   5   2.0000     -56.741238     -1544.0076
   6   2.0000     -19.395428      -527.7764
   7   2.0000     -19.377992      -527.3020
   8   2.0000     -19.336690      -526.1781
   9   2.0000     -10.482021      -285.2303
  10   2.0000     -10.343061      -281.4490
  11   2.0000     -10.338252      -281.3181
  12   2.0000     -10.337483      -281.2972
  13   2.0000     -10.337057      -281.2856
  14   2.0000     -10.336275      -281.2644
  15   2.0000     -10.329516      -281.0804
  16   2.0000     -10.323700      -280.9221
  17   2.0000     -10.322566      -280.8913
  18   2.0000     -10.315537      -280.7000
  19   2.0000     -10.314586      -280.6741
  20   2.0000     -10.314290      -280.6661
  21   2.0000     -10.313665      -280.6491
  22   2.0000     -10.313415      -280.6423
  23   2.0000     -10.311186      -280.5816
  24   2.0000      -8.865663      -241.2469
  25   2.0000      -6.740726      -183.4245
  26   2.0000      -6.635049      -180.5489
  27   2.0000      -6.631650      -180.4564
  28   2.0000      -6.628570      -180.3726
  29   2.0000      -4.831723      -131.4779
  30   2.0000      -4.831383      -131.4686
  31   2.0000      -4.829633      -131.4210
  32   2.0000      -3.512663       -95.5844
  33   2.0000      -2.649454       -72.0953
  34   2.0000      -2.648982       -72.0825
  35   2.0000      -2.646381       -72.0117
  36   2.0000      -2.643433       -71.9315
  37   2.0000      -2.643065       -71.9214
  38   2.0000      -2.158632       -58.7394
  39   2.0000      -2.152122       -58.5622
  40   2.0000      -2.128990       -57.9328
  41   2.0000      -1.079238       -29.3676
  42   2.0000      -0.970641       -26.4125
  43   2.0000      -0.947207       -25.7748
  44   2.0000      -0.845426       -23.0052
  45   2.0000      -0.821172       -22.3452
  46   2.0000      -0.774582       -21.0775
  47   2.0000      -0.726306       -19.7638
  48   2.0000      -0.717944       -19.5363
  49   2.0000      -0.693247       -18.8642
  50   2.0000      -0.683055       -18.5869
  51   2.0000      -0.672522       -18.3003
  52   2.0000      -0.642229       -17.4759
  53   2.0000      -0.604906       -16.4603
  54   2.0000      -0.564298       -15.3553
  55   2.0000      -0.546675       -14.8758
  56   2.0000      -0.542823       -14.7710
  57   2.0000      -0.538073       -14.6417
  58   2.0000      -0.508469       -13.8361
  59   2.0000      -0.459728       -12.5098
  60   2.0000      -0.444485       -12.0951
  61   2.0000      -0.437456       -11.9038
  62   2.0000      -0.416438       -11.3318
  63   2.0000      -0.407284       -11.0828
  64   2.0000      -0.404862       -11.0168
  65   2.0000      -0.387724       -10.5505
  66   2.0000      -0.383271       -10.4293
  67   2.0000      -0.378173       -10.2906
  68   2.0000      -0.374198       -10.1824
  69   2.0000      -0.371388       -10.1060
  70   2.0000      -0.361229        -9.8295
  71   2.0000      -0.352418        -9.5898
  72   2.0000      -0.343416        -9.3448
  73   2.0000      -0.334013        -9.0890
  74   2.0000      -0.332645        -9.0517
  75   2.0000      -0.326496        -8.8844
  76   2.0000      -0.318748        -8.6736
  77   2.0000      -0.301966        -8.2169
  78   2.0000      -0.292911        -7.9705
  79   2.0000      -0.290950        -7.9171
  80   2.0000      -0.282168        -7.6782
  81   2.0000      -0.268185        -7.2977
  82   2.0000      -0.263230        -7.1628
  83   2.0000      -0.251328        -6.8390
  84   2.0000      -0.249581        -6.7914
  85   2.0000      -0.244701        -6.6586
  86   2.0000      -0.237445        -6.4612
  87   2.0000      -0.224862        -6.1188
  88   2.0000      -0.216063        -5.8794
  89   2.0000      -0.208375        -5.6702
  90   2.0000      -0.205148        -5.5824
  91   2.0000      -0.193082        -5.2540
  92   2.0000      -0.190498        -5.1837
  93   2.0000      -0.183365        -4.9896
  94   2.0000      -0.173526        -4.7219
  95   2.0000      -0.170755        -4.6465
  96   2.0000      -0.163339        -4.4447
  97   2.0000      -0.151217        -4.1148
  98   2.0000      -0.143876        -3.9151
  99   2.0000      -0.120590        -3.2814
 100   0.0000       0.037804         1.0287
 101   0.0000       0.073832         2.0091
 102   0.0000       0.122973         3.3463
 103   0.0000       0.132418         3.6033
 104   0.0000       0.147923         4.0252

MULLIKEN ATOMIC CHARGES
-----------------------
   0 C :   -0.088436
   1 C :   -0.001451
   2 C :   -0.317810
   3 C :   -0.210098
   4 C :   -0.232369
   5 C :   -0.224695
   6 H :    0.353972
   7 H :    0.188998
   8 H :    0.168979
   9 H :    0.171233
  10 H :    0.172471
  11 C :   -0.453950
  12 C :   -0.525913
  13 H :    0.212517
  14 H :    0.238121
  15 C :    0.119414
  16 H :    0.274642
  17 H :    0.194955
  18 C :   -0.092689
  19 C :   -0.312673
  20 C :   -0.228612
  21 C :   -0.275333
  22 C :   -0.232753
  23 H :    0.257186
  24 H :    0.186036
  25 H :    0.176031
  26 H :    0.183466
  27 Pd:    0.096518
  28 Br:   -0.417917
  29 P :   -0.163531
  30 H :    0.109460
  31 C :    0.712145
  32 O :   -0.530731
  33 O :   -0.542267
  34 O :   -0.619434
  35 H :    0.097192
  36 H :    0.133763
  37 H :    0.423564
Sum of atomic charges:   -1.0000000

LOEWDIN ATOMIC CHARGES
----------------------
   0 C :   -0.086548
   1 C :   -0.047970
   2 C :   -0.132769
   3 C :   -0.175773
   4 C :   -0.168217
   5 C :   -0.163048
   6 H :    0.373312
   7 H :    0.123763
   8 H :    0.116705
   9 H :    0.115411
  10 H :    0.113450
  11 C :   -0.226722
  12 C :   -0.208815
  13 H :    0.126914
  14 H :    0.137873
  15 C :   -0.039379
  16 H :    0.162593
  17 H :    0.117186
  18 C :    0.001159
  19 C :   -0.139026
  20 C :   -0.151390
  21 C :   -0.147100
  22 C :   -0.165895
  23 H :    0.153874
  24 H :    0.121991
  25 H :    0.120090
  26 H :    0.120963
  27 Pd:   -0.801489
  28 Br:   -0.206018
  29 P :    0.348121
  30 H :    0.048704
  31 C :    0.159277
  32 O :   -0.351960
  33 O :   -0.321288
  34 O :   -0.345051
  35 H :    0.035901
  36 H :    0.059926
  37 H :    0.321244

  Mayer bond orders larger than 0.100000
B(  0-C ,  1-C ) :   1.4297 B(  0-C ,  2-C ) :   1.3451 B(  0-C , 27-Pd) :   0.6442
B(  1-C ,  5-C ) :   1.3221 B(  1-C , 11-C ) :   0.9742 B(  2-C ,  3-C ) :   1.4563
B(  2-C ,  7-H ) :   0.9193 B(  3-C ,  4-C ) :   1.3932 B(  3-C ,  9-H ) :   0.9302
B(  4-C ,  5-C ) :   1.4883 B(  4-C , 10-H ) :   0.9273 B(  5-C ,  8-H ) :   0.9305
B(  6-H , 28-Br) :   0.3836 B(  6-H , 33-O ) :   0.4015 B( 11-C , 12-C ) :   0.9677
B( 11-C , 13-H ) :   0.9201 B( 11-C , 14-H ) :   0.9101 B( 12-C , 15-C ) :   0.9777
B( 12-C , 16-H ) :   0.8762 B( 12-C , 17-H ) :   0.9270 B( 15-C , 18-C ) :   1.3348
B( 15-C , 21-C ) :   1.4118 B( 18-C , 19-C ) :   1.4123 B( 18-C , 27-Pd) :   0.8025
B( 19-C , 20-C ) :   1.4089 B( 19-C , 23-H ) :   0.8819 B( 20-C , 22-C ) :   1.4373
B( 20-C , 24-H ) :   0.9273 B( 21-C , 22-C ) :   1.4140 B( 21-C , 25-H ) :   0.9266
B( 22-C , 26-H ) :   0.9280 B( 27-Pd, 28-Br) :   0.3212 B( 27-Pd, 29-P ) :   0.4777
B( 29-P , 30-H ) :   0.9400 B( 29-P , 35-H ) :   0.9244 B( 29-P , 36-H ) :   0.9340
B( 31-C , 32-O ) :   1.8192 B( 31-C , 33-O ) :   1.3805 B( 31-C , 34-O ) :   1.0316
B( 34-O , 37-H ) :   0.7726

Dispersion correction           -0.031872510
FINAL SINGLE POINT ENERGY     -3847.553554232953
Dispersion correction            ... done

DIPOLE MOMENT
-------------
                                X             Y             Z
Electronic contribution:     -7.98468     -61.23640      -9.12021
Nuclear contribution   :      9.11832      61.21908      10.54324
                        -----------------------------------------
Total Dipole Moment    :      1.13364      -0.01732       1.42303
                        -----------------------------------------
Magnitude (a.u.)       :      1.81947
Magnitude (Debye)      :      4.62472

Rotational constants in cm-1:     0.006733     0.006564     0.004603
Rotational constants in MHz :   201.843094   196.786989   137.979508

                             ****ORCA TERMINATED NORMALLY****
TOTAL RUN TIME: 0 days 0 hours 9 minutes 56 seconds 15 msec
