                         Program Version 5.0.3 -  RELEASE  -
|  1> ! EnGrad PBEh-3c
|  2> %output
|  3> xyzfile=True
|  4> end
|  5> %scf
|  6> maxiter 250
|  7> end
|  8> %output
|  9> Print[P_Hirshfeld] = 1
| 10> end
| 11> % maxcore
| 12> 4000
| 13> *xyz -1 1
| 14> C   -1.98806815  -0.04987651   0.56084386
| 15> C   -1.79195642   1.00510517   1.43564726
| 16> C   -3.40795117  -0.37982368   0.46967868
| 17> C   -4.46652545   0.48546219   0.90276433
| 18> C   -4.18442470   1.66340329   1.58713081
| 19> C   -2.83041130   1.91842513   1.90386652
| 20> H   -1.89398902  -1.91559198  -2.20757598
| 21> H   -3.75830042  -1.37904112   0.21307235
| 22> H   -2.53014604   2.93562273   2.19558325
| 23> H   -5.52029340   0.27773527   0.70017415
| 24> H   -4.93477563   2.37671703   1.94729621
| 25> C   -0.41927303   1.50905988   1.93877822
| 26> C    0.74971878   0.42584493   1.99087227
| 27> H   -0.54635038   1.88264880   2.98092770
| 28> H   -0.16214440   2.36112215   1.27057532
| 29> C    1.77773238   0.58093881   0.91684808
| 30> H    0.35722252  -0.59182463   2.01561847
| 31> H    1.25073494   0.60584401   2.95444126
| 32> C    1.53681603   0.01902139  -0.33812988
| 33> C    2.52089128   0.24016498  -1.34663934
| 34> C    3.54902977   1.18324023  -1.12353861
| 35> C    2.83161605   1.48638533   1.11975849
| 36> C    3.72420825   1.77785418   0.11181042
| 37> H    2.50923122  -0.31546725  -2.27613566
| 38> H    4.27096265   1.37512380  -1.92261247
| 39> H    3.02837891   1.81501758   2.14529804
| 40> H    4.46139408   2.57141953   0.25250575
| 41> Pd  -0.26027912  -1.21234238  -0.32658175
| 42> Br  -1.65030544  -3.52446732  -0.80727958
| 43> P    1.47001765  -2.96153734  -0.10926226
| 44> H    1.16090616  -3.58676440   1.14882779
| 45> C    0.05665449  -1.55484377  -3.76735923
| 46> O    1.31115398  -1.80763264  -4.11186339
| 47> O   -0.78344512  -2.23268637  -3.12057166
| 48> O   -0.30611614  -0.27594975  -4.09368288
| 49> H    2.87721223  -2.78605860   0.15152879
| 50> H    1.58566867  -4.14845426  -0.88484563
| 51> H    0.40341734   0.22374853  -4.49286085
| 52> *
| 53>
| 54>                          ****END OF INPUT****

CARTESIAN COORDINATES (ANGSTROEM)
---------------------------------
  C     -1.988068   -0.049877    0.560844
  C     -1.791956    1.005105    1.435647
  C     -3.407951   -0.379824    0.469679
  C     -4.466525    0.485462    0.902764
  C     -4.184425    1.663403    1.587131
  C     -2.830411    1.918425    1.903867
  H     -1.893989   -1.915592   -2.207576
  H     -3.758300   -1.379041    0.213072
  H     -2.530146    2.935623    2.195583
  H     -5.520293    0.277735    0.700174
  H     -4.934776    2.376717    1.947296
  C     -0.419273    1.509060    1.938778
  C      0.749719    0.425845    1.990872
  H     -0.546350    1.882649    2.980928
  H     -0.162144    2.361122    1.270575
  C      1.777732    0.580939    0.916848
  H      0.357223   -0.591825    2.015618
  H      1.250735    0.605844    2.954441
  C      1.536816    0.019021   -0.338130
  C      2.520891    0.240165   -1.346639
  C      3.549030    1.183240   -1.123539
  C      2.831616    1.486385    1.119758
  C      3.724208    1.777854    0.111810
  H      2.509231   -0.315467   -2.276136
  H      4.270963    1.375124   -1.922612
  H      3.028379    1.815018    2.145298
  H      4.461394    2.571420    0.252506
  Pd    -0.260279   -1.212342   -0.326582
  Br    -1.650305   -3.524467   -0.807280
  P      1.470018   -2.961537   -0.109262
  H      1.160906   -3.586764    1.148828
  C      0.056654   -1.554844   -3.767359
  O      1.311154   -1.807633   -4.111863
  O     -0.783445   -2.232686   -3.120572
  O     -0.306116   -0.275950   -4.093683
  H      2.877212   -2.786059    0.151529
  H      1.585669   -4.148454   -0.884846
  H      0.403417    0.223749   -4.492861

 Total Charge           Charge          ....   -1
 Multiplicity           Mult            ....    1
 Number of Electrons    NEL             ....  200
 Basis Dimension        Dim             ....  385

ORBITAL ENERGIES
----------------

  NO   OCC          E(Eh)            E(eV)
   0   2.0000    -484.367110    -13180.2991
   1   2.0000     -77.673329     -2113.5987
   2   2.0000     -63.028213     -1715.0849
   3   2.0000     -56.731764     -1543.7498
   4   2.0000     -56.731073     -1543.7310
   5   2.0000     -56.730667     -1543.7199
   6   2.0000     -19.395945      -527.7905
   7   2.0000     -19.395584      -527.7807
   8   2.0000     -19.319190      -525.7019
   9   2.0000     -10.485928      -285.3366
  10   2.0000     -10.347209      -281.5619
  11   2.0000     -10.341791      -281.4145
  12   2.0000     -10.340117      -281.3689
  13   2.0000     -10.338325      -281.3201
  14   2.0000     -10.337510      -281.2979
  15   2.0000     -10.336901      -281.2814
  16   2.0000     -10.333762      -281.1960
  17   2.0000     -10.333220      -281.1812
  18   2.0000     -10.330476      -281.1065
  19   2.0000     -10.330251      -281.1004
  20   2.0000     -10.328900      -281.0637
  21   2.0000     -10.328650      -281.0569
  22   2.0000     -10.327893      -281.0363
  23   2.0000     -10.323433      -280.9149
  24   2.0000      -8.855303      -240.9650
  25   2.0000      -6.746306      -183.5763
  26   2.0000      -6.624565      -180.2636
  27   2.0000      -6.621498      -180.1801
  28   2.0000      -6.618248      -180.0917
  29   2.0000      -4.837277      -131.6290
  30   2.0000      -4.837164      -131.6259
  31   2.0000      -4.835280      -131.5746
  32   2.0000      -3.515032       -95.6489
  33   2.0000      -2.639049       -71.8122
  34   2.0000      -2.638689       -71.8024
  35   2.0000      -2.635925       -71.7272
  36   2.0000      -2.633249       -71.6543
  37   2.0000      -2.632848       -71.6434
  38   2.0000      -2.159384       -58.7598
  39   2.0000      -2.155095       -58.6431
  40   2.0000      -2.131914       -58.0123
  41   2.0000      -1.089344       -29.6426
  42   2.0000      -0.999832       -27.2068
  43   2.0000      -0.912024       -24.8174
  44   2.0000      -0.842777       -22.9331
  45   2.0000      -0.814452       -22.1624
  46   2.0000      -0.765862       -20.8402
  47   2.0000      -0.723028       -19.6746
  48   2.0000      -0.716194       -19.4886
  49   2.0000      -0.692604       -18.8467
  50   2.0000      -0.678387       -18.4599
  51   2.0000      -0.665797       -18.1173
  52   2.0000      -0.633453       -17.2371
  53   2.0000      -0.599639       -16.3170
  54   2.0000      -0.567173       -15.4336
  55   2.0000      -0.563555       -15.3351
  56   2.0000      -0.547002       -14.8847
  57   2.0000      -0.534344       -14.5402
  58   2.0000      -0.504423       -13.7261
  59   2.0000      -0.476185       -12.9577
  60   2.0000      -0.456813       -12.4305
  61   2.0000      -0.438769       -11.9395
  62   2.0000      -0.414752       -11.2860
  63   2.0000      -0.401844       -10.9347
  64   2.0000      -0.399586       -10.8733
  65   2.0000      -0.390370       -10.6225
  66   2.0000      -0.385743       -10.4966
  67   2.0000      -0.381829       -10.3901
  68   2.0000      -0.365552        -9.9472
  69   2.0000      -0.360544        -9.8109
  70   2.0000      -0.357544        -9.7293
  71   2.0000      -0.351273        -9.5586
  72   2.0000      -0.337582        -9.1861
  73   2.0000      -0.331495        -9.0204
  74   2.0000      -0.326246        -8.8776
  75   2.0000      -0.324708        -8.8358
  76   2.0000      -0.318604        -8.6697
  77   2.0000      -0.302325        -8.2267
  78   2.0000      -0.291796        -7.9402
  79   2.0000      -0.284486        -7.7413
  80   2.0000      -0.278519        -7.5789
  81   2.0000      -0.276219        -7.5163
  82   2.0000      -0.266450        -7.2505
  83   2.0000      -0.260014        -7.0753
  84   2.0000      -0.255824        -6.9613
  85   2.0000      -0.248840        -6.7713
  86   2.0000      -0.240651        -6.5484
  87   2.0000      -0.222968        -6.0673
  88   2.0000      -0.218668        -5.9503
  89   2.0000      -0.199235        -5.4215
  90   2.0000      -0.195747        -5.3265
  91   2.0000      -0.188471        -5.1285
  92   2.0000      -0.183715        -4.9991
  93   2.0000      -0.173862        -4.7310
  94   2.0000      -0.171187        -4.6582
  95   2.0000      -0.167753        -4.5648
  96   2.0000      -0.165825        -4.5123
  97   2.0000      -0.153319        -4.1720
  98   2.0000      -0.142770        -3.8850
  99   2.0000      -0.122292        -3.3277
 100   0.0000       0.059242         1.6121
 101   0.0000       0.077411         2.1065
 102   0.0000       0.116965         3.1828
 103   0.0000       0.128099         3.4858
 104   0.0000       0.130264         3.5447

MULLIKEN ATOMIC CHARGES
-----------------------
   0 C :   -0.113346
   1 C :    0.044212
   2 C :   -0.320618
   3 C :   -0.222450
   4 C :   -0.230898
   5 C :   -0.256546
   6 H :    0.389955
   7 H :    0.217817
   8 H :    0.182254
   9 H :    0.176525
  10 H :    0.175373
  11 C :   -0.456987
  12 C :   -0.519691
  13 H :    0.196808
  14 H :    0.238357
  15 C :    0.112480
  16 H :    0.273040
  17 H :    0.192055
  18 C :   -0.110239
  19 C :   -0.333620
  20 C :   -0.225350
  21 C :   -0.256335
  22 C :   -0.230676
  23 H :    0.261636
  24 H :    0.187299
  25 H :    0.176360
  26 H :    0.181756
  27 Pd:    0.101635
  28 Br:   -0.439385
  29 P :   -0.146572
  30 H :    0.109722
  31 C :    0.725342
  32 O :   -0.597348
  33 O :   -0.512345
  34 O :   -0.617391
  35 H :    0.091796
  36 H :    0.123962
  37 H :    0.431415
Sum of atomic charges:   -1.0000000

LOEWDIN ATOMIC CHARGES
----------------------
   0 C :   -0.086135
   1 C :   -0.041825
   2 C :   -0.127223
   3 C :   -0.177645
   4 C :   -0.168029
   5 C :   -0.170785
   6 H :    0.396793
   7 H :    0.137261
   8 H :    0.121632
   9 H :    0.117403
  10 H :    0.115082
  11 C :   -0.212573
  12 C :   -0.210117
  13 H :    0.120541
  14 H :    0.143451
  15 C :   -0.049622
  16 H :    0.165991
  17 H :    0.113995
  18 C :   -0.016785
  19 C :   -0.136678
  20 C :   -0.154280
  21 C :   -0.145937
  22 C :   -0.164568
  23 H :    0.155141
  24 H :    0.122299
  25 H :    0.120838
  26 H :    0.120695
  27 Pd:   -0.808509
  28 Br:   -0.213607
  29 P :    0.341089
  30 H :    0.052336
  31 C :    0.172636
  32 O :   -0.437404
  33 O :   -0.271948
  34 O :   -0.336865
  35 H :    0.034432
  36 H :    0.055102
  37 H :    0.323817

  Mayer bond orders larger than 0.100000
B(  0-C ,  1-C ) :   1.4265 B(  0-C ,  2-C ) :   1.3317 B(  0-C , 27-Pd) :   0.6812
B(  1-C ,  5-C ) :   1.3120 B(  1-C , 11-C ) :   0.9491 B(  2-C ,  3-C ) :   1.4363
B(  2-C ,  5-C ) :   0.1081 B(  2-C ,  7-H ) :   0.9104 B(  3-C ,  4-C ) :   1.3982
B(  3-C ,  9-H ) :   0.9298 B(  4-C ,  5-C ) :   1.4667 B(  4-C , 10-H ) :   0.9282
B(  5-C ,  8-H ) :   0.9251 B(  6-H , 28-Br) :   0.3525 B(  6-H , 33-O ) :   0.4033
B( 11-C , 12-C ) :   0.9362 B( 11-C , 13-H ) :   0.9330 B( 11-C , 14-H ) :   0.9071
B( 12-C , 15-C ) :   0.9736 B( 12-C , 16-H ) :   0.8778 B( 12-C , 17-H ) :   0.9301
B( 15-C , 18-C ) :   1.3466 B( 15-C , 21-C ) :   1.3882 B( 18-C , 19-C ) :   1.4000
B( 18-C , 27-Pd) :   0.7538 B( 19-C , 20-C ) :   1.4207 B( 19-C , 23-H ) :   0.8774
B( 20-C , 22-C ) :   1.4175 B( 20-C , 24-H ) :   0.9270 B( 21-C , 22-C ) :   1.4332
B( 21-C , 25-H ) :   0.9252 B( 22-C , 26-H ) :   0.9285 B( 27-Pd, 28-Br) :   0.3530
B( 27-Pd, 29-P ) :   0.4260 B( 29-P , 30-H ) :   0.9381 B( 29-P , 35-H ) :   0.9238
B( 29-P , 36-H ) :   0.9294 B( 31-C , 32-O ) :   1.7138 B( 31-C , 33-O ) :   1.4359
B( 31-C , 34-O ) :   1.0554 B( 34-O , 37-H ) :   0.7653

Dispersion correction           -0.031749041
FINAL SINGLE POINT ENERGY     -3847.532811192163
Dispersion correction            ... done

DIPOLE MOMENT
-------------
                                X             Y             Z
Electronic contribution:    -14.92631     -58.79820      -7.17497
Nuclear contribution   :     15.87968      59.01706       8.56727
                        -----------------------------------------
Total Dipole Moment    :      0.95336       0.21886       1.39230
                        -----------------------------------------
Magnitude (a.u.)       :      1.70156
Magnitude (Debye)      :      4.32502

Rotational constants in cm-1:     0.006754     0.006696     0.004440
Rotational constants in MHz :   202.472684   200.740448   133.107801

                             ****ORCA TERMINATED NORMALLY****
TOTAL RUN TIME: 0 days 0 hours 11 minutes 25 seconds 519 msec
