                         Program Version 5.0.3 -  RELEASE  -
|  1> ! EnGrad PBEh-3c
|  2> %output
|  3> xyzfile=True
|  4> end
|  5> %scf
|  6> maxiter 250
|  7> end
|  8> %output
|  9> Print[P_Hirshfeld] = 1
| 10> end
| 11> % maxcore
| 12> 4000
| 13> *xyz -1 1
| 14> C   -1.92766958  -0.02379418   0.53547618
| 15> C   -1.76669169   1.00284669   1.47532110
| 16> C   -3.34925170  -0.24971734   0.32353598
| 17> C   -4.37115310   0.65158413   0.67513967
| 18> C   -4.08252406   1.76499343   1.44016375
| 19> C   -2.77448765   1.94275448   1.83630978
| 20> H   -1.97285936  -2.23096520  -2.16909586
| 21> H   -3.66922639  -1.18606943  -0.08461916
| 22> H   -2.53947029   2.86276970   2.33011813
| 23> H   -5.40429708   0.47305806   0.40324725
| 24> H   -4.83168002   2.48052777   1.75018696
| 25> C   -0.42186709   1.36645151   2.10275759
| 26> C    0.76463138   0.37676836   2.07146176
| 27> H   -0.63583691   1.54246948   3.12428264
| 28> H   -0.15123492   2.29900204   1.68530274
| 29> C    1.72932775   0.60610899   0.95513649
| 30> H    0.42734760  -0.65057223   2.06850716
| 31> H    1.31372893   0.52338210   3.00715447
| 32> C    1.48069153   0.07858748  -0.31799341
| 33> C    2.42643614   0.32284834  -1.32817823
| 34> C    3.43652755   1.27263616  -1.12658383
| 35> C    2.79091498   1.49441324   1.14872124
| 36> C    3.64156584   1.84464085   0.11232352
| 37> H    2.40592419  -0.22798026  -2.24927302
| 38> H    4.14506069   1.46782052  -1.93040687
| 39> H    3.05109248   1.78402946   2.16294606
| 40> H    4.36404271   2.64490597   0.24694289
| 41> Pd  -0.17175752  -1.24115581  -0.35518788
| 42> Br  -1.61332918  -3.57738705  -0.42231725
| 43> P    1.50889742  -2.98227894  -0.15229524
| 44> H    1.33541904  -3.63592762   1.09903705
| 45> C    0.08244013  -1.60983894  -3.79018680
| 46> O    1.29556124  -1.75534125  -4.14764649
| 47> O   -0.70965671  -2.40963001  -3.15860068
| 48> O   -0.45168465  -0.36082143  -4.00156016
| 49> H    2.87757643  -2.76307670  -0.02308079
| 50> H    1.54662832  -4.12884207  -0.95118660
| 51> H    0.22159442   0.23002033  -4.35479167
| 52> *
| 53>
| 54>                          ****END OF INPUT****

CARTESIAN COORDINATES (ANGSTROEM)
---------------------------------
  C     -1.927670   -0.023794    0.535476
  C     -1.766692    1.002847    1.475321
  C     -3.349252   -0.249717    0.323536
  C     -4.371153    0.651584    0.675140
  C     -4.082524    1.764993    1.440164
  C     -2.774488    1.942754    1.836310
  H     -1.972859   -2.230965   -2.169096
  H     -3.669226   -1.186069   -0.084619
  H     -2.539470    2.862770    2.330118
  H     -5.404297    0.473058    0.403247
  H     -4.831680    2.480528    1.750187
  C     -0.421867    1.366452    2.102758
  C      0.764631    0.376768    2.071462
  H     -0.635837    1.542469    3.124283
  H     -0.151235    2.299002    1.685303
  C      1.729328    0.606109    0.955136
  H      0.427348   -0.650572    2.068507
  H      1.313729    0.523382    3.007154
  C      1.480692    0.078587   -0.317993
  C      2.426436    0.322848   -1.328178
  C      3.436528    1.272636   -1.126584
  C      2.790915    1.494413    1.148721
  C      3.641566    1.844641    0.112324
  H      2.405924   -0.227980   -2.249273
  H      4.145061    1.467821   -1.930407
  H      3.051092    1.784029    2.162946
  H      4.364043    2.644906    0.246943
  Pd    -0.171758   -1.241156   -0.355188
  Br    -1.613329   -3.577387   -0.422317
  P      1.508897   -2.982279   -0.152295
  H      1.335419   -3.635928    1.099037
  C      0.082440   -1.609839   -3.790187
  O      1.295561   -1.755341   -4.147646
  O     -0.709657   -2.409630   -3.158601
  O     -0.451685   -0.360821   -4.001560
  H      2.877576   -2.763077   -0.023081
  H      1.546628   -4.128842   -0.951187
  H      0.221594    0.230020   -4.354792

 Total Charge           Charge          ....   -1
 Multiplicity           Mult            ....    1
 Number of Electrons    NEL             ....  200
 Basis Dimension        Dim             ....  385

ORBITAL ENERGIES
----------------

  NO   OCC          E(Eh)            E(eV)
   0   2.0000    -484.376934    -13180.5665
   1   2.0000     -77.666804     -2113.4212
   2   2.0000     -63.037932     -1715.3493
   3   2.0000     -56.741434     -1544.0129
   4   2.0000     -56.740868     -1543.9975
   5   2.0000     -56.740359     -1543.9837
   6   2.0000     -19.395103      -527.7676
   7   2.0000     -19.381245      -527.3905
   8   2.0000     -19.329429      -525.9805
   9   2.0000     -10.481252      -285.2094
  10   2.0000     -10.343731      -281.4672
  11   2.0000     -10.338753      -281.3318
  12   2.0000     -10.338104      -281.3141
  13   2.0000     -10.336718      -281.2764
  14   2.0000     -10.336142      -281.2607
  15   2.0000     -10.331574      -281.1364
  16   2.0000     -10.324542      -280.9451
  17   2.0000     -10.324389      -280.9409
  18   2.0000     -10.319030      -280.7951
  19   2.0000     -10.317649      -280.7575
  20   2.0000     -10.317020      -280.7404
  21   2.0000     -10.316310      -280.7211
  22   2.0000     -10.315694      -280.7043
  23   2.0000     -10.314454      -280.6706
  24   2.0000      -8.864857      -241.2250
  25   2.0000      -6.742141      -183.4630
  26   2.0000      -6.634193      -180.5256
  27   2.0000      -6.630920      -180.4365
  28   2.0000      -6.627773      -180.3509
  29   2.0000      -4.833118      -131.5158
  30   2.0000      -4.832864      -131.5089
  31   2.0000      -4.831065      -131.4600
  32   2.0000      -3.513146       -95.5976
  33   2.0000      -2.648647       -72.0733
  34   2.0000      -2.648202       -72.0612
  35   2.0000      -2.645516       -71.9881
  36   2.0000      -2.642705       -71.9117
  37   2.0000      -2.642304       -71.9007
  38   2.0000      -2.158729       -58.7420
  39   2.0000      -2.152683       -58.5775
  40   2.0000      -2.129589       -57.9491
  41   2.0000      -1.082621       -29.4596
  42   2.0000      -0.977428       -26.5972
  43   2.0000      -0.938769       -25.5452
  44   2.0000      -0.844548       -22.9813
  45   2.0000      -0.819825       -22.3086
  46   2.0000      -0.772289       -21.0151
  47   2.0000      -0.725642       -19.7457
  48   2.0000      -0.717386       -19.5211
  49   2.0000      -0.693919       -18.8825
  50   2.0000      -0.683615       -18.6021
  51   2.0000      -0.670686       -18.2503
  52   2.0000      -0.640162       -17.4197
  53   2.0000      -0.604213       -16.4415
  54   2.0000      -0.563943       -15.3457
  55   2.0000      -0.553735       -15.0679
  56   2.0000      -0.544282       -14.8107
  57   2.0000      -0.537409       -14.6236
  58   2.0000      -0.507651       -13.8139
  59   2.0000      -0.458871       -12.4865
  60   2.0000      -0.446664       -12.1543
  61   2.0000      -0.443510       -12.0685
  62   2.0000      -0.415733       -11.3127
  63   2.0000      -0.406135       -11.0515
  64   2.0000      -0.403293       -10.9742
  65   2.0000      -0.387692       -10.5496
  66   2.0000      -0.384122       -10.4525
  67   2.0000      -0.380473       -10.3532
  68   2.0000      -0.372436       -10.1345
  69   2.0000      -0.368410       -10.0249
  70   2.0000      -0.360422        -9.8076
  71   2.0000      -0.352493        -9.5918
  72   2.0000      -0.341837        -9.3019
  73   2.0000      -0.333271        -9.0688
  74   2.0000      -0.330210        -8.9855
  75   2.0000      -0.326141        -8.8748
  76   2.0000      -0.319255        -8.6874
  77   2.0000      -0.301886        -8.2147
  78   2.0000      -0.293157        -7.9772
  79   2.0000      -0.288466        -7.8496
  80   2.0000      -0.280967        -7.6455
  81   2.0000      -0.267769        -7.2864
  82   2.0000      -0.266624        -7.2552
  83   2.0000      -0.252824        -6.8797
  84   2.0000      -0.251763        -6.8508
  85   2.0000      -0.247316        -6.7298
  86   2.0000      -0.239433        -6.5153
  87   2.0000      -0.224607        -6.1119
  88   2.0000      -0.216572        -5.8932
  89   2.0000      -0.204775        -5.5722
  90   2.0000      -0.202771        -5.5177
  91   2.0000      -0.192417        -5.2359
  92   2.0000      -0.189033        -5.1439
  93   2.0000      -0.180879        -4.9220
  94   2.0000      -0.172673        -4.6987
  95   2.0000      -0.171541        -4.6679
  96   2.0000      -0.164429        -4.4743
  97   2.0000      -0.151651        -4.1266
  98   2.0000      -0.143068        -3.8931
  99   2.0000      -0.121314        -3.3011
 100   0.0000       0.051792         1.4093
 101   0.0000       0.070776         1.9259
 102   0.0000       0.121758         3.3132
 103   0.0000       0.131938         3.5902
 104   0.0000       0.143163         3.8957

MULLIKEN ATOMIC CHARGES
-----------------------
   0 C :   -0.091819
   1 C :    0.006680
   2 C :   -0.323072
   3 C :   -0.213607
   4 C :   -0.230944
   5 C :   -0.233863
   6 H :    0.364137
   7 H :    0.199435
   8 H :    0.174581
   9 H :    0.171974
  10 H :    0.172473
  11 C :   -0.454897
  12 C :   -0.525898
  13 H :    0.208696
  14 H :    0.242069
  15 C :    0.116150
  16 H :    0.274141
  17 H :    0.194052
  18 C :   -0.095371
  19 C :   -0.319426
  20 C :   -0.227998
  21 C :   -0.270122
  22 C :   -0.231705
  23 H :    0.258862
  24 H :    0.186270
  25 H :    0.176006
  26 H :    0.182765
  27 Pd:    0.096648
  28 Br:   -0.418368
  29 P :   -0.160117
  30 H :    0.109900
  31 C :    0.714673
  32 O :   -0.554013
  33 O :   -0.535507
  34 O :   -0.616135
  35 H :    0.096275
  36 H :    0.130890
  37 H :    0.426187
Sum of atomic charges:   -1.0000000

LOEWDIN ATOMIC CHARGES
----------------------
   0 C :   -0.086537
   1 C :   -0.045793
   2 C :   -0.132338
   3 C :   -0.175937
   4 C :   -0.167963
   5 C :   -0.165199
   6 H :    0.380333
   7 H :    0.127398
   8 H :    0.118229
   9 H :    0.115628
  10 H :    0.113682
  11 C :   -0.223958
  12 C :   -0.209097
  13 H :    0.125216
  14 H :    0.140301
  15 C :   -0.042462
  16 H :    0.163560
  17 H :    0.116152
  18 C :   -0.004374
  19 C :   -0.138312
  20 C :   -0.152341
  21 C :   -0.147142
  22 C :   -0.165557
  23 H :    0.154304
  24 H :    0.121990
  25 H :    0.120198
  26 H :    0.120824
  27 Pd:   -0.805694
  28 Br:   -0.199467
  29 P :    0.346081
  30 H :    0.049469
  31 C :    0.157734
  32 O :   -0.379586
  33 O :   -0.307337
  34 O :   -0.338041
  35 H :    0.035772
  36 H :    0.058334
  37 H :    0.321931

  Mayer bond orders larger than 0.100000
B(  0-C ,  1-C ) :   1.4300 B(  0-C ,  2-C ) :   1.3429 B(  0-C , 27-Pd) :   0.6566
B(  1-C ,  5-C ) :   1.3212 B(  1-C , 11-C ) :   0.9699 B(  2-C ,  3-C ) :   1.4508
B(  2-C ,  7-H ) :   0.9160 B(  3-C ,  4-C ) :   1.3956 B(  3-C ,  9-H ) :   0.9305
B(  4-C ,  5-C ) :   1.4843 B(  4-C , 10-H ) :   0.9279 B(  5-C ,  8-H ) :   0.9290
B(  6-H , 28-Br) :   0.3811 B(  6-H , 33-O ) :   0.3974 B( 11-C , 12-C ) :   0.9587
B( 11-C , 13-H ) :   0.9247 B( 11-C , 14-H ) :   0.9081 B( 12-C , 15-C ) :   0.9776
B( 12-C , 16-H ) :   0.8772 B( 12-C , 17-H ) :   0.9284 B( 15-C , 18-C ) :   1.3395
B( 15-C , 21-C ) :   1.4050 B( 18-C , 19-C ) :   1.4074 B( 18-C , 27-Pd) :   0.7881
B( 19-C , 20-C ) :   1.4127 B( 19-C , 23-H ) :   0.8804 B( 20-C , 22-C ) :   1.4312
B( 20-C , 24-H ) :   0.9273 B( 21-C , 22-C ) :   1.4203 B( 21-C , 25-H ) :   0.9261
B( 22-C , 26-H ) :   0.9282 B( 27-Pd, 28-Br) :   0.3318 B( 27-Pd, 29-P ) :   0.4617
B( 29-P , 30-H ) :   0.9395 B( 29-P , 35-H ) :   0.9245 B( 29-P , 36-H ) :   0.9329
B( 31-C , 32-O ) :   1.7863 B( 31-C , 33-O ) :   1.4009 B( 31-C , 34-O ) :   1.0437
B( 34-O , 37-H ) :   0.7702

Dispersion correction           -0.031893714
FINAL SINGLE POINT ENERGY     -3847.558789623570
Dispersion correction            ... done

DIPOLE MOMENT
-------------
                                X             Y             Z
Electronic contribution:    -10.07284     -60.52548      -8.51431
Nuclear contribution   :     11.13675      60.56172       9.95337
                        -----------------------------------------
Total Dipole Moment    :      1.06391       0.03624       1.43905
                        -----------------------------------------
Magnitude (a.u.)       :      1.79000
Magnitude (Debye)      :      4.54981

Rotational constants in cm-1:     0.006753     0.006618     0.004558
Rotational constants in MHz :   202.442650   198.390604   136.648263

                             ****ORCA TERMINATED NORMALLY****
TOTAL RUN TIME: 0 days 0 hours 11 minutes 18 seconds 331 msec
