                         Program Version 5.0.3 -  RELEASE  -
|  1> ! EnGrad PBEh-3c
|  2> %output
|  3> xyzfile=True
|  4> end
|  5> %scf
|  6> maxiter 250
|  7> end
|  8> %output
|  9> Print[P_Hirshfeld] = 1
| 10> end
| 11> % maxcore
| 12> 4000
| 13> *xyz -1 1
| 14> C   -2.03759436  -0.07748929   0.58862732
| 15> C   -1.81558037   1.03849043   1.41639348
| 16> C   -3.45686047  -0.46006714   0.58075812
| 17> C   -4.52585082   0.36201289   1.06487501
| 18> C   -4.23563778   1.59812568   1.69497248
| 19> C   -2.87686847   1.88396585   1.92029235
| 20> H   -1.81728851  -1.71797006  -2.24279178
| 21> H   -3.81803012  -1.51425528   0.40816946
| 22> H   -2.52301417   2.98574601   2.11463517
| 23> H   -5.59783466   0.13311322   0.91152780
| 24> H   -5.00629203   2.29945739   2.07884384
| 25> C   -0.41248590   1.59133011   1.82707647
| 26> C    0.73282824   0.47376795   1.94508258
| 27> H   -0.48236404   2.12696297   2.87080861
| 28> H   -0.16099164   2.40274057   0.97796160
| 29> C    1.80615652   0.57223599   0.88694179
| 30> H    0.30623991  -0.54722233   1.98108942
| 31> H    1.20698510   0.66213579   2.91768884
| 32> C    1.57440116  -0.02240607  -0.35184188
| 33> C    2.58074742   0.18298254  -1.35150251
| 34> C    3.62455514   1.11051829  -1.12667413
| 35> C    2.85889425   1.47165940   1.10683076
| 36> C    3.78122805   1.74021012   0.10707456
| 37> H    2.57812846  -0.37427925  -2.29405512
| 38> H    4.35658374   1.30803260  -1.91502243
| 39> H    3.01167400   1.83931386   2.12925075
| 40> H    4.53062968   2.51415742   0.25664252
| 41> Pd  -0.30592606  -1.20320394  -0.31391860
| 42> Br  -1.68702157  -3.47333474  -1.06960778
| 43> P    1.44658478  -2.94680686  -0.07982352
| 44> H    1.04099669  -3.55211985   1.17827716
| 45> C    0.10515060  -1.49662698  -3.77207136
| 46> O    1.27092008  -1.84729347  -4.07128262
| 47> O   -0.84848640  -2.11182545  -3.08796760
| 48> O   -0.22666107  -0.21680428  -4.15266761
| 49> H    2.86675741  -2.80119669   0.27380144
| 50> H    1.61074641  -4.15683393  -0.83637590
| 51> H    0.54012587   0.21928921  -4.59052449
| 52> *
| 53>
| 54>                          ****END OF INPUT****

CARTESIAN COORDINATES (ANGSTROEM)
---------------------------------
  C     -2.037594   -0.077489    0.588627
  C     -1.815580    1.038490    1.416393
  C     -3.456860   -0.460067    0.580758
  C     -4.525851    0.362013    1.064875
  C     -4.235638    1.598126    1.694972
  C     -2.876868    1.883966    1.920292
  H     -1.817289   -1.717970   -2.242792
  H     -3.818030   -1.514255    0.408169
  H     -2.523014    2.985746    2.114635
  H     -5.597835    0.133113    0.911528
  H     -5.006292    2.299457    2.078844
  C     -0.412486    1.591330    1.827076
  C      0.732828    0.473768    1.945083
  H     -0.482364    2.126963    2.870809
  H     -0.160992    2.402741    0.977962
  C      1.806157    0.572236    0.886942
  H      0.306240   -0.547222    1.981089
  H      1.206985    0.662136    2.917689
  C      1.574401   -0.022406   -0.351842
  C      2.580747    0.182983   -1.351503
  C      3.624555    1.110518   -1.126674
  C      2.858894    1.471659    1.106831
  C      3.781228    1.740210    0.107075
  H      2.578128   -0.374279   -2.294055
  H      4.356584    1.308033   -1.915022
  H      3.011674    1.839314    2.129251
  H      4.530630    2.514157    0.256643
  Pd    -0.305926   -1.203204   -0.313919
  Br    -1.687022   -3.473335   -1.069608
  P      1.446585   -2.946807   -0.079824
  H      1.040997   -3.552120    1.178277
  C      0.105151   -1.496627   -3.772071
  O      1.270920   -1.847293   -4.071283
  O     -0.848486   -2.111825   -3.087968
  O     -0.226661   -0.216804   -4.152668
  H      2.866757   -2.801197    0.273801
  H      1.610746   -4.156834   -0.836376
  H      0.540126    0.219289   -4.590524

 Total Charge           Charge          ....   -1
 Multiplicity           Mult            ....    1
 Number of Electrons    NEL             ....  200
 Basis Dimension        Dim             ....  385

ORBITAL ENERGIES
----------------

  NO   OCC          E(Eh)            E(eV)
   0   2.0000    -484.345836    -13179.7202
   1   2.0000     -77.676735     -2113.6914
   2   2.0000     -63.007151     -1714.5117
   3   2.0000     -56.710701     -1543.1766
   4   2.0000     -56.709939     -1543.1559
   5   2.0000     -56.709663     -1543.1484
   6   2.0000     -19.406181      -528.0690
   7   2.0000     -19.393916      -527.7353
   8   2.0000     -19.345399      -526.4151
   9   2.0000     -10.495737      -285.6035
  10   2.0000     -10.352826      -281.7147
  11   2.0000     -10.348708      -281.6027
  12   2.0000     -10.345592      -281.5179
  13   2.0000     -10.343330      -281.4563
  14   2.0000     -10.342736      -281.4402
  15   2.0000     -10.340911      -281.3905
  16   2.0000     -10.338129      -281.3148
  17   2.0000     -10.337456      -281.2965
  18   2.0000     -10.335516      -281.2437
  19   2.0000     -10.335361      -281.2395
  20   2.0000     -10.334968      -281.2288
  21   2.0000     -10.333200      -281.1807
  22   2.0000     -10.332679      -281.1665
  23   2.0000     -10.329637      -281.0837
  24   2.0000      -8.834379      -240.3957
  25   2.0000      -6.748330      -183.6314
  26   2.0000      -6.603526      -179.6911
  27   2.0000      -6.600530      -179.6096
  28   2.0000      -6.597563      -179.5288
  29   2.0000      -4.839320      -131.6846
  30   2.0000      -4.839241      -131.6824
  31   2.0000      -4.837342      -131.6308
  32   2.0000      -3.514218       -95.6267
  33   2.0000      -2.617979       -71.2388
  34   2.0000      -2.617605       -71.2287
  35   2.0000      -2.615166       -71.1623
  36   2.0000      -2.612509       -71.0900
  37   2.0000      -2.612068       -71.0780
  38   2.0000      -2.157855       -58.7182
  39   2.0000      -2.154681       -58.6318
  40   2.0000      -2.131267       -57.9947
  41   2.0000      -1.091486       -29.7009
  42   2.0000      -0.985034       -26.8041
  43   2.0000      -0.960079       -26.1251
  44   2.0000      -0.841321       -22.8935
  45   2.0000      -0.810681       -22.0597
  46   2.0000      -0.761594       -20.7240
  47   2.0000      -0.719272       -19.5724
  48   2.0000      -0.715895       -19.4805
  49   2.0000      -0.687585       -18.7101
  50   2.0000      -0.663813       -18.0633
  51   2.0000      -0.662534       -18.0285
  52   2.0000      -0.628479       -17.1018
  53   2.0000      -0.592880       -16.1331
  54   2.0000      -0.566286       -15.4094
  55   2.0000      -0.564633       -15.3644
  56   2.0000      -0.540257       -14.7012
  57   2.0000      -0.531895       -14.4736
  58   2.0000      -0.502201       -13.6656
  59   2.0000      -0.480327       -13.0704
  60   2.0000      -0.456230       -12.4147
  61   2.0000      -0.431745       -11.7484
  62   2.0000      -0.416047       -11.3212
  63   2.0000      -0.413723       -11.2580
  64   2.0000      -0.400371       -10.8946
  65   2.0000      -0.393914       -10.7189
  66   2.0000      -0.383814       -10.4441
  67   2.0000      -0.373888       -10.1740
  68   2.0000      -0.360983        -9.8228
  69   2.0000      -0.357262        -9.7216
  70   2.0000      -0.354372        -9.6430
  71   2.0000      -0.347588        -9.4584
  72   2.0000      -0.344776        -9.3818
  73   2.0000      -0.334746        -9.1089
  74   2.0000      -0.328704        -8.9445
  75   2.0000      -0.323186        -8.7943
  76   2.0000      -0.314395        -8.5551
  77   2.0000      -0.298621        -8.1259
  78   2.0000      -0.286105        -7.7853
  79   2.0000      -0.284481        -7.7411
  80   2.0000      -0.279446        -7.6041
  81   2.0000      -0.274275        -7.4634
  82   2.0000      -0.267729        -7.2853
  83   2.0000      -0.258484        -7.0337
  84   2.0000      -0.256632        -6.9833
  85   2.0000      -0.241907        -6.5826
  86   2.0000      -0.238928        -6.5016
  87   2.0000      -0.229447        -6.2436
  88   2.0000      -0.219285        -5.9671
  89   2.0000      -0.211945        -5.7673
  90   2.0000      -0.206288        -5.6134
  91   2.0000      -0.191799        -5.2191
  92   2.0000      -0.177259        -4.8235
  93   2.0000      -0.174006        -4.7349
  94   2.0000      -0.168453        -4.5838
  95   2.0000      -0.165475        -4.5028
  96   2.0000      -0.152680        -4.1546
  97   2.0000      -0.147517        -4.0141
  98   2.0000      -0.143862        -3.9147
  99   2.0000      -0.120672        -3.2836
 100   0.0000       0.052517         1.4291
 101   0.0000       0.105185         2.8622
 102   0.0000       0.116880         3.1805
 103   0.0000       0.127100         3.4586
 104   0.0000       0.129798         3.5320

MULLIKEN ATOMIC CHARGES
-----------------------
   0 C :   -0.133083
   1 C :    0.078190
   2 C :   -0.308896
   3 C :   -0.227874
   4 C :   -0.234531
   5 C :   -0.253898
   6 H :    0.414162
   7 H :    0.218732
   8 H :    0.166495
   9 H :    0.179375
  10 H :    0.177576
  11 C :   -0.447636
  12 C :   -0.510346
  13 H :    0.183052
  14 H :    0.218968
  15 C :    0.112442
  16 H :    0.273017
  17 H :    0.194579
  18 C :   -0.120548
  19 C :   -0.340405
  20 C :   -0.221494
  21 C :   -0.251425
  22 C :   -0.235479
  23 H :    0.247683
  24 H :    0.186675
  25 H :    0.178349
  26 H :    0.183817
  27 Pd:    0.109411
  28 Br:   -0.479057
  29 P :   -0.137157
  30 H :    0.110603
  31 C :    0.743164
  32 O :   -0.523703
  33 O :   -0.565889
  34 O :   -0.613776
  35 H :    0.086311
  36 H :    0.118533
  37 H :    0.424061
Sum of atomic charges:   -1.0000000

LOEWDIN ATOMIC CHARGES
----------------------
   0 C :   -0.082445
   1 C :   -0.047424
   2 C :   -0.128067
   3 C :   -0.177323
   4 C :   -0.171089
   5 C :   -0.165223
   6 H :    0.401788
   7 H :    0.142698
   8 H :    0.117437
   9 H :    0.118506
  10 H :    0.116629
  11 C :   -0.201555
  12 C :   -0.210887
  13 H :    0.116076
  14 H :    0.140906
  15 C :   -0.051896
  16 H :    0.168834
  17 H :    0.114331
  18 C :   -0.027819
  19 C :   -0.139052
  20 C :   -0.155657
  21 C :   -0.144046
  22 C :   -0.164650
  23 H :    0.149535
  24 H :    0.121884
  25 H :    0.121653
  26 H :    0.120855
  27 Pd:   -0.805701
  28 Br:   -0.254804
  29 P :    0.340846
  30 H :    0.056269
  31 C :    0.182009
  32 O :   -0.344636
  33 O :   -0.326791
  34 O :   -0.340219
  35 H :    0.031728
  36 H :    0.052467
  37 H :    0.324834

  Mayer bond orders larger than 0.100000
B(  0-C ,  1-C ) :   1.4100 B(  0-C ,  2-C ) :   1.3315 B(  0-C , 27-Pd) :   0.6883
B(  1-C ,  5-C ) :   1.3124 B(  1-C , 11-C ) :   0.9310 B(  2-C ,  3-C ) :   1.4350
B(  2-C ,  7-H ) :   0.9106 B(  3-C ,  4-C ) :   1.3839 B(  3-C ,  9-H ) :   0.9282
B(  4-C ,  5-C ) :   1.4598 B(  4-C , 10-H ) :   0.9281 B(  5-C ,  8-H ) :   0.9276
B(  6-H , 28-Br) :   0.2726 B(  6-H , 33-O ) :   0.4756 B( 11-C , 12-C ) :   0.9233
B( 11-C , 13-H ) :   0.9363 B( 11-C , 14-H ) :   0.9100 B( 12-C , 15-C ) :   0.9664
B( 12-C , 16-H ) :   0.8766 B( 12-C , 17-H ) :   0.9283 B( 15-C , 18-C ) :   1.3463
B( 15-C , 21-C ) :   1.3851 B( 18-C , 19-C ) :   1.3982 B( 18-C , 27-Pd) :   0.7265
B( 19-C , 20-C ) :   1.4250 B( 19-C , 23-H ) :   0.8883 B( 20-C , 22-C ) :   1.4144
B( 20-C , 24-H ) :   0.9269 B( 21-C , 22-C ) :   1.4374 B( 21-C , 25-H ) :   0.9251
B( 22-C , 26-H ) :   0.9280 B( 27-Pd, 28-Br) :   0.3852 B( 27-Pd, 29-P ) :   0.4154
B( 29-P , 30-H ) :   0.9374 B( 29-P , 35-H ) :   0.9213 B( 29-P , 36-H ) :   0.9263
B( 31-C , 32-O ) :   1.8359 B( 31-C , 33-O ) :   1.2904 B( 31-C , 34-O ) :   1.0585
B( 34-O , 37-H ) :   0.7711

Dispersion correction           -0.031326954
FINAL SINGLE POINT ENERGY     -3847.515355129764
Dispersion correction            ... done

DIPOLE MOMENT
-------------
                                X             Y             Z
Electronic contribution:    -16.90893     -58.13958      -7.02473
Nuclear contribution   :     18.26395      58.53728       8.01983
                        -----------------------------------------
Total Dipole Moment    :      1.35502       0.39770       0.99510
                        -----------------------------------------
Magnitude (a.u.)       :      1.72756
Magnitude (Debye)      :      4.39111

Rotational constants in cm-1:     0.006733     0.006717     0.004358
Rotational constants in MHz :   201.864036   201.385469   130.650929

                             ****ORCA TERMINATED NORMALLY****
TOTAL RUN TIME: 0 days 0 hours 20 minutes 43 seconds 507 msec
