                         Program Version 5.0.3 -  RELEASE  -
|  1> ! EnGrad PBEh-3c
|  2> %output
|  3> xyzfile=True
|  4> end
|  5> %scf
|  6> maxiter 250
|  7> end
|  8> %output
|  9> Print[P_Hirshfeld] = 1
| 10> end
| 11> % maxcore
| 12> 4000
| 13> *xyz -1 1
| 14> C   -2.10503728  -0.09849582   0.63643971
| 15> C   -1.84060016   1.09174037   1.40829018
| 16> C   -3.51211282  -0.54523278   0.70939373
| 17> C   -4.56065475   0.26916570   1.22336475
| 18> C   -4.26868807   1.53087081   1.79426018
| 19> C   -2.90354201   1.89322704   1.89793027
| 20> H   -1.68804606  -1.56854304  -2.31789719
| 21> H   -3.85497677  -1.60762903   0.56657960
| 22> H   -2.54565123   2.97181042   2.06007751
| 23> H   -5.65375296  -0.01100799   1.11625866
| 24> H   -5.06064652   2.21291155   2.18819968
| 25> C   -0.40704997   1.67984952   1.68232682
| 26> C    0.71282491   0.54034010   1.91274739
| 27> H   -0.42873061   2.32102686   2.71189908
| 28> H   -0.15838748   2.40537126   0.77035882
| 29> C    1.81048565   0.58129924   0.86011654
| 30> H    0.25972056  -0.48864718   1.94898871
| 31> H    1.16389448   0.70927497   2.87949591
| 32> C    1.60927070  -0.05460111  -0.36519799
| 33> C    2.62896274   0.13324452  -1.34229391
| 34> C    3.69111008   1.03222485  -1.13400646
| 35> C    2.89154238   1.44433442   1.10101726
| 36> C    3.82130259   1.70658884   0.09994726
| 37> H    2.63935024  -0.42406542  -2.30699569
| 38> H    4.43129323   1.24005803  -1.90243989
| 39> H    2.99536722   1.86256873   2.10079881
| 40> H    4.59947113   2.45438000   0.26033820
| 41> Pd  -0.32745173  -1.22104500  -0.31136746
| 42> Br  -1.73864823  -3.42964957  -1.25789971
| 43> P    1.42976085  -2.94371047  -0.03828759
| 44> H    0.93800715  -3.51465748   1.18874630
| 45> C    0.18569880  -1.40323041  -3.78592255
| 46> O    1.16296942  -1.89113503  -4.00738120
| 47> O   -0.89195723  -1.94996013  -3.08316813
| 48> O   -0.14323317  -0.16441092  -4.21610243
| 49> H    2.83241192  -2.81286257   0.38189161
| 50> H    1.62823388  -4.15237923  -0.78174096
| 51> H    0.64958089   0.19732104  -4.67074410
| 52> *
| 53>
| 54>                          ****END OF INPUT****

CARTESIAN COORDINATES (ANGSTROEM)
---------------------------------
  C     -2.105037   -0.098496    0.636440
  C     -1.840600    1.091740    1.408290
  C     -3.512113   -0.545233    0.709394
  C     -4.560655    0.269166    1.223365
  C     -4.268688    1.530871    1.794260
  C     -2.903542    1.893227    1.897930
  H     -1.688046   -1.568543   -2.317897
  H     -3.854977   -1.607629    0.566580
  H     -2.545651    2.971810    2.060078
  H     -5.653753   -0.011008    1.116259
  H     -5.060647    2.212912    2.188200
  C     -0.407050    1.679850    1.682327
  C      0.712825    0.540340    1.912747
  H     -0.428731    2.321027    2.711899
  H     -0.158387    2.405371    0.770359
  C      1.810486    0.581299    0.860117
  H      0.259721   -0.488647    1.948989
  H      1.163894    0.709275    2.879496
  C      1.609271   -0.054601   -0.365198
  C      2.628963    0.133245   -1.342294
  C      3.691110    1.032225   -1.134006
  C      2.891542    1.444334    1.101017
  C      3.821303    1.706589    0.099947
  H      2.639350   -0.424065   -2.306996
  H      4.431293    1.240058   -1.902440
  H      2.995367    1.862569    2.100799
  H      4.599471    2.454380    0.260338
  Pd    -0.327452   -1.221045   -0.311367
  Br    -1.738648   -3.429650   -1.257900
  P      1.429761   -2.943710   -0.038288
  H      0.938007   -3.514657    1.188746
  C      0.185699   -1.403230   -3.785923
  O      1.162969   -1.891135   -4.007381
  O     -0.891957   -1.949960   -3.083168
  O     -0.143233   -0.164411   -4.216102
  H      2.832412   -2.812863    0.381892
  H      1.628234   -4.152379   -0.781741
  H      0.649581    0.197321   -4.670744

 Total Charge           Charge          ....   -1
 Multiplicity           Mult            ....    1
 Number of Electrons    NEL             ....  200
 Basis Dimension        Dim             ....  385

ORBITAL ENERGIES
----------------

  NO   OCC          E(Eh)            E(eV)
   0   2.0000    -484.319540    -13179.0047
   1   2.0000     -77.673890     -2113.6140
   2   2.0000     -62.981091     -1713.8026
   3   2.0000     -56.684649     -1542.4677
   4   2.0000     -56.683817     -1542.4451
   5   2.0000     -56.683646     -1542.4404
   6   2.0000     -19.420565      -528.4604
   7   2.0000     -19.378310      -527.3106
   8   2.0000     -19.376087      -527.2501
   9   2.0000     -10.497973      -285.6644
  10   2.0000     -10.358071      -281.8574
  11   2.0000     -10.347445      -281.5683
  12   2.0000     -10.346523      -281.5432
  13   2.0000     -10.346179      -281.5339
  14   2.0000     -10.345870      -281.5254
  15   2.0000     -10.340944      -281.3914
  16   2.0000     -10.338895      -281.3356
  17   2.0000     -10.336289      -281.2647
  18   2.0000     -10.334385      -281.2129
  19   2.0000     -10.333184      -281.1802
  20   2.0000     -10.332919      -281.1730
  21   2.0000     -10.331890      -281.1450
  22   2.0000     -10.330805      -281.1155
  23   2.0000     -10.330533      -281.1081
  24   2.0000      -8.808440      -239.6898
  25   2.0000      -6.745912      -183.5656
  26   2.0000      -6.577760      -178.9900
  27   2.0000      -6.574099      -178.8903
  28   2.0000      -6.572009      -178.8334
  29   2.0000      -4.836900      -131.6187
  30   2.0000      -4.836831      -131.6169
  31   2.0000      -4.834900      -131.5643
  32   2.0000      -3.508592       -95.4736
  33   2.0000      -2.591987       -70.5316
  34   2.0000      -2.591409       -70.5158
  35   2.0000      -2.589695       -70.4692
  36   2.0000      -2.586469       -70.3814
  37   2.0000      -2.586227       -70.3748
  38   2.0000      -2.151799       -58.5534
  39   2.0000      -2.149205       -58.4828
  40   2.0000      -2.125914       -57.8491
  41   2.0000      -1.148742       -31.2589
  42   2.0000      -1.038230       -28.2517
  43   2.0000      -0.965458       -26.2714
  44   2.0000      -0.839776       -22.8515
  45   2.0000      -0.806511       -21.9463
  46   2.0000      -0.758709       -20.6455
  47   2.0000      -0.718318       -19.5464
  48   2.0000      -0.714898       -19.4534
  49   2.0000      -0.680926       -18.5289
  50   2.0000      -0.661460       -17.9992
  51   2.0000      -0.642429       -17.4814
  52   2.0000      -0.627380       -17.0719
  53   2.0000      -0.589547       -16.0424
  54   2.0000      -0.578815       -15.7503
  55   2.0000      -0.564320       -15.3559
  56   2.0000      -0.538470       -14.6525
  57   2.0000      -0.529408       -14.4059
  58   2.0000      -0.500198       -13.6111
  59   2.0000      -0.499100       -13.5812
  60   2.0000      -0.456390       -12.4190
  61   2.0000      -0.450850       -12.2682
  62   2.0000      -0.432302       -11.7635
  63   2.0000      -0.428000       -11.6465
  64   2.0000      -0.413409       -11.2494
  65   2.0000      -0.398837       -10.8529
  66   2.0000      -0.381396       -10.3783
  67   2.0000      -0.380198       -10.3457
  68   2.0000      -0.370312       -10.0767
  69   2.0000      -0.359973        -9.7954
  70   2.0000      -0.357851        -9.7376
  71   2.0000      -0.353487        -9.6189
  72   2.0000      -0.345801        -9.4097
  73   2.0000      -0.335233        -9.1221
  74   2.0000      -0.324866        -8.8400
  75   2.0000      -0.320454        -8.7200
  76   2.0000      -0.314777        -8.5655
  77   2.0000      -0.295096        -8.0300
  78   2.0000      -0.284412        -7.7392
  79   2.0000      -0.283215        -7.7067
  80   2.0000      -0.279701        -7.6111
  81   2.0000      -0.274562        -7.4712
  82   2.0000      -0.271674        -7.3926
  83   2.0000      -0.268543        -7.3074
  84   2.0000      -0.257668        -7.0115
  85   2.0000      -0.255580        -6.9547
  86   2.0000      -0.242978        -6.6118
  87   2.0000      -0.232347        -6.3225
  88   2.0000      -0.224126        -6.0988
  89   2.0000      -0.212114        -5.7719
  90   2.0000      -0.204572        -5.5667
  91   2.0000      -0.184571        -5.0224
  92   2.0000      -0.175310        -4.7704
  93   2.0000      -0.165051        -4.4913
  94   2.0000      -0.158909        -4.3241
  95   2.0000      -0.148785        -4.0486
  96   2.0000      -0.146404        -3.9839
  97   2.0000      -0.144077        -3.9205
  98   2.0000      -0.123637        -3.3643
  99   2.0000      -0.114012        -3.1024
 100   0.0000       0.050994         1.3876
 101   0.0000       0.114822         3.1245
 102   0.0000       0.123686         3.3657
 103   0.0000       0.133021         3.6197
 104   0.0000       0.137034         3.7289

MULLIKEN ATOMIC CHARGES
-----------------------
   0 C :   -0.147075
   1 C :    0.086208
   2 C :   -0.298584
   3 C :   -0.222727
   4 C :   -0.241176
   5 C :   -0.256483
   6 H :    0.451343
   7 H :    0.223129
   8 H :    0.171076
   9 H :    0.175060
  10 H :    0.174779
  11 C :   -0.447151
  12 C :   -0.504238
  13 H :    0.167633
  14 H :    0.224950
  15 C :    0.104746
  16 H :    0.271574
  17 H :    0.202620
  18 C :   -0.122703
  19 C :   -0.347176
  20 C :   -0.215886
  21 C :   -0.249434
  22 C :   -0.242720
  23 H :    0.219652
  24 H :    0.186446
  25 H :    0.182137
  26 H :    0.183203
  27 Pd:    0.102008
  28 Br:   -0.528600
  29 P :   -0.136873
  30 H :    0.115967
  31 C :    0.698622
  32 O :   -0.360908
  33 O :   -0.637509
  34 O :   -0.593241
  35 H :    0.083690
  36 H :    0.114038
  37 H :    0.413605
Sum of atomic charges:   -1.0000000

LOEWDIN ATOMIC CHARGES
----------------------
   0 C :   -0.075590
   1 C :   -0.054951
   2 C :   -0.136326
   3 C :   -0.169644
   4 C :   -0.175374
   5 C :   -0.162508
   6 H :    0.389835
   7 H :    0.145793
   8 H :    0.118145
   9 H :    0.116569
  10 H :    0.116277
  11 C :   -0.196855
  12 C :   -0.211809
  13 H :    0.110381
  14 H :    0.142551
  15 C :   -0.049084
  16 H :    0.171260
  17 H :    0.115732
  18 C :   -0.042644
  19 C :   -0.142674
  20 C :   -0.160352
  21 C :   -0.146725
  22 C :   -0.163236
  23 H :    0.138581
  24 H :    0.121569
  25 H :    0.122165
  26 H :    0.119614
  27 Pd:   -0.803033
  28 Br:   -0.309942
  29 P :    0.341823
  30 H :    0.061778
  31 C :    0.116536
  32 O :   -0.153264
  33 O :   -0.378173
  34 O :   -0.316084
  35 H :    0.030258
  36 H :    0.049701
  37 H :    0.319699

  Mayer bond orders larger than 0.100000
B(  0-C ,  1-C ) :   1.3733 B(  0-C ,  2-C ) :   1.3654 B(  0-C , 27-Pd) :   0.6796
B(  1-C ,  5-C ) :   1.3654 B(  1-C , 11-C ) :   0.9237 B(  2-C ,  3-C ) :   1.4130
B(  2-C ,  7-H ) :   0.9111 B(  3-C ,  4-C ) :   1.4026 B(  3-C ,  9-H ) :   0.9283
B(  4-C ,  5-C ) :   1.4260 B(  4-C , 10-H ) :   0.9304 B(  5-C ,  8-H ) :   0.9268
B(  6-H , 28-Br) :   0.1537 B(  6-H , 33-O ) :   0.5774 B( 11-C , 12-C ) :   0.9216
B( 11-C , 13-H ) :   0.9408 B( 11-C , 14-H ) :   0.9071 B( 12-C , 15-C ) :   0.9607
B( 12-C , 16-H ) :   0.8756 B( 12-C , 17-H ) :   0.9248 B( 15-C , 18-C ) :   1.3528
B( 15-C , 21-C ) :   1.3834 B( 18-C , 19-C ) :   1.3980 B( 18-C , 27-Pd) :   0.6965
B( 19-C , 20-C ) :   1.4295 B( 19-C , 23-H ) :   0.9047 B( 20-C , 22-C ) :   1.4106
B( 20-C , 24-H ) :   0.9264 B( 21-C , 22-C ) :   1.4463 B( 21-C , 25-H ) :   0.9250
B( 22-C , 26-H ) :   0.9280 B( 27-Pd, 28-Br) :   0.4442 B( 27-Pd, 29-P ) :   0.4195
B( 29-P , 30-H ) :   0.9372 B( 29-P , 35-H ) :   0.9198 B( 29-P , 36-H ) :   0.9254
B( 31-C , 32-O ) :   2.0639 B( 31-C , 33-O ) :   1.1037 B( 31-C , 34-O ) :   1.0825
B( 34-O , 37-H ) :   0.7787

Dispersion correction           -0.030916115
FINAL SINGLE POINT ENERGY     -3847.508527330756
Dispersion correction            ... done

DIPOLE MOMENT
-------------
                                X             Y             Z
Electronic contribution:    -17.34138     -58.99875      -7.58862
Nuclear contribution   :     19.32654      59.59715       8.03185
                        -----------------------------------------
Total Dipole Moment    :      1.98517       0.59840       0.44323
                        -----------------------------------------
Magnitude (a.u.)       :      2.12024
Magnitude (Debye)      :      5.38923

Rotational constants in cm-1:     0.006734     0.006653     0.004294
Rotational constants in MHz :   201.868181   199.441040   128.735827

                             ****ORCA TERMINATED NORMALLY****
TOTAL RUN TIME: 0 days 0 hours 11 minutes 56 seconds 535 msec
