                         Program Version 5.0.3 -  RELEASE  -
|  1> ! EnGrad PBEh-3c
|  2> %output
|  3> xyzfile=True
|  4> end
|  5> %scf
|  6> maxiter 250
|  7> end
|  8> %output
|  9> Print[P_Hirshfeld] = 1
| 10> end
| 11> % maxcore
| 12> 4000
| 13> *xyz -1 1
| 14> Pt  -0.70087638  -0.72970467   0.41034702
| 15> Cl  -0.08787186  -0.22574370   2.60786066
| 16> Cl  -2.58899707  -1.95644263   1.11597430
| 17> Cl  -1.22179335  -1.22788574  -1.81793872
| 18> C    0.77371276   0.96096674  -0.49175335
| 19> H    1.39089345   1.53644520   0.19758760
| 20> H    1.17702376  -0.69395440   0.15305193
| 21> H    1.33851653   0.75464033  -1.40032699
| 22> H   -0.08060783   1.58167635  -0.77478749
| 23> *
| 24>
| 25>                          ****END OF INPUT****

CARTESIAN COORDINATES (ANGSTROEM)
---------------------------------
  Pt    -0.700876   -0.729705    0.410347
  Cl    -0.087872   -0.225744    2.607861
  Cl    -2.588997   -1.956443    1.115974
  Cl    -1.221793   -1.227886   -1.817939
  C      0.773713    0.960967   -0.491753
  H      1.390893    1.536445    0.197588
  H      1.177024   -0.693954    0.153052
  H      1.338517    0.754640   -1.400327
  H     -0.080608    1.581676   -0.774787

 Total Charge           Charge          ....   -1
 Multiplicity           Mult            ....    1
 Number of Electrons    NEL             ....   80
 Basis Dimension        Dim             ....  109

ORBITAL ENERGIES
----------------

  NO   OCC          E(Eh)            E(eV)
   0   2.0000    -102.091741     -2778.0575
   1   2.0000    -102.091402     -2778.0483
   2   2.0000    -102.090359     -2778.0199
   3   2.0000     -10.356576      -281.8167
   4   2.0000      -9.555754      -260.0253
   5   2.0000      -9.554971      -260.0040
   6   2.0000      -9.554222      -259.9836
   7   2.0000      -7.241980      -197.0643
   8   2.0000      -7.241323      -197.0464
   9   2.0000      -7.240400      -197.0213
  10   2.0000      -7.236667      -196.9197
  11   2.0000      -7.236321      -196.9103
  12   2.0000      -7.236009      -196.9018
  13   2.0000      -7.235260      -196.8814
  14   2.0000      -7.235195      -196.8797
  15   2.0000      -7.234842      -196.8701
  16   2.0000      -3.972782      -108.1049
  17   2.0000      -2.183140       -59.4063
  18   2.0000      -2.179435       -59.3054
  19   2.0000      -2.153007       -58.5863
  20   2.0000      -0.694667       -18.9029
  21   2.0000      -0.678169       -18.4539
  22   2.0000      -0.676444       -18.4070
  23   2.0000      -0.654490       -17.8096
  24   2.0000      -0.360304        -9.8044
  25   2.0000      -0.351453        -9.5635
  26   2.0000      -0.319762        -8.7012
  27   2.0000      -0.290989        -7.9182
  28   2.0000      -0.268397        -7.3035
  29   2.0000      -0.244580        -6.6554
  30   2.0000      -0.235766        -6.4155
  31   2.0000      -0.218992        -5.9591
  32   2.0000      -0.199270        -5.4224
  33   2.0000      -0.185325        -5.0430
  34   2.0000      -0.175400        -4.7729
  35   2.0000      -0.159798        -4.3483
  36   2.0000      -0.148790        -4.0488
  37   2.0000      -0.146911        -3.9976
  38   2.0000      -0.137315        -3.7365
  39   2.0000      -0.128632        -3.5002
  40   0.0000       0.091118         2.4795
  41   0.0000       0.095910         2.6098
  42   0.0000       0.207989         5.6597
  43   0.0000       0.240972         6.5572
  44   0.0000       0.266728         7.2580

MULLIKEN ATOMIC CHARGES
-----------------------
   0 Pt:    0.091172
   1 Cl:   -0.409940
   2 Cl:   -0.376907
   3 Cl:   -0.418988
   4 C :   -0.823978
   5 H :    0.242396
   6 H :    0.180014
   7 H :    0.243927
   8 H :    0.272305
Sum of atomic charges:   -1.0000000

LOEWDIN ATOMIC CHARGES
----------------------
   0 Pt:   -0.892934
   1 Cl:   -0.129672
   2 Cl:   -0.116058
   3 Cl:   -0.135947
   4 C :   -0.402680
   5 H :    0.138520
   6 H :    0.226678
   7 H :    0.138521
   8 H :    0.173571

  Mayer bond orders larger than 0.100000
B(  0-Pt,  1-Cl) :   0.7979 B(  0-Pt,  2-Cl) :   0.8180 B(  0-Pt,  3-Cl) :   0.7786
B(  0-Pt,  4-C ) :   0.5282 B(  0-Pt,  6-H ) :   0.5063 B(  1-Cl,  3-Cl) :   0.1286
B(  4-C ,  5-H ) :   0.8960 B(  4-C ,  6-H ) :   0.3781 B(  4-C ,  7-H ) :   0.9001
B(  4-C ,  8-H ) :   0.8895

Dispersion correction           -0.005261688
FINAL SINGLE POINT ENERGY     -1538.983300055867
Dispersion correction            ... done

DIPOLE MOMENT
-------------
                                X             Y             Z
Electronic contribution:     11.24713       1.65232      -0.95584
Nuclear contribution   :     -9.98072      -0.61608       0.38950
                        -----------------------------------------
Total Dipole Moment    :      1.26641       1.03623      -0.56633
                        -----------------------------------------
Magnitude (a.u.)       :      1.73157
Magnitude (Debye)      :      4.40129

Rotational constants in cm-1:     0.058150     0.042495     0.025054
Rotational constants in MHz :  1743.281246  1273.972131   751.106705

                             ****ORCA TERMINATED NORMALLY****
TOTAL RUN TIME: 0 days 0 hours 0 minutes 37 seconds 736 msec
