                         Program Version 5.0.3 -  RELEASE  -
|  1> ! EnGrad PBEh-3c
|  2> %output
|  3> xyzfile=True
|  4> end
|  5> %scf
|  6> maxiter 250
|  7> end
|  8> %output
|  9> Print[P_Hirshfeld] = 1
| 10> end
| 11> % maxcore
| 12> 4000
| 13> *xyz -1 1
| 14> Pt  -0.55778046  -0.73107626   0.38901606
| 15> Cl  -0.11971736  -0.25954137   2.61935490
| 16> Cl  -2.56381076  -1.96249076   1.11084110
| 17> Cl  -1.26318461  -1.20676252  -1.79395254
| 18> C    0.79525474   0.91587935  -0.48235987
| 19> H    1.39207659   1.54791923   0.18882061
| 20> H    1.02105881  -0.56578319   0.15945329
| 21> H    1.36937680   0.73206052  -1.39463943
| 22> H   -0.07397290   1.53036346  -0.79538736
| 23> *
| 24>
| 25>                          ****END OF INPUT****

CARTESIAN COORDINATES (ANGSTROEM)
---------------------------------
  Pt    -0.557780   -0.731076    0.389016
  Cl    -0.119717   -0.259541    2.619355
  Cl    -2.563811   -1.962491    1.110841
  Cl    -1.263185   -1.206763   -1.793953
  C      0.795255    0.915879   -0.482360
  H      1.392077    1.547919    0.188821
  H      1.021059   -0.565783    0.159453
  H      1.369377    0.732061   -1.394639
  H     -0.073973    1.530363   -0.795387

 Total Charge           Charge          ....   -1
 Multiplicity           Mult            ....    1
 Number of Electrons    NEL             ....   80
 Basis Dimension        Dim             ....  109

ORBITAL ENERGIES
----------------

  NO   OCC          E(Eh)            E(eV)
   0   2.0000    -102.095092     -2778.1487
   1   2.0000    -102.091423     -2778.0488
   2   2.0000    -102.080151     -2777.7421
   3   2.0000     -10.360662      -281.9279
   4   2.0000      -9.559220      -260.1196
   5   2.0000      -9.555376      -260.0150
   6   2.0000      -9.543192      -259.6834
   7   2.0000      -7.245498      -197.1600
   8   2.0000      -7.241606      -197.0541
   9   2.0000      -7.240067      -197.0122
  10   2.0000      -7.239745      -197.0035
  11   2.0000      -7.236323      -196.9104
  12   2.0000      -7.235898      -196.8988
  13   2.0000      -7.229417      -196.7224
  14   2.0000      -7.224354      -196.5847
  15   2.0000      -7.223658      -196.5657
  16   2.0000      -3.979305      -108.2824
  17   2.0000      -2.193177       -59.6794
  18   2.0000      -2.185222       -59.4629
  19   2.0000      -2.159371       -58.7595
  20   2.0000      -0.696724       -18.9588
  21   2.0000      -0.680146       -18.5077
  22   2.0000      -0.665840       -18.1184
  23   2.0000      -0.661318       -17.9954
  24   2.0000      -0.386364       -10.5135
  25   2.0000      -0.357050        -9.7158
  26   2.0000      -0.344377        -9.3710
  27   2.0000      -0.296689        -8.0733
  28   2.0000      -0.271053        -7.3757
  29   2.0000      -0.248310        -6.7569
  30   2.0000      -0.233811        -6.3623
  31   2.0000      -0.219153        -5.9635
  32   2.0000      -0.198463        -5.4005
  33   2.0000      -0.184700        -5.0259
  34   2.0000      -0.179640        -4.8883
  35   2.0000      -0.161580        -4.3968
  36   2.0000      -0.149410        -4.0656
  37   2.0000      -0.146752        -3.9933
  38   2.0000      -0.137449        -3.7402
  39   2.0000      -0.131248        -3.5714
  40   0.0000       0.090486         2.4622
  41   0.0000       0.131153         3.5689
  42   0.0000       0.210127         5.7178
  43   0.0000       0.247207         6.7268
  44   0.0000       0.260596         7.0912

MULLIKEN ATOMIC CHARGES
-----------------------
   0 Pt:    0.103781
   1 Cl:   -0.397941
   2 Cl:   -0.385921
   3 Cl:   -0.417714
   4 C :   -0.857074
   5 H :    0.246499
   6 H :    0.182730
   7 H :    0.251250
   8 H :    0.274389
Sum of atomic charges:   -1.0000000

LOEWDIN ATOMIC CHARGES
----------------------
   0 Pt:   -0.845635
   1 Cl:   -0.113014
   2 Cl:   -0.182337
   3 Cl:   -0.133627
   4 C :   -0.394662
   5 H :    0.142350
   6 H :    0.205714
   7 H :    0.143299
   8 H :    0.177913

  Mayer bond orders larger than 0.100000
B(  0-Pt,  1-Cl) :   0.8082 B(  0-Pt,  2-Cl) :   0.7792 B(  0-Pt,  3-Cl) :   0.7731
B(  0-Pt,  4-C ) :   0.5550 B(  0-Pt,  6-H ) :   0.5413 B(  1-Cl,  3-Cl) :   0.1312
B(  2-Cl,  4-C ) :   0.1032 B(  4-C ,  5-H ) :   0.8921 B(  4-C ,  6-H ) :   0.3393
B(  4-C ,  7-H ) :   0.8941 B(  4-C ,  8-H ) :   0.8880

Dispersion correction           -0.005140688
FINAL SINGLE POINT ENERGY     -1539.009395139491
Dispersion correction            ... done

DIPOLE MOMENT
-------------
                                X             Y             Z
Electronic contribution:     20.54665       2.14632      -2.74810
Nuclear contribution   :    -19.02608      -0.98976       2.11870
                        -----------------------------------------
Total Dipole Moment    :      1.52057       1.15656      -0.62939
                        -----------------------------------------
Magnitude (a.u.)       :      2.01144
Magnitude (Debye)      :      5.11268

Rotational constants in cm-1:     0.057518     0.042809     0.025076
Rotational constants in MHz :  1724.342024  1283.388831   751.756770

                             ****ORCA TERMINATED NORMALLY****
TOTAL RUN TIME: 0 days 0 hours 0 minutes 37 seconds 148 msec
