                         Program Version 5.0.3 -  RELEASE  -
|  1> ! EnGrad PBEh-3c
|  2> %output
|  3> xyzfile=True
|  4> end
|  5> %scf
|  6> maxiter 250
|  7> end
|  8> %output
|  9> Print[P_Hirshfeld] = 1
| 10> end
| 11> % maxcore
| 12> 4000
| 13> *xyz -1 1
| 14> Pt  -0.64336446  -0.73025593   0.40177386
| 15> Cl  -0.10067094  -0.23932737   2.61248033
| 16> Cl  -2.57887440  -1.95887345   1.11391121
| 17> Cl  -1.23842898  -1.21939607  -1.80829839
| 18> C    0.78237074   0.94284559  -0.48797800
| 19> H    1.39136897   1.54105675   0.19406405
| 20> H    1.11433963  -0.64244090   0.15562471
| 21> H    1.35091963   0.74556524  -1.39804110
| 22> H   -0.07794117   1.56105310  -0.78306682
| 23> *
| 24>
| 25>                          ****END OF INPUT****

CARTESIAN COORDINATES (ANGSTROEM)
---------------------------------
  Pt    -0.643364   -0.730256    0.401774
  Cl    -0.100671   -0.239327    2.612480
  Cl    -2.578874   -1.958873    1.113911
  Cl    -1.238429   -1.219396   -1.808298
  C      0.782371    0.942846   -0.487978
  H      1.391369    1.541057    0.194064
  H      1.114340   -0.642441    0.155625
  H      1.350920    0.745565   -1.398041
  H     -0.077941    1.561053   -0.783067

 Total Charge           Charge          ....   -1
 Multiplicity           Mult            ....    1
 Number of Electrons    NEL             ....   80
 Basis Dimension        Dim             ....  109

ORBITAL ENERGIES
----------------

  NO   OCC          E(Eh)            E(eV)
   0   2.0000    -102.093074     -2778.0938
   1   2.0000    -102.090760     -2778.0308
   2   2.0000    -102.087094     -2777.9310
   3   2.0000     -10.358219      -281.8615
   4   2.0000      -9.557154      -260.0634
   5   2.0000      -9.554681      -259.9961
   6   2.0000      -9.550403      -259.8797
   7   2.0000      -7.243396      -197.1028
   8   2.0000      -7.240877      -197.0343
   9   2.0000      -7.238040      -196.9571
  10   2.0000      -7.237708      -196.9480
  11   2.0000      -7.236708      -196.9208
  12   2.0000      -7.235646      -196.8919
  13   2.0000      -7.235261      -196.8814
  14   2.0000      -7.231494      -196.7789
  15   2.0000      -7.230767      -196.7592
  16   2.0000      -3.975403      -108.1762
  17   2.0000      -2.186585       -59.5000
  18   2.0000      -2.181802       -59.3699
  19   2.0000      -2.155579       -58.6563
  20   2.0000      -0.695360       -18.9217
  21   2.0000      -0.678848       -18.4724
  22   2.0000      -0.671912       -18.2836
  23   2.0000      -0.657556       -17.8930
  24   2.0000      -0.366410        -9.9705
  25   2.0000      -0.353571        -9.6211
  26   2.0000      -0.331344        -9.0163
  27   2.0000      -0.293678        -7.9914
  28   2.0000      -0.269045        -7.3211
  29   2.0000      -0.246041        -6.6951
  30   2.0000      -0.234552        -6.3825
  31   2.0000      -0.218997        -5.9592
  32   2.0000      -0.199067        -5.4169
  33   2.0000      -0.185279        -5.0417
  34   2.0000      -0.177307        -4.8248
  35   2.0000      -0.161216        -4.3869
  36   2.0000      -0.148437        -4.0392
  37   2.0000      -0.146446        -3.9850
  38   2.0000      -0.139308        -3.7908
  39   2.0000      -0.129543        -3.5250
  40   0.0000       0.094295         2.5659
  41   0.0000       0.107715         2.9311
  42   0.0000       0.209039         5.6882
  43   0.0000       0.242899         6.6096
  44   0.0000       0.264188         7.1889

MULLIKEN ATOMIC CHARGES
-----------------------
   0 Pt:    0.094093
   1 Cl:   -0.404235
   2 Cl:   -0.380358
   3 Cl:   -0.417854
   4 C :   -0.837619
   5 H :    0.244342
   6 H :    0.181215
   7 H :    0.247081
   8 H :    0.273335
Sum of atomic charges:   -1.0000000

LOEWDIN ATOMIC CHARGES
----------------------
   0 Pt:   -0.876519
   1 Cl:   -0.122055
   2 Cl:   -0.142904
   3 Cl:   -0.133938
   4 C :   -0.401087
   5 H :    0.140025
   6 H :    0.220704
   7 H :    0.140345
   8 H :    0.175430

  Mayer bond orders larger than 0.100000
B(  0-Pt,  1-Cl) :   0.8039 B(  0-Pt,  2-Cl) :   0.8007 B(  0-Pt,  3-Cl) :   0.7780
B(  0-Pt,  4-C ) :   0.5392 B(  0-Pt,  6-H ) :   0.5209 B(  1-Cl,  3-Cl) :   0.1299
B(  2-Cl,  4-C ) :   0.1019 B(  4-C ,  5-H ) :   0.8943 B(  4-C ,  6-H ) :   0.3619
B(  4-C ,  7-H ) :   0.8975 B(  4-C ,  8-H ) :   0.8889

Dispersion correction           -0.005148149
FINAL SINGLE POINT ENERGY     -1538.997677982651
Dispersion correction            ... done

DIPOLE MOMENT
-------------
                                X             Y             Z
Electronic contribution:     14.98174       1.85060      -1.67521
Nuclear contribution   :    -13.61615      -0.76627       1.08449
                        -----------------------------------------
Total Dipole Moment    :      1.36558       1.08433      -0.59072
                        -----------------------------------------
Magnitude (a.u.)       :      1.84107
Magnitude (Debye)      :      4.67963

Rotational constants in cm-1:     0.057993     0.042640     0.025076
Rotational constants in MHz :  1738.591901  1278.308086   751.765915

                             ****ORCA TERMINATED NORMALLY****
TOTAL RUN TIME: 0 days 0 hours 0 minutes 36 seconds 227 msec
