                         Program Version 5.0.3 -  RELEASE  -
|  1> ! EnGrad PBEh-3c
|  2> %output
|  3> xyzfile=True
|  4> end
|  5> %scf
|  6> maxiter 250
|  7> end
|  8> %output
|  9> Print[P_Hirshfeld] = 1
| 10> end
| 11> % maxcore
| 12> 4000
| 13> *xyz -1 1
| 14> Pt  -0.51755969  -0.73536915   0.38530454
| 15> Cl  -0.13434962  -0.28277707   2.62835724
| 16> Cl  -2.53557727  -1.96434026   1.10424667
| 17> Cl  -1.28645546  -1.19222092  -1.78087844
| 18> C    0.80502912   0.89620711  -0.47790051
| 19> H    1.39208604   1.55419230   0.18024513
| 20> H    0.94505434  -0.48432540   0.15931323
| 21> H    1.39184637   0.71622745  -1.38919352
| 22> H   -0.06110256   1.49216433  -0.80836335
| 23> *
| 24>
| 25>                          ****END OF INPUT****

CARTESIAN COORDINATES (ANGSTROEM)
---------------------------------
  Pt    -0.517560   -0.735369    0.385305
  Cl    -0.134350   -0.282777    2.628357
  Cl    -2.535577   -1.964340    1.104247
  Cl    -1.286455   -1.192221   -1.780878
  C      0.805029    0.896207   -0.477901
  H      1.392086    1.554192    0.180245
  H      0.945054   -0.484325    0.159313
  H      1.391846    0.716227   -1.389194
  H     -0.061103    1.492164   -0.808363

 Total Charge           Charge          ....   -1
 Multiplicity           Mult            ....    1
 Number of Electrons    NEL             ....   80
 Basis Dimension        Dim             ....  109

ORBITAL ENERGIES
----------------

  NO   OCC          E(Eh)            E(eV)
   0   2.0000    -102.094755     -2778.1395
   1   2.0000    -102.090979     -2778.0368
   2   2.0000    -102.077429     -2777.6681
   3   2.0000     -10.361339      -281.9464
   4   2.0000      -9.558887      -260.1105
   5   2.0000      -9.554955      -260.0035
   6   2.0000      -9.540546      -259.6114
   7   2.0000      -7.245178      -197.1513
   8   2.0000      -7.241198      -197.0430
   9   2.0000      -7.239718      -197.0027
  10   2.0000      -7.239405      -196.9942
  11   2.0000      -7.235885      -196.8984
  12   2.0000      -7.235464      -196.8870
  13   2.0000      -7.226782      -196.6507
  14   2.0000      -7.221686      -196.5121
  15   2.0000      -7.221011      -196.4937
  16   2.0000      -3.978397      -108.2577
  17   2.0000      -2.195909       -59.7537
  18   2.0000      -2.184382       -59.4401
  19   2.0000      -2.157888       -58.7191
  20   2.0000      -0.697169       -18.9709
  21   2.0000      -0.680134       -18.5074
  22   2.0000      -0.670786       -18.2530
  23   2.0000      -0.660591       -17.9756
  24   2.0000      -0.408402       -11.1132
  25   2.0000      -0.359352        -9.7785
  26   2.0000      -0.351730        -9.5711
  27   2.0000      -0.296631        -8.0717
  28   2.0000      -0.272385        -7.4120
  29   2.0000      -0.247675        -6.7396
  30   2.0000      -0.233397        -6.3511
  31   2.0000      -0.219730        -5.9791
  32   2.0000      -0.197308        -5.3690
  33   2.0000      -0.183575        -4.9953
  34   2.0000      -0.178017        -4.8441
  35   2.0000      -0.161349        -4.3905
  36   2.0000      -0.150291        -4.0896
  37   2.0000      -0.146549        -3.9878
  38   2.0000      -0.134564        -3.6617
  39   2.0000      -0.130438        -3.5494
  40   0.0000       0.089328         2.4307
  41   0.0000       0.148547         4.0422
  42   0.0000       0.211063         5.7433
  43   0.0000       0.252230         6.8635
  44   0.0000       0.262054         7.1308

MULLIKEN ATOMIC CHARGES
-----------------------
   0 Pt:    0.099681
   1 Cl:   -0.398171
   2 Cl:   -0.382140
   3 Cl:   -0.419869
   4 C :   -0.871549
   5 H :    0.248131
   6 H :    0.190756
   7 H :    0.252592
   8 H :    0.280569
Sum of atomic charges:   -1.0000000

LOEWDIN ATOMIC CHARGES
----------------------
   0 Pt:   -0.839675
   1 Cl:   -0.112105
   2 Cl:   -0.188672
   3 Cl:   -0.135083
   4 C :   -0.388898
   5 H :    0.143782
   6 H :    0.195095
   7 H :    0.145231
   8 H :    0.180325

  Mayer bond orders larger than 0.100000
B(  0-Pt,  1-Cl) :   0.8065 B(  0-Pt,  2-Cl) :   0.7830 B(  0-Pt,  3-Cl) :   0.7677
B(  0-Pt,  4-C ) :   0.5410 B(  0-Pt,  6-H ) :   0.5273 B(  1-Cl,  3-Cl) :   0.1306
B(  2-Cl,  4-C ) :   0.1014 B(  4-C ,  5-H ) :   0.8914 B(  4-C ,  6-H ) :   0.3504
B(  4-C ,  7-H ) :   0.8937 B(  4-C ,  8-H ) :   0.8842

Dispersion correction           -0.005157855
FINAL SINGLE POINT ENERGY     -1539.008801443572
Dispersion correction            ... done

DIPOLE MOMENT
-------------
                                X             Y             Z
Electronic contribution:     23.08030       2.16243      -3.23139
Nuclear contribution   :    -21.49894      -0.96917       2.57458
                        -----------------------------------------
Total Dipole Moment    :      1.58136       1.19326      -0.65681
                        -----------------------------------------
Magnitude (a.u.)       :      2.08710
Magnitude (Debye)      :      5.30498

Rotational constants in cm-1:     0.057884     0.042962     0.025202
Rotational constants in MHz :  1735.332829  1287.965833   755.533147

                             ****ORCA TERMINATED NORMALLY****
TOTAL RUN TIME: 0 days 0 hours 0 minutes 33 seconds 793 msec
