                         Program Version 5.0.3 -  RELEASE  -
|  1> ! EnGrad PBEh-3c
|  2> %output
|  3> xyzfile=True
|  4> end
|  5> %scf
|  6> maxiter 250
|  7> end
|  8> %output
|  9> Print[P_Hirshfeld] = 1
| 10> end
| 11> % maxcore
| 12> 4000
| 13> *xyz -1 1
| 14> Pt  -0.58566908  -0.73260091   0.39422086
| 15> Cl  -0.11611633  -0.25925386   2.61976164
| 16> Cl  -2.55901789  -1.96138058   1.10947895
| 17> Cl  -1.26045443  -1.20693326  -1.79572332
| 18> C    0.79276211   0.92145670  -0.48335636
| 19> H    1.39169782   1.54708085   0.18772655
| 20> H    1.03670363  -0.56992749   0.15731630
| 21> H    1.36968906   0.73211062  -1.39398351
| 22> H   -0.07021881   1.52945999  -0.79466807
| 23> *
| 24>
| 25>                          ****END OF INPUT****

CARTESIAN COORDINATES (ANGSTROEM)
---------------------------------
  Pt    -0.585669   -0.732601    0.394221
  Cl    -0.116116   -0.259254    2.619762
  Cl    -2.559018   -1.961381    1.109479
  Cl    -1.260454   -1.206933   -1.795723
  C      0.792762    0.921457   -0.483356
  H      1.391698    1.547081    0.187727
  H      1.036704   -0.569927    0.157316
  H      1.369689    0.732111   -1.393984
  H     -0.070219    1.529460   -0.794668

 Total Charge           Charge          ....   -1
 Multiplicity           Mult            ....    1
 Number of Electrons    NEL             ....   80
 Basis Dimension        Dim             ....  109

ORBITAL ENERGIES
----------------

  NO   OCC          E(Eh)            E(eV)
   0   2.0000    -102.093856     -2778.1151
   1   2.0000    -102.090835     -2778.0329
   2   2.0000    -102.082847     -2777.8155
   3   2.0000     -10.359583      -281.8986
   4   2.0000      -9.557975      -260.0857
   5   2.0000      -9.554806      -259.9995
   6   2.0000      -9.546047      -259.7611
   7   2.0000      -7.244232      -197.1256
   8   2.0000      -7.241019      -197.0382
   9   2.0000      -7.238836      -196.9787
  10   2.0000      -7.238521      -196.9702
  11   2.0000      -7.235759      -196.8950
  12   2.0000      -7.235349      -196.8839
  13   2.0000      -7.232323      -196.8015
  14   2.0000      -7.227162      -196.6611
  15   2.0000      -7.226459      -196.6419
  16   2.0000      -3.976842      -108.2154
  17   2.0000      -2.190154       -59.5971
  18   2.0000      -2.183102       -59.4052
  19   2.0000      -2.156768       -58.6886
  20   2.0000      -0.696182       -18.9441
  21   2.0000      -0.679418       -18.4879
  22   2.0000      -0.667927       -18.1752
  23   2.0000      -0.662075       -18.0160
  24   2.0000      -0.381337       -10.3767
  25   2.0000      -0.356005        -9.6874
  26   2.0000      -0.342974        -9.3328
  27   2.0000      -0.295442        -8.0394
  28   2.0000      -0.270361        -7.3569
  29   2.0000      -0.246931        -6.7193
  30   2.0000      -0.233299        -6.3484
  31   2.0000      -0.220094        -5.9891
  32   2.0000      -0.198419        -5.3993
  33   2.0000      -0.184369        -5.0169
  34   2.0000      -0.178055        -4.8451
  35   2.0000      -0.161855        -4.4043
  36   2.0000      -0.149008        -4.0547
  37   2.0000      -0.146174        -3.9776
  38   2.0000      -0.138319        -3.7639
  39   2.0000      -0.129943        -3.5359
  40   0.0000       0.092683         2.5220
  41   0.0000       0.128209         3.4887
  42   0.0000       0.210162         5.7188
  43   0.0000       0.247150         6.7253
  44   0.0000       0.261658         7.1201

MULLIKEN ATOMIC CHARGES
-----------------------
   0 Pt:    0.095353
   1 Cl:   -0.400625
   2 Cl:   -0.380585
   3 Cl:   -0.418622
   4 C :   -0.853987
   5 H :    0.246480
   6 H :    0.185203
   7 H :    0.249912
   8 H :    0.276872
Sum of atomic charges:   -1.0000000

LOEWDIN ATOMIC CHARGES
----------------------
   0 Pt:   -0.861185
   1 Cl:   -0.116630
   2 Cl:   -0.163930
   3 Cl:   -0.133564
   4 C :   -0.397497
   5 H :    0.141710
   6 H :    0.210834
   7 H :    0.142473
   8 H :    0.177790

  Mayer bond orders larger than 0.100000
B(  0-Pt,  1-Cl) :   0.8069 B(  0-Pt,  2-Cl) :   0.7912 B(  0-Pt,  3-Cl) :   0.7743
B(  0-Pt,  4-C ) :   0.5410 B(  0-Pt,  6-H ) :   0.5253 B(  1-Cl,  3-Cl) :   0.1304
B(  2-Cl,  4-C ) :   0.1023 B(  4-C ,  5-H ) :   0.8927 B(  4-C ,  6-H ) :   0.3551
B(  4-C ,  7-H ) :   0.8955 B(  4-C ,  8-H ) :   0.8870

Dispersion correction           -0.005140959
FINAL SINGLE POINT ENERGY     -1539.009107689974
Dispersion correction            ... done

DIPOLE MOMENT
-------------
                                X             Y             Z
Electronic contribution:     18.69306       1.99210      -2.38754
Nuclear contribution   :    -17.23128      -0.85932       1.76786
                        -----------------------------------------
Total Dipole Moment    :      1.46178       1.13277      -0.61968
                        -----------------------------------------
Magnitude (a.u.)       :      1.95038
Magnitude (Debye)      :      4.95748

Rotational constants in cm-1:     0.058028     0.042806     0.025145
Rotational constants in MHz :  1739.630091  1283.278309   753.835236

                             ****ORCA TERMINATED NORMALLY****
TOTAL RUN TIME: 0 days 0 hours 0 minutes 38 seconds 993 msec
