                         Program Version 5.0.3 -  RELEASE  -
|  1> ! EnGrad PBEh-3c
|  2> %output
|  3> xyzfile=True
|  4> end
|  5> %scf
|  6> maxiter 250
|  7> end
|  8> %output
|  9> Print[P_Hirshfeld] = 1
| 10> end
| 11> % maxcore
| 12> 4000
| 13> *xyz -1 1
| 14> Pt  -0.54136754  -0.73313868   0.38677879
| 15> Cl  -0.12845035  -0.27782930   2.62575914
| 16> Cl  -2.52271520  -1.95530167   1.10081844
| 17> Cl  -1.27622669  -1.19299458  -1.78262669
| 18> C    0.79772988   0.89508754  -0.47665654
| 19> H    1.38961585   1.54367614   0.18504642
| 20> H    0.95400555  -0.48321570   0.14969277
| 21> H    1.38628399   0.71196731  -1.38514332
| 22> H   -0.06012273   1.49069607  -0.80267750
| 23> *
| 24>
| 25>                          ****END OF INPUT****

CARTESIAN COORDINATES (ANGSTROEM)
---------------------------------
  Pt    -0.541368   -0.733139    0.386779
  Cl    -0.128450   -0.277829    2.625759
  Cl    -2.522715   -1.955302    1.100818
  Cl    -1.276227   -1.192995   -1.782627
  C      0.797730    0.895088   -0.476657
  H      1.389616    1.543676    0.185046
  H      0.954006   -0.483216    0.149693
  H      1.386284    0.711967   -1.385143
  H     -0.060123    1.490696   -0.802677

 Total Charge           Charge          ....   -1
 Multiplicity           Mult            ....    1
 Number of Electrons    NEL             ....   80
 Basis Dimension        Dim             ....  109

ORBITAL ENERGIES
----------------

  NO   OCC          E(Eh)            E(eV)
   0   2.0000    -102.093174     -2778.0965
   1   2.0000    -102.090537     -2778.0247
   2   2.0000    -102.079845     -2777.7338
   3   2.0000     -10.359388      -281.8933
   4   2.0000      -9.557307      -260.0675
   5   2.0000      -9.554591      -259.9936
   6   2.0000      -9.543182      -259.6832
   7   2.0000      -7.243567      -197.1075
   8   2.0000      -7.240818      -197.0327
   9   2.0000      -7.238155      -196.9602
  10   2.0000      -7.237855      -196.9521
  11   2.0000      -7.235521      -196.8885
  12   2.0000      -7.235112      -196.8774
  13   2.0000      -7.229457      -196.7235
  14   2.0000      -7.224279      -196.5826
  15   2.0000      -7.223590      -196.5639
  16   2.0000      -3.975880      -108.1892
  17   2.0000      -2.192774       -59.6684
  18   2.0000      -2.182239       -59.3817
  19   2.0000      -2.155278       -58.6481
  20   2.0000      -0.697022       -18.9669
  21   2.0000      -0.679432       -18.4883
  22   2.0000      -0.671024       -18.2595
  23   2.0000      -0.663764       -18.0619
  24   2.0000      -0.404575       -11.0090
  25   2.0000      -0.358462        -9.7543
  26   2.0000      -0.351586        -9.5671
  27   2.0000      -0.295824        -8.0498
  28   2.0000      -0.271776        -7.3954
  29   2.0000      -0.246428        -6.7056
  30   2.0000      -0.232484        -6.3262
  31   2.0000      -0.221856        -6.0370
  32   2.0000      -0.197357        -5.3703
  33   2.0000      -0.183158        -4.9840
  34   2.0000      -0.176441        -4.8012
  35   2.0000      -0.161993        -4.4081
  36   2.0000      -0.149267        -4.0618
  37   2.0000      -0.146293        -3.9808
  38   2.0000      -0.135541        -3.6883
  39   2.0000      -0.129015        -3.5107
  40   0.0000       0.093657         2.5485
  41   0.0000       0.148775         4.0484
  42   0.0000       0.211461         5.7541
  43   0.0000       0.253845         6.9075
  44   0.0000       0.262491         7.1427

MULLIKEN ATOMIC CHARGES
-----------------------
   0 Pt:    0.090068
   1 Cl:   -0.400865
   2 Cl:   -0.375874
   3 Cl:   -0.420178
   4 C :   -0.872757
   5 H :    0.248566
   6 H :    0.195519
   7 H :    0.252528
   8 H :    0.282993
Sum of atomic charges:   -1.0000000

LOEWDIN ATOMIC CHARGES
----------------------
   0 Pt:   -0.858319
   1 Cl:   -0.116170
   2 Cl:   -0.169330
   3 Cl:   -0.132506
   4 C :   -0.392644
   5 H :    0.143497
   6 H :    0.200367
   7 H :    0.144606
   8 H :    0.180499

  Mayer bond orders larger than 0.100000
B(  0-Pt,  1-Cl) :   0.8052 B(  0-Pt,  2-Cl) :   0.7963 B(  0-Pt,  3-Cl) :   0.7700
B(  0-Pt,  4-C ) :   0.5297 B(  0-Pt,  6-H ) :   0.5113 B(  1-Cl,  3-Cl) :   0.1299
B(  2-Cl,  4-C ) :   0.1001 B(  4-C ,  5-H ) :   0.8916 B(  4-C ,  6-H ) :   0.3643
B(  4-C ,  7-H ) :   0.8941 B(  4-C ,  8-H ) :   0.8829

Dispersion correction           -0.005168836
FINAL SINGLE POINT ENERGY     -1539.013403235189
Dispersion correction            ... done

DIPOLE MOMENT
-------------
                                X             Y             Z
Electronic contribution:     21.23242       2.08733      -3.03773
Nuclear contribution   :    -19.71559      -0.92151       2.38337
                        -----------------------------------------
Total Dipole Moment    :      1.51683       1.16582      -0.65436
                        -----------------------------------------
Magnitude (a.u.)       :      2.02191
Magnitude (Debye)      :      5.13928

Rotational constants in cm-1:     0.058836     0.043028     0.025369
Rotational constants in MHz :  1763.845744  1289.949669   760.552713

                             ****ORCA TERMINATED NORMALLY****
TOTAL RUN TIME: 0 days 0 hours 0 minutes 33 seconds 674 msec
