                         Program Version 5.0.3 -  RELEASE  -
|  1> ! EnGrad PBEh-3c
|  2> %output
|  3> xyzfile=True
|  4> end
|  5> %scf
|  6> maxiter 250
|  7> end
|  8> %output
|  9> Print[P_Hirshfeld] = 1
| 10> end
| 11> % maxcore
| 12> 4000
| 13> *xyz -1 1
| 14> Pt  -0.56241601  -0.73217909   0.38718894
| 15> Cl  -0.12507965  -0.27827966   2.62442286
| 16> Cl  -2.49218730  -1.94194693   1.09326462
| 17> Cl  -1.26901144  -1.18863895  -1.78083041
| 18> C    0.79173272   0.88636601  -0.47282646
| 19> H    1.38374991   1.52700744   0.18975022
| 20> H    0.94611973  -0.45000530   0.13626156
| 21> H    1.38394945   0.69735413  -1.37528514
| 22> H   -0.05864416   1.47777797  -0.80089095
| 23> *
| 24>
| 25>                          ****END OF INPUT****

CARTESIAN COORDINATES (ANGSTROEM)
---------------------------------
  Pt    -0.562416   -0.732179    0.387189
  Cl    -0.125080   -0.278280    2.624423
  Cl    -2.492187   -1.941947    1.093265
  Cl    -1.269011   -1.188639   -1.780830
  C      0.791733    0.886366   -0.472826
  H      1.383750    1.527007    0.189750
  H      0.946120   -0.450005    0.136262
  H      1.383949    0.697354   -1.375285
  H     -0.058644    1.477778   -0.800891

 Total Charge           Charge          ....   -1
 Multiplicity           Mult            ....    1
 Number of Electrons    NEL             ....   80
 Basis Dimension        Dim             ....  109

ORBITAL ENERGIES
----------------

  NO   OCC          E(Eh)            E(eV)
   0   2.0000    -102.090645     -2778.0277
   1   2.0000    -102.089644     -2778.0004
   2   2.0000    -102.082271     -2777.7998
   3   2.0000     -10.356680      -281.8196
   4   2.0000      -9.554779      -259.9987
   5   2.0000      -9.553823      -259.9727
   6   2.0000      -9.546036      -259.7609
   7   2.0000      -7.240995      -197.0375
   8   2.0000      -7.240028      -197.0112
   9   2.0000      -7.235646      -196.8919
  10   2.0000      -7.235371      -196.8845
  11   2.0000      -7.234747      -196.8675
  12   2.0000      -7.234361      -196.8570
  13   2.0000      -7.232377      -196.8030
  14   2.0000      -7.227050      -196.6580
  15   2.0000      -7.226352      -196.6390
  16   2.0000      -3.971419      -108.0678
  17   2.0000      -2.188812       -59.5606
  18   2.0000      -2.178429       -59.2781
  19   2.0000      -2.150442       -58.5165
  20   2.0000      -0.697547       -18.9812
  21   2.0000      -0.678203       -18.4549
  22   2.0000      -0.673616       -18.3300
  23   2.0000      -0.667813       -18.1721
  24   2.0000      -0.406465       -11.0605
  25   2.0000      -0.359365        -9.7788
  26   2.0000      -0.353020        -9.6061
  27   2.0000      -0.294441        -8.0121
  28   2.0000      -0.271649        -7.3920
  29   2.0000      -0.244277        -6.6471
  30   2.0000      -0.231703        -6.3050
  31   2.0000      -0.225127        -6.1260
  32   2.0000      -0.196948        -5.3592
  33   2.0000      -0.182047        -4.9538
  34   2.0000      -0.173304        -4.7158
  35   2.0000      -0.162232        -4.4146
  36   2.0000      -0.147820        -4.0224
  37   2.0000      -0.144982        -3.9452
  38   2.0000      -0.135686        -3.6922
  39   2.0000      -0.126343        -3.4380
  40   0.0000       0.100049         2.7225
  41   0.0000       0.154653         4.2083
  42   0.0000       0.212368         5.7788
  43   0.0000       0.256969         6.9925
  44   0.0000       0.264581         7.1996

MULLIKEN ATOMIC CHARGES
-----------------------
   0 Pt:    0.073691
   1 Cl:   -0.405195
   2 Cl:   -0.365253
   3 Cl:   -0.421785
   4 C :   -0.880263
   5 H :    0.251120
   6 H :    0.206749
   7 H :    0.253862
   8 H :    0.287074
Sum of atomic charges:   -1.0000000

LOEWDIN ATOMIC CHARGES
----------------------
   0 Pt:   -0.886119
   1 Cl:   -0.122335
   2 Cl:   -0.140827
   3 Cl:   -0.129416
   4 C :   -0.396454
   5 H :    0.143756
   6 H :    0.204676
   7 H :    0.144516
   8 H :    0.182204

  Mayer bond orders larger than 0.100000
B(  0-Pt,  1-Cl) :   0.8022 B(  0-Pt,  2-Cl) :   0.8196 B(  0-Pt,  3-Cl) :   0.7712
B(  0-Pt,  4-C ) :   0.5055 B(  0-Pt,  6-H ) :   0.4786 B(  1-Cl,  3-Cl) :   0.1283
B(  4-C ,  5-H ) :   0.8908 B(  4-C ,  6-H ) :   0.3929 B(  4-C ,  7-H ) :   0.8938
B(  4-C ,  8-H ) :   0.8807

Dispersion correction           -0.005193143
FINAL SINGLE POINT ENERGY     -1539.018431109303
Dispersion correction            ... done

DIPOLE MOMENT
-------------
                                X             Y             Z
Electronic contribution:     19.36695       1.91390      -2.93678
Nuclear contribution   :    -17.92010      -0.77533       2.27599
                        -----------------------------------------
Total Dipole Moment    :      1.44684       1.13857      -0.66080
                        -----------------------------------------
Magnitude (a.u.)       :      1.95611
Magnitude (Debye)      :      4.97203

Rotational constants in cm-1:     0.060446     0.043181     0.025674
Rotational constants in MHz :  1812.130908  1294.519122   769.673294

                             ****ORCA TERMINATED NORMALLY****
TOTAL RUN TIME: 0 days 0 hours 0 minutes 37 seconds 423 msec
