                         Program Version 5.0.3 -  RELEASE  -
|  1> ! EnGrad PBEh-3c
|  2> %output
|  3> xyzfile=True
|  4> end
|  5> %scf
|  6> maxiter 250
|  7> end
|  8> %output
|  9> Print[P_Hirshfeld] = 1
| 10> end
| 11> % maxcore
| 12> 4000
| 13> *xyz -1 1
| 14> Pt  -0.58353333  -0.73065287   0.38992767
| 15> Cl  -0.12019489  -0.27507722   2.62232043
| 16> Cl  -2.47746297  -1.93412828   1.08978648
| 17> Cl  -1.26108616  -1.18810769  -1.78328381
| 18> C    0.78970966   0.88113506  -0.47016834
| 19> H    1.37995641   1.51572414   0.19450449
| 20> H    0.95305204  -0.43857991   0.12658897
| 21> H    1.37920837   0.69004367  -1.36992722
| 22> H   -0.06174514   1.47611711  -0.79865051
| 23> *
| 24>
| 25>                          ****END OF INPUT****

CARTESIAN COORDINATES (ANGSTROEM)
---------------------------------
  Pt    -0.583533   -0.730653    0.389928
  Cl    -0.120195   -0.275077    2.622320
  Cl    -2.477463   -1.934128    1.089786
  Cl    -1.261086   -1.188108   -1.783284
  C      0.789710    0.881135   -0.470168
  H      1.379956    1.515724    0.194504
  H      0.953052   -0.438580    0.126589
  H      1.379208    0.690044   -1.369927
  H     -0.061745    1.476117   -0.798651

 Total Charge           Charge          ....   -1
 Multiplicity           Mult            ....    1
 Number of Electrons    NEL             ....   80
 Basis Dimension        Dim             ....  109

ORBITAL ENERGIES
----------------

  NO   OCC          E(Eh)            E(eV)
   0   2.0000    -102.089308     -2777.9913
   1   2.0000    -102.088910     -2777.9805
   2   2.0000    -102.084233     -2777.8532
   3   2.0000     -10.355230      -281.7801
   4   2.0000      -9.553450      -259.9626
   5   2.0000      -9.553125      -259.9538
   6   2.0000      -9.548307      -259.8227
   7   2.0000      -7.239638      -197.0006
   8   2.0000      -7.239309      -196.9916
   9   2.0000      -7.234696      -196.8661
  10   2.0000      -7.234328      -196.8561
  11   2.0000      -7.234070      -196.8491
  12   2.0000      -7.234052      -196.8486
  13   2.0000      -7.233690      -196.8387
  14   2.0000      -7.229258      -196.7181
  15   2.0000      -7.228558      -196.6991
  16   2.0000      -3.968433      -107.9865
  17   2.0000      -2.185724       -59.4766
  18   2.0000      -2.175883       -59.2088
  19   2.0000      -2.147287       -58.4307
  20   2.0000      -0.697934       -18.9918
  21   2.0000      -0.677361       -18.4319
  22   2.0000      -0.674443       -18.3525
  23   2.0000      -0.670320       -18.2403
  24   2.0000      -0.404357       -11.0031
  25   2.0000      -0.359690        -9.7877
  26   2.0000      -0.352626        -9.5954
  27   2.0000      -0.293331        -7.9819
  28   2.0000      -0.271542        -7.3890
  29   2.0000      -0.242951        -6.6110
  30   2.0000      -0.232617        -6.3298
  31   2.0000      -0.226375        -6.1600
  32   2.0000      -0.196858        -5.3568
  33   2.0000      -0.181336        -4.9344
  34   2.0000      -0.171734        -4.6731
  35   2.0000      -0.161940        -4.4066
  36   2.0000      -0.146408        -3.9840
  37   2.0000      -0.143863        -3.9147
  38   2.0000      -0.135971        -3.6999
  39   2.0000      -0.124717        -3.3937
  40   0.0000       0.104153         2.8341
  41   0.0000       0.156521         4.2592
  42   0.0000       0.212573         5.7844
  43   0.0000       0.257231         6.9996
  44   0.0000       0.266242         7.2448

MULLIKEN ATOMIC CHARGES
-----------------------
   0 Pt:    0.063859
   1 Cl:   -0.408077
   2 Cl:   -0.358818
   3 Cl:   -0.423151
   4 C :   -0.884319
   5 H :    0.252829
   6 H :    0.214622
   7 H :    0.255284
   8 H :    0.287771
Sum of atomic charges:   -1.0000000

LOEWDIN ATOMIC CHARGES
----------------------
   0 Pt:   -0.905352
   1 Cl:   -0.125690
   2 Cl:   -0.120137
   3 Cl:   -0.129318
   4 C :   -0.401110
   5 H :    0.143722
   6 H :    0.209784
   7 H :    0.144302
   8 H :    0.183799

  Mayer bond orders larger than 0.100000
B(  0-Pt,  1-Cl) :   0.8007 B(  0-Pt,  2-Cl) :   0.8359 B(  0-Pt,  3-Cl) :   0.7716
B(  0-Pt,  4-C ) :   0.4882 B(  0-Pt,  6-H ) :   0.4558 B(  1-Cl,  3-Cl) :   0.1272
B(  4-C ,  5-H ) :   0.8901 B(  4-C ,  6-H ) :   0.4140 B(  4-C ,  7-H ) :   0.8931
B(  4-C ,  8-H ) :   0.8804

Dispersion correction           -0.005203900
FINAL SINGLE POINT ENERGY     -1539.021447965549
Dispersion correction            ... done

DIPOLE MOMENT
-------------
                                X             Y             Z
Electronic contribution:     17.68962       1.84484      -2.66649
Nuclear contribution   :    -16.29387      -0.72715       2.01267
                        -----------------------------------------
Total Dipole Moment    :      1.39575       1.11769      -0.65382
                        -----------------------------------------
Magnitude (a.u.)       :      1.90389
Magnitude (Debye)      :      4.83931

Rotational constants in cm-1:     0.061418     0.043225     0.025831
Rotational constants in MHz :  1841.260806  1295.865328   774.390264

                             ****ORCA TERMINATED NORMALLY****
TOTAL RUN TIME: 0 days 0 hours 0 minutes 37 seconds 685 msec
