                         Program Version 5.0.3 -  RELEASE  -
|  1> ! EnGrad PBEh-3c
|  2> %output
|  3> xyzfile=True
|  4> end
|  5> %scf
|  6> maxiter 250
|  7> end
|  8> %output
|  9> Print[P_Hirshfeld] = 1
| 10> end
| 11> % maxcore
| 12> 4000
| 13> *xyz -1 1
| 14> Pt  -0.62201858  -0.72028265   0.39486037
| 15> Cl  -0.10371836  -0.26023301   2.61429831
| 16> Cl  -2.44678995  -1.91354057   1.08311776
| 17> Cl  -1.23443756  -1.19007660  -1.79490359
| 18> C    0.78020584   0.86422351  -0.46036637
| 19> H    1.37035714   1.48352307   0.21214219
| 20> H    0.96374426  -0.41772290   0.09847485
| 21> H    1.36197853   0.67205514  -1.35889852
| 22> H   -0.07226848   1.47593223  -0.78736120
| 23> *
| 24>
| 25>                          ****END OF INPUT****

CARTESIAN COORDINATES (ANGSTROEM)
---------------------------------
  Pt    -0.622019   -0.720283    0.394860
  Cl    -0.103718   -0.260233    2.614298
  Cl    -2.446790   -1.913541    1.083118
  Cl    -1.234438   -1.190077   -1.794904
  C      0.780206    0.864224   -0.460366
  H      1.370357    1.483523    0.212142
  H      0.963744   -0.417723    0.098475
  H      1.361979    0.672055   -1.358899
  H     -0.072268    1.475932   -0.787361

 Total Charge           Charge          ....   -1
 Multiplicity           Mult            ....    1
 Number of Electrons    NEL             ....   80
 Basis Dimension        Dim             ....  109

ORBITAL ENERGIES
----------------

  NO   OCC          E(Eh)            E(eV)
   0   2.0000    -102.087553     -2777.9436
   1   2.0000    -102.087506     -2777.9423
   2   2.0000    -102.087085     -2777.9308
   3   2.0000     -10.351753      -281.6855
   4   2.0000      -9.551892      -259.9202
   5   2.0000      -9.551729      -259.9158
   6   2.0000      -9.551704      -259.9151
   7   2.0000      -7.238339      -196.9652
   8   2.0000      -7.237867      -196.9524
   9   2.0000      -7.237849      -196.9519
  10   2.0000      -7.232723      -196.8124
  11   2.0000      -7.232648      -196.8104
  12   2.0000      -7.232607      -196.8092
  13   2.0000      -7.232385      -196.8032
  14   2.0000      -7.232346      -196.8021
  15   2.0000      -7.232023      -196.7934
  16   2.0000      -3.963331      -107.8477
  17   2.0000      -2.180940       -59.3464
  18   2.0000      -2.171429       -59.0876
  19   2.0000      -2.141970       -58.2860
  20   2.0000      -0.699630       -19.0379
  21   2.0000      -0.677550       -18.4371
  22   2.0000      -0.675921       -18.3927
  23   2.0000      -0.672869       -18.3097
  24   2.0000      -0.402953       -10.9649
  25   2.0000      -0.360334        -9.8052
  26   2.0000      -0.351325        -9.5600
  27   2.0000      -0.291200        -7.9239
  28   2.0000      -0.271803        -7.3961
  29   2.0000      -0.242015        -6.5856
  30   2.0000      -0.235620        -6.4116
  31   2.0000      -0.228108        -6.2071
  32   2.0000      -0.196902        -5.3580
  33   2.0000      -0.180249        -4.9048
  34   2.0000      -0.170173        -4.6307
  35   2.0000      -0.160292        -4.3618
  36   2.0000      -0.142911        -3.8888
  37   2.0000      -0.142117        -3.8672
  38   2.0000      -0.135379        -3.6838
  39   2.0000      -0.122250        -3.3266
  40   0.0000       0.112239         3.0542
  41   0.0000       0.161366         4.3910
  42   0.0000       0.212566         5.7842
  43   0.0000       0.256345         6.9755
  44   0.0000       0.270473         7.3600

MULLIKEN ATOMIC CHARGES
-----------------------
   0 Pt:    0.048214
   1 Cl:   -0.413511
   2 Cl:   -0.348213
   3 Cl:   -0.425897
   4 C :   -0.898183
   5 H :    0.256352
   6 H :    0.234038
   7 H :    0.258278
   8 H :    0.288923
Sum of atomic charges:   -1.0000000

LOEWDIN ATOMIC CHARGES
----------------------
   0 Pt:   -0.939183
   1 Cl:   -0.130395
   2 Cl:   -0.081493
   3 Cl:   -0.132496
   4 C :   -0.412484
   5 H :    0.143946
   6 H :    0.220084
   7 H :    0.144291
   8 H :    0.187731

  Mayer bond orders larger than 0.100000
B(  0-Pt,  1-Cl) :   0.7975 B(  0-Pt,  2-Cl) :   0.8680 B(  0-Pt,  3-Cl) :   0.7699
B(  0-Pt,  4-C ) :   0.4597 B(  0-Pt,  6-H ) :   0.4134 B(  1-Cl,  3-Cl) :   0.1251
B(  4-C ,  5-H ) :   0.8880 B(  4-C ,  6-H ) :   0.4520 B(  4-C ,  7-H ) :   0.8908
B(  4-C ,  8-H ) :   0.8789

Dispersion correction           -0.005233681
FINAL SINGLE POINT ENERGY     -1539.025797816812
Dispersion correction            ... done

DIPOLE MOMENT
-------------
                                X             Y             Z
Electronic contribution:     14.32785       2.02737      -2.02164
Nuclear contribution   :    -13.02384      -0.94656       1.39388
                        -----------------------------------------
Total Dipole Moment    :      1.30401       1.08081      -0.62777
                        -----------------------------------------
Magnitude (a.u.)       :      1.80629
Magnitude (Debye)      :      4.59123

Rotational constants in cm-1:     0.063516     0.043234     0.026139
Rotational constants in MHz :  1904.147878  1296.113323   783.615760

                             ****ORCA TERMINATED NORMALLY****
TOTAL RUN TIME: 0 days 0 hours 0 minutes 35 seconds 39 msec
