                         Program Version 5.0.4 -  RELEASE  -
|  1> %pal nprocs 8 end
|  2>
|  3>  *xyzfile -1 1 cineb-5-peak.xyz
|  4>
|  5>
|  6>                          ****END OF INPUT****
|  1>
|  2>
|  3>   ! PBEh-3c OptTS Freq pal8
|  4>
|  5>   %geom
|  6>    calc_hess true
|  7>    recalc_hess 20
|  8>    maxiter 600
|  9>   end
| 10>
| 11>
| 12>                          ****END OF INPUT****
 Total Charge           Charge          ....   -1
 Multiplicity           Mult            ....    1
 Number of Electrons    NEL             ....  164
Dispersion correction           -0.024448690
FINAL SINGLE POINT ENERGY     -2061.438983550912
Dispersion correction            ... done
Dispersion correction in the Hessian             ... done   (      0.9 sec)
Dispersion correction           -0.024633122
FINAL SINGLE POINT ENERGY     -2061.450886383909
Dispersion correction            ... done
Dispersion correction           -0.024761328
FINAL SINGLE POINT ENERGY     -2061.459500119744
FINAL SINGLE POINT ENERGY     -2061.466523844711
FINAL SINGLE POINT ENERGY     -2061.473342832041
FINAL SINGLE POINT ENERGY     -2061.478946739459
FINAL SINGLE POINT ENERGY     -2061.483616364114
FINAL SINGLE POINT ENERGY     -2061.486819478478
FINAL SINGLE POINT ENERGY     -2061.488656654634
FINAL SINGLE POINT ENERGY     -2061.489218403954
FINAL SINGLE POINT ENERGY     -2061.490890288188
FINAL SINGLE POINT ENERGY     -2061.490972939662
FINAL SINGLE POINT ENERGY     -2061.490880996615
FINAL SINGLE POINT ENERGY     -2061.491003776875
FINAL SINGLE POINT ENERGY     -2061.490984915778
FINAL SINGLE POINT ENERGY     -2061.490994508030
FINAL SINGLE POINT ENERGY     -2061.490981396483
Dispersion correction           -0.024994099
FINAL SINGLE POINT ENERGY     -2061.490977769327
Dispersion correction            ... done
                    ***********************HURRAY********************
Dispersion correction           -0.024994333
FINAL SINGLE POINT ENERGY     -2061.490976302348
Dispersion correction in the Hessian             ... done   (      0.7 sec)

VIBRATIONAL FREQUENCIES
-----------------------

Scaling factor for frequencies =  1.000000000  (already applied!)

   0:         0.00 cm**-1
   1:         0.00 cm**-1
   2:         0.00 cm**-1
   3:         0.00 cm**-1
   4:         0.00 cm**-1
   5:         0.00 cm**-1
   6:       -98.42 cm**-1 ***imaginary mode***
   7:        42.59 cm**-1
   8:        55.58 cm**-1
   9:        58.83 cm**-1
  10:        81.02 cm**-1
  11:       100.76 cm**-1
  12:       130.79 cm**-1
  13:       137.36 cm**-1
  14:       158.28 cm**-1
  15:       182.89 cm**-1
  16:       193.93 cm**-1
  17:       211.51 cm**-1
  18:       239.50 cm**-1
  19:       275.22 cm**-1
  20:       300.73 cm**-1
  21:       352.42 cm**-1
  22:       362.05 cm**-1
  23:       431.08 cm**-1
  24:       443.55 cm**-1
  25:       461.35 cm**-1
  26:       513.76 cm**-1
  27:       518.10 cm**-1
  28:       527.83 cm**-1
  29:       571.29 cm**-1
  30:       583.54 cm**-1
  31:       635.80 cm**-1
  32:       649.54 cm**-1
  33:       744.45 cm**-1
  34:       754.59 cm**-1
  35:       764.55 cm**-1
  36:       789.71 cm**-1
  37:       820.31 cm**-1
  38:       855.59 cm**-1
  39:       875.06 cm**-1
  40:       880.85 cm**-1
  41:       931.41 cm**-1
  42:       947.02 cm**-1
  43:       979.19 cm**-1
  44:       994.52 cm**-1
  45:      1017.64 cm**-1
  46:      1027.46 cm**-1
  47:      1031.84 cm**-1
  48:      1068.22 cm**-1
  49:      1114.24 cm**-1
  50:      1133.57 cm**-1
  51:      1161.56 cm**-1
  52:      1192.42 cm**-1
  53:      1202.53 cm**-1
  54:      1218.59 cm**-1
  55:      1268.72 cm**-1
  56:      1283.14 cm**-1
  57:      1286.00 cm**-1
  58:      1329.42 cm**-1
  59:      1385.63 cm**-1
  60:      1414.35 cm**-1
  61:      1437.27 cm**-1
  62:      1487.77 cm**-1
  63:      1504.27 cm**-1
  64:      1521.38 cm**-1
  65:      1535.91 cm**-1
  66:      1592.91 cm**-1
  67:      1615.50 cm**-1
  68:      1692.78 cm**-1
  69:      1704.26 cm**-1
  70:      1725.48 cm**-1
  71:      1742.69 cm**-1
  72:      2290.65 cm**-1
  73:      3250.07 cm**-1
  74:      3252.18 cm**-1
  75:      3260.29 cm**-1
  76:      3269.06 cm**-1
  77:      3271.92 cm**-1
  78:      3294.35 cm**-1
  79:      3296.56 cm**-1
  80:      3311.63 cm**-1

IR SPECTRUM
-----------

 Mode   freq       eps      Int      T**2         TX        TY        TZ
       cm**-1   L/(mol*cm) km/mol    a.u.
----------------------------------------------------------------------------
  7:     42.59   0.000631    3.19  0.004624  (-0.030319 -0.054365 -0.027376)
  8:     55.58   0.000509    2.57  0.002860  ( 0.040201  0.033200 -0.011894)
  9:     58.83   0.000732    3.70  0.003883  (-0.028677  0.020548  0.051369)
 10:     81.02   0.000240    1.21  0.000925  ( 0.013686  0.024296 -0.012137)
 11:    100.76   0.001025    5.18  0.003173  (-0.050530  0.004172 -0.024545)
 12:    130.79   0.002310   11.68  0.005513  ( 0.009470 -0.044559  0.058630)
 13:    137.36   0.000444    2.24  0.001008  ( 0.017103 -0.023789  0.012214)
 14:    158.28   0.001393    7.04  0.002745  ( 0.030921 -0.027676  0.031989)
 15:    182.89   0.004723   23.87  0.008058  ( 0.026054 -0.056393  0.064798)
 16:    193.93   0.000181    0.92  0.000292  ( 0.002535  0.016689 -0.002630)
 17:    211.51   0.001361    6.88  0.002009  ( 0.000847 -0.033153  0.030144)
 18:    239.50   0.001958    9.89  0.002551  (-0.028928  0.026165 -0.032084)
 19:    275.22   0.001130    5.71  0.001282  (-0.009429  0.021682 -0.026881)
 20:    300.73   0.000982    4.96  0.001019  (-0.028244  0.014409  0.003672)
 21:    352.42   0.007242   36.60  0.006413  (-0.074938  0.015757  0.023422)
 22:    362.05   0.008563   43.28  0.007381  ( 0.051036  0.060013  0.034276)
 23:    431.08   0.001048    5.29  0.000758  (-0.026388 -0.003359 -0.007130)
 24:    443.55   0.000809    4.09  0.000569  (-0.006087  0.010642 -0.020461)
 25:    461.35   0.001071    5.41  0.000724  (-0.014412  0.001591 -0.022673)
 26:    513.76   0.000546    2.76  0.000332  ( 0.008722 -0.014561 -0.006594)
 27:    518.10   0.000582    2.94  0.000351  ( 0.004227 -0.018207  0.001176)
 28:    527.83   0.000732    3.70  0.000433  (-0.013355  0.012791 -0.009527)
 29:    571.29   0.001439    7.27  0.000786  ( 0.012429 -0.017126  0.018394)
 30:    583.54   0.000141    0.71  0.000075  ( 0.000463  0.003923 -0.007734)
 31:    635.80   0.000433    2.19  0.000213  ( 0.004299 -0.007191  0.011940)
 32:    649.54   0.003471   17.54  0.001668  ( 0.012195 -0.037191  0.011654)
 33:    744.45   0.000196    0.99  0.000082  ( 0.007312  0.005374  0.000069)
 34:    754.59   0.003179   16.06  0.001315  ( 0.028979 -0.020654 -0.006937)
 35:    764.55   0.004850   24.51  0.001979  (-0.030522  0.018869 -0.026303)
 36:    789.71   0.006871   34.72  0.002715  (-0.042504  0.022917 -0.019576)
 37:    820.31   0.000481    2.43  0.000183  (-0.008222 -0.004557  0.009735)
 38:    855.59   0.019826  100.19  0.007231  ( 0.063343 -0.035644  0.044141)
 39:    875.06   0.001383    6.99  0.000493  (-0.011802  0.002680 -0.018620)
 40:    880.85   0.006564   33.17  0.002326  ( 0.036555 -0.024182  0.020112)
 41:    931.41   0.003508   17.73  0.001175  (-0.018134  0.019032 -0.022002)
 42:    947.02   0.001336    6.75  0.000440  ( 0.019772  0.003456 -0.006126)
 43:    979.19   0.012340   62.36  0.003933  ( 0.041929 -0.024621  0.039603)
 44:    994.52   0.000129    0.65  0.000041  ( 0.004051 -0.004889 -0.000458)
 45:   1017.64   0.000291    1.47  0.000089  (-0.003582  0.003114 -0.008161)
 46:   1027.46   0.000084    0.42  0.000025  ( 0.005033 -0.000179  0.000076)
 47:   1031.84   0.000262    1.32  0.000079  (-0.001242 -0.000928 -0.008757)
 48:   1068.22   0.000189    0.95  0.000055  ( 0.002002 -0.000303  0.007147)
 49:   1114.24   0.001430    7.23  0.000401  ( 0.019678 -0.001200 -0.003461)
 50:   1133.57   0.000745    3.77  0.000205  (-0.008608  0.007220  0.008886)
 51:   1161.56   0.000978    4.94  0.000263  (-0.002033 -0.015149 -0.005389)
 52:   1192.42   0.000898    4.54  0.000235  (-0.000356  0.004655  0.014602)
 53:   1202.53   0.000515    2.60  0.000134  (-0.005848 -0.008776 -0.004731)
 54:   1218.59   0.001397    7.06  0.000358  (-0.014969 -0.001206  0.011495)
 55:   1268.72   0.000443    2.24  0.000109  ( 0.001926  0.010256  0.000370)
 56:   1283.14   0.000483    2.44  0.000117  ( 0.002833  0.005399  0.008957)
 57:   1286.00   0.000579    2.92  0.000140  ( 0.004065 -0.005140 -0.009872)
 58:   1329.42   0.000570    2.88  0.000134  (-0.001161 -0.004862 -0.010430)
 59:   1385.63   0.001595    8.06  0.000359  (-0.006551 -0.016657 -0.006236)
 60:   1414.35   0.002222   11.23  0.000490  (-0.015705 -0.009741  0.012192)
 61:   1437.27   0.000637    3.22  0.000138  ( 0.003056  0.003507 -0.010802)
 62:   1487.77   0.001029    5.20  0.000216  ( 0.001955  0.004327 -0.013904)
 63:   1504.27   0.007193   36.35  0.001492  (-0.014216  0.002464  0.035835)
 64:   1521.38   0.002091   10.57  0.000429  ( 0.004918 -0.002727 -0.019930)
 65:   1535.91   0.003133   15.83  0.000637  ( 0.007769 -0.019920 -0.013394)
 66:   1592.91   0.001416    7.15  0.000277  (-0.009252  0.002467  0.013625)
 67:   1615.50   0.002194   11.09  0.000424  ( 0.014722  0.008737  0.011435)
 68:   1692.78   0.002168   10.95  0.000400  ( 0.010559  0.015521 -0.006870)
 69:   1704.26   0.001234    6.23  0.000226  (-0.009634 -0.005570  0.010103)
 70:   1725.48   0.000861    4.35  0.000156  (-0.010218 -0.001325  0.007037)
 71:   1742.69   0.001096    5.54  0.000196  (-0.000891  0.007761  0.011633)
 72:   2290.65   0.126884  641.22  0.017286  ( 0.038900 -0.081458  0.095589)
 73:   3250.07   0.000161    0.81  0.000015  ( 0.000733  0.002343  0.003064)
 74:   3252.18   0.000825    4.17  0.000079  (-0.005145 -0.006348  0.003520)
 75:   3260.29   0.001399    7.07  0.000134  ( 0.004648  0.009204  0.005255)
 76:   3269.06   0.005097   25.76  0.000487  ( 0.012859  0.017922 -0.000006)
 77:   3271.92   0.006255   31.61  0.000597  ( 0.012042  0.000689 -0.021240)
 78:   3294.35   0.001580    7.98  0.000150  ( 0.003460 -0.005596 -0.010312)
 79:   3296.56   0.000876    4.43  0.000083  ( 0.004012 -0.002011 -0.007924)
 80:   3311.63   0.001618    8.17  0.000152  (-0.007513 -0.007980 -0.005683)

--------------------------
THERMOCHEMISTRY AT 298.15K
--------------------------

Temperature         ... 298.15 K
Pressure            ... 1.00 atm
Total Mass          ... 391.98 AMU

Throughout the following assumptions are being made:
  (1) The electronic state is orbitally nondegenerate
  (2) There are no thermally accessible electronically excited states
  (3) Hindered rotations indicated by low frequency modes are not
      treated as such but are treated as vibrations and this may
      cause some error
  (4) All equations used are the standard statistical mechanics
      equations for an ideal gas
  (5) All vibrations are strictly harmonic

freq.      42.59  E(vib)   ...       0.53
freq.      55.58  E(vib)   ...       0.52
freq.      58.83  E(vib)   ...       0.51
freq.      81.02  E(vib)   ...       0.48
freq.     100.76  E(vib)   ...       0.46
freq.     130.79  E(vib)   ...       0.43
freq.     137.36  E(vib)   ...       0.42
freq.     158.28  E(vib)   ...       0.39
freq.     182.89  E(vib)   ...       0.37
freq.     193.93  E(vib)   ...       0.36
freq.     211.51  E(vib)   ...       0.34
freq.     239.50  E(vib)   ...       0.31
freq.     275.22  E(vib)   ...       0.28
freq.     300.73  E(vib)   ...       0.26
freq.     352.42  E(vib)   ...       0.23
freq.     362.05  E(vib)   ...       0.22
freq.     431.08  E(vib)   ...       0.18
freq.     443.55  E(vib)   ...       0.17
freq.     461.35  E(vib)   ...       0.16
freq.     513.76  E(vib)   ...       0.13
freq.     518.10  E(vib)   ...       0.13
freq.     527.83  E(vib)   ...       0.13
freq.     571.29  E(vib)   ...       0.11
freq.     583.54  E(vib)   ...       0.11
freq.     635.80  E(vib)   ...       0.09
freq.     649.54  E(vib)   ...       0.08
freq.     744.45  E(vib)   ...       0.06
freq.     754.59  E(vib)   ...       0.06
freq.     764.55  E(vib)   ...       0.06
freq.     789.71  E(vib)   ...       0.05
freq.     820.31  E(vib)   ...       0.05
freq.     855.59  E(vib)   ...       0.04
freq.     875.06  E(vib)   ...       0.04
freq.     880.85  E(vib)   ...       0.04
freq.     931.41  E(vib)   ...       0.03
freq.     947.02  E(vib)   ...       0.03
freq.     979.19  E(vib)   ...       0.03
freq.     994.52  E(vib)   ...       0.02
freq.    1017.64  E(vib)   ...       0.02
freq.    1027.46  E(vib)   ...       0.02
freq.    1031.84  E(vib)   ...       0.02
freq.    1068.22  E(vib)   ...       0.02
freq.    1114.24  E(vib)   ...       0.01
freq.    1133.57  E(vib)   ...       0.01
freq.    1161.56  E(vib)   ...       0.01
freq.    1192.42  E(vib)   ...       0.01
freq.    1202.53  E(vib)   ...       0.01
freq.    1218.59  E(vib)   ...       0.01
freq.    1268.72  E(vib)   ...       0.01
freq.    1283.14  E(vib)   ...       0.01
freq.    1286.00  E(vib)   ...       0.01
freq.    1329.42  E(vib)   ...       0.01
freq.    1385.63  E(vib)   ...       0.00
freq.    1414.35  E(vib)   ...       0.00
freq.    1437.27  E(vib)   ...       0.00
freq.    1487.77  E(vib)   ...       0.00
freq.    1504.27  E(vib)   ...       0.00
freq.    1521.38  E(vib)   ...       0.00
freq.    1535.91  E(vib)   ...       0.00
freq.    1592.91  E(vib)   ...       0.00
freq.    1615.50  E(vib)   ...       0.00
freq.    1692.78  E(vib)   ...       0.00
freq.    1704.26  E(vib)   ...       0.00
freq.    1725.48  E(vib)   ...       0.00
freq.    1742.69  E(vib)   ...       0.00
freq.    2290.65  E(vib)   ...       0.00
freq.    3250.07  E(vib)   ...       0.00
freq.    3252.18  E(vib)   ...       0.00
freq.    3260.29  E(vib)   ...       0.00
freq.    3269.06  E(vib)   ...       0.00
freq.    3271.92  E(vib)   ...       0.00
freq.    3294.35  E(vib)   ...       0.00
freq.    3296.56  E(vib)   ...       0.00
freq.    3311.63  E(vib)   ...       0.00

------------
INNER ENERGY
------------

The inner energy is: U= E(el) + E(ZPE) + E(vib) + E(rot) + E(trans)
    E(el)   - is the total energy from the electronic structure calculation
              = E(kin-el) + E(nuc-el) + E(el-el) + E(nuc-nuc)
    E(ZPE)  - the the zero temperature vibrational energy from the frequency calculation
    E(vib)  - the the finite temperature correction to E(ZPE) due to population
              of excited vibrational states
    E(rot)  - is the rotational thermal energy
    E(trans)- is the translational thermal energy

Summary of contributions to the inner energy U:
Electronic energy                ...  -2061.49097630 Eh
Zero point energy                ...      0.19079390 Eh     119.72 kcal/mol
Thermal vibrational correction   ...      0.01293091 Eh       8.11 kcal/mol
Thermal rotational correction    ...      0.00141627 Eh       0.89 kcal/mol
Thermal translational correction ...      0.00141627 Eh       0.89 kcal/mol
-----------------------------------------------------------------------
Total thermal energy                  -2061.28441896 Eh

Summary of corrections to the electronic energy:
(perhaps to be used in another calculation)
Total thermal correction                  0.01576345 Eh       9.89 kcal/mol
Non-thermal (ZPE) correction              0.19079390 Eh     119.72 kcal/mol
-----------------------------------------------------------------------
Total correction                          0.20655735 Eh     129.62 kcal/mol

--------
ENTHALPY
--------

The enthalpy is H = U + kB*T
                kB is Boltzmann's constant
Total free energy                 ...  -2061.28441896 Eh
Thermal Enthalpy correction       ...      0.00094421 Eh       0.59 kcal/mol
-----------------------------------------------------------------------
Total Enthalpy                    ...  -2061.28347475 Eh

Note: Only C1 symmetry has been detected, increase convergence thresholds
      if your molecule has a higher symmetry. Symmetry factor of 1.0 is
      used for the rotational entropy correction.

Note: Rotational entropy computed according to Herzberg
Infrared and Raman Spectra, Chapter V,1, Van Nostrand Reinhold, 1945
Point Group:  C1, Symmetry Number:   1
Rotational constants in cm-1:     0.011825     0.008490     0.006366

Vibrational entropy computed according to the QRRHO of S. Grimme
Chem.Eur.J. 2012 18 9955

-------
ENTROPY
-------

The entropy contributions are T*S = T*(S(el)+S(vib)+S(rot)+S(trans))
     S(el)   - electronic entropy
     S(vib)  - vibrational entropy
     S(rot)  - rotational entropy
     S(trans)- translational entropy
The entropies will be listed as multiplied by the temperature to get
units of energy

|  1>
|  2>
|  3>   ! PBEh-3c IRC pal8
|  4>   %irc
|  5>     maxiter 600
|  6>     inithess read
|  7>     hess_filename "reaction-2-cineb5_optts_Compound_1.hess"
|  8>   end
|  9>
| 10>
| 11>                          ****END OF INPUT****

CARTESIAN COORDINATES (ANGSTROEM)
---------------------------------
  Pd    -2.098643   -1.584301    0.312852
  Cl    -3.038233   -3.170343   -1.023541
  Cl     0.152896   -2.935714    1.963850
  Cl    -4.116778   -0.913621    1.147042
  N     -1.100886   -0.091238    1.305959
  C     -1.467191    0.440042    2.450944
  C     -0.823958    1.562142    2.980265
  C      0.168504    2.172379    2.255336
  C     -0.055104    0.426355    0.627581
  C      0.562627    1.620262    1.029160
  H      0.641531    3.079201    2.613019
  H     -2.313326   -0.015785    2.943993
  H     -1.146776    1.955988    3.933425
  C      0.359312   -0.234521   -0.570833
  C      1.506464    2.231797    0.145036
  C      1.775303    1.691578   -1.066279
  C      1.206598    0.439872   -1.465093
  H      1.973099    3.161392    0.447485
  H      2.453081    2.193062   -1.746848
  C     -0.087098   -1.542278   -0.846072
  C      1.481148   -0.165191   -2.703056
  C      0.178984   -2.096889   -2.079368
  C      0.945518   -1.394985   -3.015526
  H      2.121436    0.346097   -3.412122
  H      1.149450   -1.839450   -3.981359
  H     -0.237413   -2.248648    0.055810
  H     -0.196347   -3.087702   -2.295041

 Multiplicity           Mult            ....    1
 Number of Electrons    NEL             ....  164
 Basis Dimension        Dim             ....  313

ORBITAL ENERGIES
----------------

  NO   OCC          E(Eh)            E(eV)
   0   2.0000    -102.107194     -2778.4780
   1   2.0000    -102.095644     -2778.1637
   2   2.0000    -102.007753     -2775.7721
   3   2.0000     -14.602236      -397.3470
   4   2.0000     -10.417310      -283.4694
   5   2.0000     -10.407566      -283.2043
   6   2.0000     -10.397033      -282.9177
   7   2.0000     -10.392617      -282.7975
   8   2.0000     -10.384868      -282.5866
   9   2.0000     -10.384224      -282.5691
  10   2.0000     -10.383823      -282.5582
  11   2.0000     -10.382571      -282.5241
  12   2.0000     -10.378047      -282.4010
  13   2.0000     -10.375340      -282.3273
  14   2.0000     -10.370550      -282.1970
  15   2.0000     -10.361816      -281.9594
  16   2.0000     -10.358409      -281.8666
  17   2.0000      -9.571300      -260.4483
  18   2.0000      -9.560212      -260.1466
  19   2.0000      -9.471404      -257.7300
  20   2.0000      -7.257550      -197.4880
  21   2.0000      -7.252053      -197.3384
  22   2.0000      -7.251871      -197.3335
  23   2.0000      -7.246333      -197.1827
  24   2.0000      -7.240960      -197.0365
  25   2.0000      -7.240853      -197.0336
  26   2.0000      -7.154949      -194.6961
  27   2.0000      -7.154005      -194.6704
  28   2.0000      -7.153610      -194.6596
  29   2.0000      -3.534349       -96.1745
  30   2.0000      -2.184339       -59.4389
  31   2.0000      -2.178104       -59.2692
  32   2.0000      -2.143039       -58.3150
  33   2.0000      -0.998529       -27.1714
  34   2.0000      -0.899914       -24.4879
  35   2.0000      -0.858559       -23.3626
  36   2.0000      -0.823699       -22.4140
  37   2.0000      -0.794350       -21.6154
  38   2.0000      -0.755732       -20.5645
  39   2.0000      -0.740999       -20.1636
  40   2.0000      -0.698397       -19.0044
  41   2.0000      -0.685679       -18.6583
  42   2.0000      -0.656814       -17.8728
  43   2.0000      -0.651187       -17.7197
  44   2.0000      -0.626761       -17.0550
  45   2.0000      -0.605070       -16.4648
  46   2.0000      -0.592339       -16.1184
  47   2.0000      -0.545850       -14.8533
  48   2.0000      -0.529469       -14.4076
  49   2.0000      -0.505518       -13.7558
  50   2.0000      -0.477281       -12.9875
  51   2.0000      -0.471498       -12.8301
  52   2.0000      -0.443166       -12.0592
  53   2.0000      -0.424104       -11.5405
  54   2.0000      -0.419606       -11.4181
  55   2.0000      -0.416750       -11.3404
  56   2.0000      -0.405464       -11.0332
  57   2.0000      -0.401508       -10.9256
  58   2.0000      -0.382186       -10.3998
  59   2.0000      -0.359284        -9.7766
  60   2.0000      -0.355923        -9.6851
  61   2.0000      -0.332908        -9.0589
  62   2.0000      -0.325694        -8.8626
  63   2.0000      -0.310834        -8.4582
  64   2.0000      -0.306367        -8.3367
  65   2.0000      -0.279488        -7.6053
  66   2.0000      -0.273010        -7.4290
  67   2.0000      -0.265425        -7.2226
  68   2.0000      -0.250994        -6.8299
  69   2.0000      -0.238079        -6.4785
  70   2.0000      -0.230905        -6.2833
  71   2.0000      -0.226885        -6.1739
  72   2.0000      -0.197882        -5.3846
  73   2.0000      -0.187038        -5.0896
  74   2.0000      -0.180135        -4.9017
  75   2.0000      -0.170804        -4.6478
  76   2.0000      -0.166729        -4.5369
  77   2.0000      -0.156559        -4.2602
  78   2.0000      -0.152608        -4.1527
  79   2.0000      -0.108612        -2.9555
  80   2.0000      -0.106725        -2.9041
  81   2.0000      -0.099948        -2.7197
  82   0.0000       0.039943         1.0869
  83   0.0000       0.041113         1.1187
  84   0.0000       0.067785         1.8445
  85   0.0000       0.101478         2.7613
  86   0.0000       0.130294         3.5455

MULLIKEN ATOMIC CHARGES
-----------------------
   0 Pd:    0.219935
   1 Cl:   -0.343674
   2 Cl:   -0.668329
   3 Cl:   -0.351770
   4 N :   -0.564118
   5 C :    0.065665
   6 C :   -0.324875
   7 C :   -0.158512
   8 C :    0.394070
   9 C :    0.049554
  10 H :    0.212223
  11 H :    0.287747
  12 H :    0.223037
  13 C :    0.084668
  14 C :   -0.292164
  15 C :   -0.299432
  16 C :    0.129875
  17 H :    0.199527
  18 H :    0.199897
  19 C :   -0.372702
  20 C :   -0.296435
  21 C :   -0.217856
  22 C :   -0.209178
  23 H :    0.197106
  24 H :    0.205657
  25 H :    0.378336
  26 H :    0.251749
Sum of atomic charges:   -1.0000000

LOEWDIN ATOMIC CHARGES
----------------------
   0 Pd:   -0.839369
   1 Cl:   -0.072469
   2 Cl:   -0.595680
   3 Cl:   -0.075945
   4 N :    0.055640
   5 C :    0.021956
   6 C :   -0.155637
   7 C :   -0.086910
   8 C :    0.097378
   9 C :   -0.049433
  10 H :    0.136169
  11 H :    0.171863
  12 H :    0.142445
  13 C :    0.005294
  14 C :   -0.132092
  15 C :   -0.118303
  16 C :   -0.034271
  17 H :    0.132696
  18 H :    0.133059
  19 C :   -0.088325
  20 C :   -0.125692
  21 C :   -0.077320
  22 C :   -0.129274
  23 H :    0.129562
  24 H :    0.132192
  25 H :    0.260290
  26 H :    0.162172

  Mayer bond orders larger than 0.100000
B(  0-Pd,  1-Cl) :   0.9085 B(  0-Pd,  2-Cl) :   0.2492 B(  0-Pd,  3-Cl) :   0.8747
B(  0-Pd,  4-N ) :   0.4009 B(  0-Pd, 19-C ) :   0.2669 B(  2-Cl, 25-H ) :   0.2782
B(  4-N ,  5-C ) :   1.4898 B(  4-N ,  8-C ) :   1.1459 B(  5-C ,  6-C ) :   1.3034
B(  5-C , 11-H ) :   0.8738 B(  6-C ,  7-C ) :   1.4691 B(  6-C , 12-H ) :   0.9196
B(  7-C ,  9-C ) :   1.2701 B(  7-C , 10-H ) :   0.9285 B(  8-C ,  9-C ) :   1.2493
B(  8-C , 13-C ) :   1.1401 B(  9-C , 14-C ) :   1.1617 B( 13-C , 16-C ) :   1.3115
B( 13-C , 19-C ) :   1.1988 B( 14-C , 15-C ) :   1.6553 B( 14-C , 17-H ) :   0.9289
B( 15-C , 16-C ) :   1.1532 B( 15-C , 18-H ) :   0.9278 B( 16-C , 20-C ) :   1.2624
B( 19-C , 21-C ) :   1.4623 B( 19-C , 25-H ) :   0.5495 B( 20-C , 22-C ) :   1.4853
B( 20-C , 23-H ) :   0.9309 B( 21-C , 22-C ) :   1.3354 B( 21-C , 26-H ) :   0.9031
B( 22-C , 24-H ) :   0.9237

Dispersion correction           -0.024994333
FINAL SINGLE POINT ENERGY     -2061.490976271045
Dispersion correction            ... done

DIPOLE MOMENT
-------------
                                X             Y             Z
Electronic contribution:    -85.33736     -57.70205       8.36174
Nuclear contribution   :     87.57457      62.10351      -9.58346
                        -----------------------------------------
Total Dipole Moment    :      2.23721       4.40146      -1.22172
                        -----------------------------------------
Magnitude (a.u.)       :      5.08631
Magnitude (Debye)      :     12.92838

Rotational constants in cm-1:     0.011825     0.008490     0.006366
Rotational constants in MHz :   354.511876   254.538115   190.857864

                      ***********************HURRAY********************
                             ****ORCA TERMINATED NORMALLY****
TOTAL RUN TIME: 0 days 8 hours 5 minutes 1 seconds 44 msec
