                         Program Version 5.0.4 -  RELEASE  -
|  1> %pal nprocs 8 end
|  2>
|  3>  *xyzfile 0 1 IEIP_ts_guess.xyz
|  4>
|  5>
|  6>                          ****END OF INPUT****
|  1>
|  2>
|  3>   ! PBEh-3c OptTS Freq pal8
|  4>
|  5>   %geom
|  6>    calc_hess true
|  7>    recalc_hess 20
|  8>    maxiter 600
|  9>   end
| 10>
| 11>
| 12>                          ****END OF INPUT****
 Total Charge           Charge          ....    0
 Multiplicity           Mult            ....    1
 Number of Electrons    NEL             ....  106
Dispersion correction           -0.013550772
FINAL SINGLE POINT ENERGY      -737.108481698962
Dispersion correction            ... done
Dispersion correction in the Hessian             ... done   (      0.6 sec)
Dispersion correction           -0.013484712
FINAL SINGLE POINT ENERGY      -737.110839923983
Dispersion correction            ... done
Dispersion correction           -0.013435158
FINAL SINGLE POINT ENERGY      -737.113140594907
FINAL SINGLE POINT ENERGY      -737.115293602964
FINAL SINGLE POINT ENERGY      -737.117005000931
FINAL SINGLE POINT ENERGY      -737.118263022836
FINAL SINGLE POINT ENERGY      -737.119097368101
FINAL SINGLE POINT ENERGY      -737.119626706181
FINAL SINGLE POINT ENERGY      -737.119989658680
FINAL SINGLE POINT ENERGY      -737.120235640903
FINAL SINGLE POINT ENERGY      -737.120694311550
FINAL SINGLE POINT ENERGY      -737.120705877327
FINAL SINGLE POINT ENERGY      -737.120698716373
FINAL SINGLE POINT ENERGY      -737.120704868226
FINAL SINGLE POINT ENERGY      -737.120702244877
FINAL SINGLE POINT ENERGY      -737.120703593143
FINAL SINGLE POINT ENERGY      -737.120703648507
Dispersion correction           -0.013253484
FINAL SINGLE POINT ENERGY      -737.120703035408
Dispersion correction            ... done
                    ***********************HURRAY********************
Dispersion correction           -0.013253477
FINAL SINGLE POINT ENERGY      -737.120703989589
Dispersion correction in the Hessian             ... done   (      0.6 sec)

VIBRATIONAL FREQUENCIES
-----------------------

Scaling factor for frequencies =  1.000000000  (already applied!)

   0:         0.00 cm**-1
   1:         0.00 cm**-1
   2:         0.00 cm**-1
   3:         0.00 cm**-1
   4:         0.00 cm**-1
   5:         0.00 cm**-1
   6:     -1120.79 cm**-1 ***imaginary mode***
   7:        23.78 cm**-1
   8:        76.22 cm**-1
   9:        89.54 cm**-1
  10:        95.29 cm**-1
  11:       145.48 cm**-1
  12:       155.35 cm**-1
  13:       168.70 cm**-1
  14:       204.76 cm**-1
  15:       273.71 cm**-1
  16:       315.65 cm**-1
  17:       341.95 cm**-1
  18:       375.26 cm**-1
  19:       384.58 cm**-1
  20:       417.47 cm**-1
  21:       424.79 cm**-1
  22:       475.22 cm**-1
  23:       527.16 cm**-1
  24:       634.17 cm**-1
  25:       691.98 cm**-1
  26:       738.94 cm**-1
  27:       790.64 cm**-1
  28:       831.64 cm**-1
  29:       859.06 cm**-1
  30:       901.57 cm**-1
  31:      1000.16 cm**-1
  32:      1037.85 cm**-1
  33:      1042.84 cm**-1
  34:      1061.90 cm**-1
  35:      1067.71 cm**-1
  36:      1097.64 cm**-1
  37:      1108.12 cm**-1
  38:      1108.87 cm**-1
  39:      1126.82 cm**-1
  40:      1215.81 cm**-1
  41:      1241.21 cm**-1
  42:      1258.47 cm**-1
  43:      1356.91 cm**-1
  44:      1362.68 cm**-1
  45:      1403.54 cm**-1
  46:      1409.35 cm**-1
  47:      1436.28 cm**-1
  48:      1468.43 cm**-1
  49:      1473.39 cm**-1
  50:      1528.47 cm**-1
  51:      1558.26 cm**-1
  52:      1680.36 cm**-1
  53:      1685.80 cm**-1
  54:      1700.51 cm**-1
  55:      1806.03 cm**-1
  56:      3120.29 cm**-1
  57:      3127.33 cm**-1
  58:      3252.62 cm**-1
  59:      3259.82 cm**-1
  60:      3269.47 cm**-1
  61:      3282.33 cm**-1
  62:      3290.12 cm**-1

IR SPECTRUM
-----------

 Mode   freq       eps      Int      T**2         TX        TY        TZ
       cm**-1   L/(mol*cm) km/mol    a.u.
----------------------------------------------------------------------------
  7:     23.78   0.000018    0.09  0.000231  (-0.014050  0.004806 -0.003245)
  8:     76.22   0.000210    1.06  0.000859  (-0.004462 -0.026938 -0.010670)
  9:     89.54   0.000077    0.39  0.000267  ( 0.005600 -0.004453  0.014679)
 10:     95.29   0.000044    0.22  0.000145  ( 0.003537  0.008633  0.007585)
 11:    145.48   0.003361   16.99  0.007211  (-0.041959 -0.067547 -0.029793)
 12:    155.35   0.000588    2.97  0.001182  (-0.019302  0.027229 -0.008219)
 13:    168.70   0.000883    4.46  0.001632  ( 0.021147  0.031219 -0.014515)
 14:    204.76   0.000436    2.20  0.000665  (-0.020449 -0.008728 -0.013051)
 15:    273.71   0.003520   17.79  0.004013  ( 0.011942  0.055701  0.027716)
 16:    315.65   0.002050   10.36  0.002026  (-0.029370  0.002915 -0.033989)
 17:    341.95   0.004946   25.00  0.004514  (-0.036372 -0.016752  0.053949)
 18:    375.26   0.003192   16.13  0.002655  (-0.018865  0.026123 -0.040206)
 19:    384.58   0.012057   60.93  0.009784  (-0.098629 -0.002449  0.007088)
 20:    417.47   0.000505    2.55  0.000378  (-0.001399  0.006067 -0.018411)
 21:    424.79   0.002663   13.46  0.001956  ( 0.035245  0.023797 -0.012144)
 22:    475.22   0.017486   88.37  0.011483  ( 0.024185 -0.092457 -0.048469)
 23:    527.16   0.004018   20.30  0.002378  ( 0.040444  0.026678  0.005555)
 24:    634.17   0.000031    0.16  0.000015  (-0.002388  0.001580 -0.002646)
 25:    691.98   0.005168   26.12  0.002331  (-0.012840 -0.044077 -0.014936)
 26:    738.94   0.020085  101.50  0.008482  (-0.043002  0.053520  0.061388)
 27:    790.64   0.007723   39.03  0.003048  ( 0.045250  0.003162 -0.031473)
 28:    831.64   0.010671   53.93  0.004004  ( 0.027631  0.053605  0.019163)
 29:    859.06   0.024077  121.68  0.008746  ( 0.080125 -0.022869 -0.042465)
 30:    901.57   0.000014    0.07  0.000005  (-0.001030  0.001814 -0.000761)
 31:   1000.16   0.001433    7.24  0.000447  (-0.006838  0.014957  0.013290)
 32:   1037.85   0.000956    4.83  0.000287  (-0.002243  0.013183  0.010418)
 33:   1042.84   0.000031    0.16  0.000009  (-0.000471  0.000616  0.002933)
 34:   1061.90   0.005259   26.58  0.001546  ( 0.015318  0.033868  0.012801)
 35:   1067.71   0.004428   22.38  0.001294  (-0.013273 -0.031406 -0.011480)
 36:   1097.64   0.011552   58.38  0.003284  ( 0.024704  0.048828  0.017024)
 37:   1108.12   0.000563    2.85  0.000159  ( 0.009075  0.006011  0.006329)
 38:   1108.87   0.000045    0.23  0.000013  (-0.002549 -0.000589 -0.002425)
 39:   1126.82   0.002962   14.97  0.000820  ( 0.017949  0.010901  0.019473)
 40:   1215.81   0.001710    8.64  0.000439  ( 0.014897  0.001819  0.014620)
 41:   1241.21   0.006723   33.98  0.001690  ( 0.028513  0.027832  0.010135)
 42:   1258.47   0.012650   63.93  0.003137  (-0.033769 -0.036759 -0.025403)
 43:   1356.91   0.006051   30.58  0.001392  (-0.012009 -0.030129 -0.018432)
 44:   1362.68   0.080042  404.50  0.018330  (-0.075920 -0.109772 -0.022726)
 45:   1403.54   0.003460   17.49  0.000769  ( 0.001886 -0.023792  0.014134)
 46:   1409.35   0.005220   26.38  0.001156  ( 0.026116  0.015422 -0.015364)
 47:   1436.28   0.013082   66.11  0.002842  (-0.006141 -0.046171 -0.025940)
 48:   1468.43   0.032748  165.50  0.006960  (-0.074626  0.018177  0.032559)
 49:   1473.39   0.014132   71.42  0.002993  ( 0.046026 -0.011199 -0.027374)
 50:   1528.47   0.006602   33.36  0.001348  (-0.003292  0.027324 -0.024299)
 51:   1558.26   0.001837    9.28  0.000368  ( 0.005263  0.016773  0.007674)
 52:   1680.36   0.000154    0.78  0.000029  ( 0.001831 -0.003303  0.003790)
 53:   1685.80   0.039083  197.51  0.007235  ( 0.043316  0.073121  0.003429)
 54:   1700.51   0.002818   14.24  0.000517  ( 0.010456  0.018027  0.009102)
 55:   1806.03   0.126739  640.49  0.021899  ( 0.092417 -0.040423 -0.108279)
 56:   3120.29   0.009902   50.04  0.000990  ( 0.004891 -0.027553 -0.014395)
 57:   3127.33   0.016947   85.64  0.001691  (-0.035996  0.009084  0.017689)
 58:   3252.62   0.000446    2.26  0.000043  ( 0.002496 -0.006043  0.000310)
 59:   3259.82   0.000225    1.14  0.000022  ( 0.001724 -0.000768  0.004244)
 60:   3269.47   0.000324    1.64  0.000031  ( 0.000523  0.004257  0.003538)
 61:   3282.33   0.002434   12.30  0.000231  ( 0.007052 -0.008130  0.010748)
 62:   3290.12   0.002218   11.21  0.000210  (-0.008826 -0.011154 -0.002841)

--------------------------
THERMOCHEMISTRY AT 298.15K
--------------------------

Temperature         ... 298.15 K
Pressure            ... 1.00 atm
Total Mass          ... 274.55 AMU

Throughout the following assumptions are being made:
  (1) The electronic state is orbitally nondegenerate
  (2) There are no thermally accessible electronically excited states
  (3) Hindered rotations indicated by low frequency modes are not
      treated as such but are treated as vibrations and this may
      cause some error
  (4) All equations used are the standard statistical mechanics
      equations for an ideal gas
  (5) All vibrations are strictly harmonic

freq.      23.78  E(vib)   ...       0.56
freq.      76.22  E(vib)   ...       0.49
freq.      89.54  E(vib)   ...       0.47
freq.      95.29  E(vib)   ...       0.47
freq.     145.48  E(vib)   ...       0.41
freq.     155.35  E(vib)   ...       0.40
freq.     168.70  E(vib)   ...       0.38
freq.     204.76  E(vib)   ...       0.35
freq.     273.71  E(vib)   ...       0.28
freq.     315.65  E(vib)   ...       0.25
freq.     341.95  E(vib)   ...       0.23
freq.     375.26  E(vib)   ...       0.21
freq.     384.58  E(vib)   ...       0.20
freq.     417.47  E(vib)   ...       0.18
freq.     424.79  E(vib)   ...       0.18
freq.     475.22  E(vib)   ...       0.15
freq.     527.16  E(vib)   ...       0.13
freq.     634.17  E(vib)   ...       0.09
freq.     691.98  E(vib)   ...       0.07
freq.     738.94  E(vib)   ...       0.06
freq.     790.64  E(vib)   ...       0.05
freq.     831.64  E(vib)   ...       0.04
freq.     859.06  E(vib)   ...       0.04
freq.     901.57  E(vib)   ...       0.03
freq.    1000.16  E(vib)   ...       0.02
freq.    1037.85  E(vib)   ...       0.02
freq.    1042.84  E(vib)   ...       0.02
freq.    1061.90  E(vib)   ...       0.02
freq.    1067.71  E(vib)   ...       0.02
freq.    1097.64  E(vib)   ...       0.02
freq.    1108.12  E(vib)   ...       0.02
freq.    1108.87  E(vib)   ...       0.02
freq.    1126.82  E(vib)   ...       0.01
freq.    1215.81  E(vib)   ...       0.01
freq.    1241.21  E(vib)   ...       0.01
freq.    1258.47  E(vib)   ...       0.01
freq.    1356.91  E(vib)   ...       0.01
freq.    1362.68  E(vib)   ...       0.01
freq.    1403.54  E(vib)   ...       0.00
freq.    1409.35  E(vib)   ...       0.00
freq.    1436.28  E(vib)   ...       0.00
freq.    1468.43  E(vib)   ...       0.00
freq.    1473.39  E(vib)   ...       0.00
freq.    1528.47  E(vib)   ...       0.00
freq.    1558.26  E(vib)   ...       0.00
freq.    1680.36  E(vib)   ...       0.00
freq.    1685.80  E(vib)   ...       0.00
freq.    1700.51  E(vib)   ...       0.00
freq.    1806.03  E(vib)   ...       0.00
freq.    3120.29  E(vib)   ...       0.00
freq.    3127.33  E(vib)   ...       0.00
freq.    3252.62  E(vib)   ...       0.00
freq.    3259.82  E(vib)   ...       0.00
freq.    3269.47  E(vib)   ...       0.00
freq.    3282.33  E(vib)   ...       0.00
freq.    3290.12  E(vib)   ...       0.00

------------
INNER ENERGY
------------

The inner energy is: U= E(el) + E(ZPE) + E(vib) + E(rot) + E(trans)
    E(el)   - is the total energy from the electronic structure calculation
              = E(kin-el) + E(nuc-el) + E(el-el) + E(nuc-nuc)
    E(ZPE)  - the the zero temperature vibrational energy from the frequency calculation
    E(vib)  - the the finite temperature correction to E(ZPE) due to population
              of excited vibrational states
    E(rot)  - is the rotational thermal energy
    E(trans)- is the translational thermal energy

Summary of contributions to the inner energy U:
Electronic energy                ...   -737.12070399 Eh
Zero point energy                ...      0.14986311 Eh      94.04 kcal/mol
Thermal vibrational correction   ...      0.00951741 Eh       5.97 kcal/mol
Thermal rotational correction    ...      0.00141627 Eh       0.89 kcal/mol
Thermal translational correction ...      0.00141627 Eh       0.89 kcal/mol
-----------------------------------------------------------------------
Total thermal energy                   -736.95849092 Eh

Summary of corrections to the electronic energy:
(perhaps to be used in another calculation)
Total thermal correction                  0.01234996 Eh       7.75 kcal/mol
Non-thermal (ZPE) correction              0.14986311 Eh      94.04 kcal/mol
-----------------------------------------------------------------------
Total correction                          0.16221307 Eh     101.79 kcal/mol

--------
ENTHALPY
--------

The enthalpy is H = U + kB*T
                kB is Boltzmann's constant
Total free energy                 ...   -736.95849092 Eh
Thermal Enthalpy correction       ...      0.00094421 Eh       0.59 kcal/mol
-----------------------------------------------------------------------
Total Enthalpy                    ...   -736.95754671 Eh

Note: Only C1 symmetry has been detected, increase convergence thresholds
      if your molecule has a higher symmetry. Symmetry factor of 1.0 is
      used for the rotational entropy correction.

Note: Rotational entropy computed according to Herzberg
Infrared and Raman Spectra, Chapter V,1, Van Nostrand Reinhold, 1945
Point Group:  C1, Symmetry Number:   1
Rotational constants in cm-1:     0.029027     0.018812     0.013037

Vibrational entropy computed according to the QRRHO of S. Grimme
Chem.Eur.J. 2012 18 9955

-------
ENTROPY
-------

The entropy contributions are T*S = T*(S(el)+S(vib)+S(rot)+S(trans))
     S(el)   - electronic entropy
     S(vib)  - vibrational entropy
     S(rot)  - rotational entropy
     S(trans)- translational entropy
The entropies will be listed as multiplied by the temperature to get
units of energy

Electronic entropy                ...      0.00000000 Eh      0.00 kcal/mol
Vibrational entropy               ...      0.01698078 Eh     10.66 kcal/mol
Rotational entropy                ...      0.01510636 Eh      9.48 kcal/mol
Translational entropy             ...      0.02030161 Eh     12.74 kcal/mol
-----------------------------------------------------------------------
Final entropy term                ...      0.05238876 Eh     32.87 kcal/mol

In case the symmetry of your molecule has not been determined correctly
or in case you have a reason to use a different symmetry number we print
out the resulting rotational entropy values for sn=1,12 :
 --------------------------------------------------------
|  sn= 1 | S(rot)=       0.01510636 Eh      9.48 kcal/mol|
|  sn= 2 | S(rot)=       0.01445191 Eh      9.07 kcal/mol|
|  sn= 3 | S(rot)=       0.01406907 Eh      8.83 kcal/mol|
|  sn= 4 | S(rot)=       0.01379745 Eh      8.66 kcal/mol|
|  sn= 5 | S(rot)=       0.01358676 Eh      8.53 kcal/mol|
|  sn= 6 | S(rot)=       0.01341462 Eh      8.42 kcal/mol|
|  sn= 7 | S(rot)=       0.01326907 Eh      8.33 kcal/mol|

|  1>
|  2>
|  3>   ! PBEh-3c IRC pal8
|  4>   %irc
|  5>     maxiter 600
|  6>     inithess read
|  7>     hess_filename "reaction-0-ieip_optts_Compound_1.hess"
|  8>   end
|  9>
| 10>
| 11>                          ****END OF INPUT****

CARTESIAN COORDINATES (ANGSTROEM)
---------------------------------
  C     -1.338251    0.140268   -0.739759
  C     -1.966636   -0.962944   -1.290159
  C     -1.738490   -2.219711   -0.745617
  C     -0.898198   -2.376322    0.351184
  C     -0.462455    0.012512    0.352735
  C     -0.265164   -1.272664    0.889399
  H     -1.534307    1.123351   -1.152334
  H     -2.630745   -0.849907   -2.136678
  H     -2.224249   -3.086312   -1.175604
  H      0.392882   -1.398849    1.740655
  H     -0.736087   -3.359572    0.772286
  Pd     1.346159    1.025031   -0.030617
  O      3.305172    1.362197   -0.784670
  O      2.263205   -0.537018   -0.932819
  O      0.830504    2.775299    0.769684
  C     -0.077636    2.885814    1.629173
  O     -0.862754    1.997429    2.008923
  H     -0.646380    0.954951    1.249202
  C      3.284364    0.171229   -1.163483
  H      4.139773   -0.268399   -1.693313
  H     -0.180177    3.881127    2.080534

 Multiplicity           Mult            ....    1
 Number of Electrons    NEL             ....  106
 Basis Dimension        Dim             ....  227

ORBITAL ENERGIES
----------------

  NO   OCC          E(Eh)            E(eV)
   0   2.0000     -19.530735      -531.4583
   1   2.0000     -19.518554      -531.1269
   2   2.0000     -19.517462      -531.0971
   3   2.0000     -19.511121      -530.9246
   4   2.0000     -10.587946      -288.1127
   5   2.0000     -10.578783      -287.8633
   6   2.0000     -10.473665      -285.0029
   7   2.0000     -10.471894      -284.9547
   8   2.0000     -10.470048      -284.9045
   9   2.0000     -10.462092      -284.6880
  10   2.0000     -10.461369      -284.6683
  11   2.0000     -10.454055      -284.4693
  12   2.0000      -3.674547       -99.9895
  13   2.0000      -2.323738       -63.2321
  14   2.0000      -2.317576       -63.0644
  15   2.0000      -2.285504       -62.1917
  16   2.0000      -1.222640       -33.2697
  17   2.0000      -1.218114       -33.1466
  18   2.0000      -1.128109       -30.6974
  19   2.0000      -1.104540       -30.0561
  20   2.0000      -0.971562       -26.4375
  21   2.0000      -0.855191       -23.2709
  22   2.0000      -0.852264       -23.1913
  23   2.0000      -0.716677       -19.5018
  24   2.0000      -0.695427       -18.9235
  25   2.0000      -0.687936       -18.7197
  26   2.0000      -0.684442       -18.6246
  27   2.0000      -0.614223       -16.7138
  28   2.0000      -0.593150       -16.1404
  29   2.0000      -0.578658       -15.7461
  30   2.0000      -0.575591       -15.6626
  31   2.0000      -0.547662       -14.9026
  32   2.0000      -0.531374       -14.4594
  33   2.0000      -0.531155       -14.4535
  34   2.0000      -0.522968       -14.2307
  35   2.0000      -0.517546       -14.0831
  36   2.0000      -0.498284       -13.5590
  37   2.0000      -0.488707       -13.2984
  38   2.0000      -0.459336       -12.4992
  39   2.0000      -0.434049       -11.8111
  40   2.0000      -0.421573       -11.4716
  41   2.0000      -0.413367       -11.2483
  42   2.0000      -0.406169       -11.0524
  43   2.0000      -0.401186       -10.9168
  44   2.0000      -0.380586       -10.3563
  45   2.0000      -0.377266       -10.2659
  46   2.0000      -0.370795       -10.0898
  47   2.0000      -0.346864        -9.4386
  48   2.0000      -0.334706        -9.1078
  49   2.0000      -0.327566        -8.9135
  50   2.0000      -0.311631        -8.4799
  51   2.0000      -0.306897        -8.3511
  52   2.0000      -0.298524        -8.1233
  53   0.0000      -0.083320        -2.2673
  54   0.0000       0.001820         0.0495
  55   0.0000       0.002412         0.0656
  56   0.0000       0.027135         0.7384
  57   0.0000       0.041643         1.1332

MULLIKEN ATOMIC CHARGES
-----------------------
   0 C :   -0.104834
   1 C :   -0.223380
   2 C :   -0.200569
   3 C :   -0.219264
   4 C :   -0.645647
   5 C :   -0.107930
   6 H :    0.245529
   7 H :    0.229126
   8 H :    0.234929
   9 H :    0.243446
  10 H :    0.228550
  11 Pd:    0.526184
  12 O :   -0.451654
  13 O :   -0.473694
  14 O :   -0.468522
  15 C :    0.367563
  16 O :   -0.476782
  17 H :    0.474572
  18 C :    0.407970
  19 H :    0.198427
  20 H :    0.215978
Sum of atomic charges:   -0.0000000

LOEWDIN ATOMIC CHARGES
----------------------
   0 C :   -0.055366
   1 C :   -0.138200
   2 C :   -0.085173
   3 C :   -0.135129
   4 C :   -0.194674
   5 C :   -0.051755
   6 H :    0.155158
   7 H :    0.141935
   8 H :    0.142275
   9 H :    0.155019
  10 H :    0.142015
  11 Pd:   -0.236671
  12 O :   -0.163655
  13 O :   -0.151583
  14 O :   -0.126807
  15 C :    0.134147
  16 O :   -0.274339
  17 H :    0.340237
  18 C :    0.159644
  19 H :    0.118225
  20 H :    0.124698

  Mayer bond orders larger than 0.100000
B(  0-C ,  1-C ) :   1.4494 B(  0-C ,  4-C ) :   1.2634 B(  0-C ,  6-H ) :   0.9067
B(  1-C ,  2-C ) :   1.4087 B(  1-C ,  7-H ) :   0.9157 B(  2-C ,  3-C ) :   1.3977
B(  2-C ,  8-H ) :   0.9148 B(  3-C ,  5-C ) :   1.4603 B(  3-C , 10-H ) :   0.9156
B(  4-C ,  5-C ) :   1.2785 B(  4-C , 11-Pd) :   0.5662 B(  4-C , 17-H ) :   0.3705
B(  5-C ,  9-H ) :   0.9104 B( 11-Pd, 12-O ) :   0.4645 B( 11-Pd, 13-O ) :   0.5614
B( 11-Pd, 14-O ) :   0.5343 B( 12-O , 13-O ) :   0.1165 B( 12-O , 18-C ) :   1.5332
B( 13-O , 18-C ) :   1.4325 B( 14-O , 15-C ) :   1.4827 B( 14-O , 16-O ) :   0.1124
B( 15-C , 16-O ) :   1.5834 B( 15-C , 20-H ) :   0.8763 B( 16-O , 17-H ) :   0.3318
B( 18-C , 19-H ) :   0.8866

Dispersion correction           -0.013253477
FINAL SINGLE POINT ENERGY      -737.120704005576
Dispersion correction            ... done

DIPOLE MOMENT
-------------
                                X             Y             Z
Electronic contribution:     51.93810      37.49926      -3.01165
Nuclear contribution   :    -52.50393     -38.21576       2.78178
                        -----------------------------------------
Total Dipole Moment    :     -0.56583      -0.71650      -0.22987
                        -----------------------------------------
Magnitude (a.u.)       :      0.94148
Magnitude (Debye)      :      2.39304

Rotational constants in cm-1:     0.029027     0.018812     0.013037
Rotational constants in MHz :   870.204972   563.980595   390.849140

                      ***********************HURRAY********************
                             ****ORCA TERMINATED NORMALLY****
TOTAL RUN TIME: 0 days 7 hours 2 minutes 49 seconds 256 msec
