                         Program Version 5.0.3 -  RELEASE  -
|  1> ! EnGrad PBEh-3c
|  2> %output
|  3> xyzfile=True
|  4> end
|  5> %scf
|  6> maxiter 250
|  7> end
|  8> %output
|  9> Print[P_Hirshfeld] = 1
| 10> end
| 11> % maxcore
| 12> 4000
| 13> %pal nprocs 4
| 14> end
| 15> *xyz -1 1
| 16> Pt  -0.46455000  -0.66687000   0.30881000
| 17> Cl   0.06390000  -0.01591000   2.47910000
| 18> Cl  -2.47693000  -1.69578000   1.05812000
| 19> Cl  -0.91617000  -1.30728000  -1.88097000
| 20> C    0.59059000   0.94668000  -0.42006000
| 21> H    1.31055000   1.32471000   0.30473000
| 22> H    0.97717000  -1.03430000   0.10847000
| 23> H    1.08761000   0.73787000  -1.36676000
| 24> H   -0.17217000   1.71088000  -0.59142000
| 25> *
| 26>
| 27>                          ****END OF INPUT****

CARTESIAN COORDINATES (ANGSTROEM)
---------------------------------
  Pt    -0.464550   -0.666870    0.308810
  Cl     0.063900   -0.015910    2.479100
  Cl    -2.476930   -1.695780    1.058120
  Cl    -0.916170   -1.307280   -1.880970
  C      0.590590    0.946680   -0.420060
  H      1.310550    1.324710    0.304730
  H      0.977170   -1.034300    0.108470
  H      1.087610    0.737870   -1.366760
  H     -0.172170    1.710880   -0.591420

 Total Charge           Charge          ....   -1
 Multiplicity           Mult            ....    1
 Number of Electrons    NEL             ....   80
 Basis Dimension        Dim             ....  109

ORBITAL ENERGIES
----------------

  NO   OCC          E(Eh)            E(eV)
   0   2.0000    -102.100536     -2778.2968
   1   2.0000    -102.100353     -2778.2919
   2   2.0000    -102.076107     -2777.6321
   3   2.0000     -10.318952      -280.7929
   4   2.0000      -9.564830      -260.2723
   5   2.0000      -9.564589      -260.2657
   6   2.0000      -9.540624      -259.6136
   7   2.0000      -7.251176      -197.3145
   8   2.0000      -7.250924      -197.3077
   9   2.0000      -7.245635      -197.1638
  10   2.0000      -7.245415      -197.1578
  11   2.0000      -7.245233      -197.1528
  12   2.0000      -7.245011      -197.1468
  13   2.0000      -7.225762      -196.6230
  14   2.0000      -7.222535      -196.5352
  15   2.0000      -7.221245      -196.5001
  16   2.0000      -4.003009      -108.9274
  17   2.0000      -2.212945       -60.2173
  18   2.0000      -2.203777       -59.9678
  19   2.0000      -2.191115       -59.6233
  20   2.0000      -0.704587       -19.1728
  21   2.0000      -0.687853       -18.7174
  22   2.0000      -0.670901       -18.2561
  23   2.0000      -0.638105       -17.3637
  24   2.0000      -0.375242       -10.2109
  25   2.0000      -0.351094        -9.5538
  26   2.0000      -0.319445        -8.6925
  27   2.0000      -0.306996        -8.3538
  28   2.0000      -0.296803        -8.0764
  29   2.0000      -0.278869        -7.5884
  30   2.0000      -0.255678        -6.9574
  31   2.0000      -0.230539        -6.2733
  32   2.0000      -0.205151        -5.5825
  33   2.0000      -0.197946        -5.3864
  34   2.0000      -0.190977        -5.1968
  35   2.0000      -0.157355        -4.2819
  36   2.0000      -0.154860        -4.2139
  37   2.0000      -0.150079        -4.0839
  38   2.0000      -0.144652        -3.9362
  39   2.0000      -0.143661        -3.9092
  40   0.0000       0.111080         3.0226
  41   0.0000       0.115903         3.1539
  42   0.0000       0.219370         5.9693
  43   0.0000       0.255400         6.9498
  44   0.0000       0.268123         7.2960

MULLIKEN ATOMIC CHARGES
-----------------------
   0 Pt:    0.210752
   1 Cl:   -0.389788
   2 Cl:   -0.438049
   3 Cl:   -0.391588
   4 C :   -0.828667
   5 H :    0.239127
   6 H :    0.127819
   7 H :    0.235880
   8 H :    0.234514
Sum of atomic charges:   -1.0000000

LOEWDIN ATOMIC CHARGES
----------------------
   0 Pt:   -0.786796
   1 Cl:   -0.106515
   2 Cl:   -0.195503
   3 Cl:   -0.106131
   4 C :   -0.394968
   5 H :    0.142754
   6 H :    0.156528
   7 H :    0.140908
   8 H :    0.149721

  Mayer bond orders larger than 0.100000
B(  0-Pt,  1-Cl) :   0.7821 B(  0-Pt,  2-Cl) :   0.7278 B(  0-Pt,  3-Cl) :   0.7773
B(  0-Pt,  4-C ) :   0.7842 B(  0-Pt,  6-H ) :   0.7626 B(  1-Cl,  3-Cl) :   0.1420
B(  2-Cl,  4-C ) :   0.1244 B(  4-C ,  5-H ) :   0.8926 B(  4-C ,  6-H ) :   0.1154
B(  4-C ,  7-H ) :   0.8970 B(  4-C ,  8-H ) :   0.9025

Dispersion correction           -0.005370143
FINAL SINGLE POINT ENERGY     -1539.031441505518
Dispersion correction            ... done

DIPOLE MOMENT
-------------
                                X             Y             Z
Electronic contribution:     17.95863      -0.30409      -3.70312
Nuclear contribution   :    -16.74374       1.09792       3.19548
                        -----------------------------------------
Total Dipole Moment    :      1.21488       0.79383      -0.50764
                        -----------------------------------------
Magnitude (a.u.)       :      1.53747
Magnitude (Debye)      :      3.90794

Rotational constants in cm-1:     0.063699     0.042287     0.026491
Rotational constants in MHz :  1909.662420  1267.727625   794.168282

                             ****ORCA TERMINATED NORMALLY****
TOTAL RUN TIME: 0 days 0 hours 0 minutes 13 seconds 602 msec
