                         Program Version 5.0.3 -  RELEASE  -
|  1> ! EnGrad PBEh-3c
|  2> %output
|  3> xyzfile=True
|  4> end
|  5> %scf
|  6> maxiter 250
|  7> end
|  8> %output
|  9> Print[P_Hirshfeld] = 1
| 10> end
| 11> % maxcore
| 12> 4000
| 13> *xyz 1 1
| 14> Ir   0.49476969  -0.75852666   0.75909089
| 15> C   -0.07336391  -2.79914691   1.40492599
| 16> C    0.49309881  -2.09461613   2.51486946
| 17> C    2.04656044  -2.17419421   0.79867773
| 18> C    0.87305268  -2.84981644   0.35998723
| 19> C    1.81206651  -1.79308644   2.15152160
| 20> N   -1.03500796  -0.03507354  -0.43928866
| 21> C   -2.44153227  -0.02131438   0.00837470
| 22> C   -2.88160665   1.33007953   0.53659885
| 23> H   -3.91062843   1.32227166   0.89693469
| 24> H   -2.79219731   2.10238147  -0.22777600
| 25> H   -2.31426222   1.62065066   1.41476344
| 26> C   -3.46473864  -0.50998705  -1.00355196
| 27> H   -2.49036066  -0.70924869   0.85240918
| 28> H   -4.43726970  -0.64754351  -0.53701602
| 29> H   -3.62285493   0.19257337  -1.82445300
| 30> H   -3.17493220  -1.47410176  -1.42499001
| 31> C   -0.77747149   0.25376150  -1.66020549
| 32> C    0.51060038   0.23325174  -2.27657501
| 33> H   -1.58248585   0.54534919  -2.32955853
| 34> C    1.69006597  -0.07265032  -1.65637701
| 35> C    2.79941028  -0.06859998  -2.52734663
| 36> S    0.74138297   0.20667737  -3.98221073
| 37> C    2.41374459   0.01169890  -3.83474058
| 38> H    2.24933335   1.16065226  -0.81031894
| 39> H    3.84713538  -0.11497017  -2.26408920
| 40> H    3.04133878  -0.08307699  -4.70788781
| 41> H   -0.88949007  -3.49664789   1.49679314
| 42> H    0.04234315  -2.00995788   3.48688930
| 43> H    2.57186902  -1.41379745   2.81009610
| 44> O    1.89663653   1.91250187   0.55672235
| 45> O    0.24837960   1.12856916   1.68523660
| 46> C    0.94206553   2.10283457   1.37265688
| 47> C    0.85309602   3.43500837   2.01704451
| 48> H    0.85829910   4.21211868   1.25422019
| 49> H    1.71442699   3.61439196   2.66170739
| 50> H   -0.04920314   3.50496024   2.61599960
| 51> H    3.02003395  -2.28981526   0.36058989
| 52> H    0.77769581  -3.47354093  -0.50971912
| 53> *
| 54>
| 55>                          ****END OF INPUT****

CARTESIAN COORDINATES (ANGSTROEM)
---------------------------------
  Ir     0.494770   -0.758527    0.759091
  C     -0.073364   -2.799147    1.404926
  C      0.493099   -2.094616    2.514869
  C      2.046560   -2.174194    0.798678
  C      0.873053   -2.849816    0.359987
  C      1.812067   -1.793086    2.151522
  N     -1.035008   -0.035074   -0.439289
  C     -2.441532   -0.021314    0.008375
  C     -2.881607    1.330080    0.536599
  H     -3.910628    1.322272    0.896935
  H     -2.792197    2.102381   -0.227776
  H     -2.314262    1.620651    1.414763
  C     -3.464739   -0.509987   -1.003552
  H     -2.490361   -0.709249    0.852409
  H     -4.437270   -0.647544   -0.537016
  H     -3.622855    0.192573   -1.824453
  H     -3.174932   -1.474102   -1.424990
  C     -0.777471    0.253761   -1.660205
  C      0.510600    0.233252   -2.276575
  H     -1.582486    0.545349   -2.329559
  C      1.690066   -0.072650   -1.656377
  C      2.799410   -0.068600   -2.527347
  S      0.741383    0.206677   -3.982211
  C      2.413745    0.011699   -3.834741
  H      2.249333    1.160652   -0.810319
  H      3.847135   -0.114970   -2.264089
  H      3.041339   -0.083077   -4.707888
  H     -0.889490   -3.496648    1.496793
  H      0.042343   -2.009958    3.486889
  H      2.571869   -1.413797    2.810096
  O      1.896637    1.912502    0.556722
  O      0.248380    1.128569    1.685237
  C      0.942066    2.102835    1.372657
  C      0.853096    3.435008    2.017045
  H      0.858299    4.212119    1.254220
  H      1.714427    3.614392    2.661707
  H     -0.049203    3.504960    2.616000
  H      3.020034   -2.289815    0.360590
  H      0.777696   -3.473541   -0.509719

 Total Charge           Charge          ....    1
 Multiplicity           Mult            ....    1
 Number of Electrons    NEL             ....  164
 Basis Dimension        Dim             ....  358

ORBITAL ENERGIES
----------------

  NO   OCC          E(Eh)            E(eV)
   0   2.0000     -89.757988     -2442.4390
   1   2.0000     -19.616012      -533.7788
   2   2.0000     -19.567701      -532.4642
   3   2.0000     -14.831053      -403.5735
   4   2.0000     -10.672922      -290.4250
   5   2.0000     -10.653577      -289.8986
   6   2.0000     -10.636804      -289.4422
   7   2.0000     -10.633304      -289.3469
   8   2.0000     -10.631669      -289.3024
   9   2.0000     -10.616837      -288.8988
  10   2.0000     -10.616141      -288.8799
  11   2.0000     -10.615135      -288.8525
  12   2.0000     -10.608576      -288.6740
  13   2.0000     -10.606869      -288.6276
  14   2.0000     -10.588973      -288.1406
  15   2.0000     -10.584757      -288.0259
  16   2.0000     -10.547243      -287.0051
  17   2.0000     -10.536061      -286.7008
  18   2.0000     -10.533610      -286.6341
  19   2.0000      -8.397581      -228.5098
  20   2.0000      -6.287226      -171.0841
  21   2.0000      -6.283804      -170.9910
  22   2.0000      -6.282877      -170.9658
  23   2.0000      -4.027314      -109.5888
  24   2.0000      -2.347373       -63.8753
  25   2.0000      -2.310678       -62.8767
  26   2.0000      -2.309055       -62.8326
  27   2.0000      -1.305274       -35.5183
  28   2.0000      -1.201054       -32.6823
  29   2.0000      -1.179084       -32.0845
  30   2.0000      -1.172152       -31.8959
  31   2.0000      -1.126491       -30.6534
  32   2.0000      -1.016333       -27.6558
  33   2.0000      -0.980967       -26.6935
  34   2.0000      -0.977043       -26.5867
  35   2.0000      -0.965654       -26.2768
  36   2.0000      -0.950916       -25.8757
  37   2.0000      -0.929133       -25.2830
  38   2.0000      -0.890369       -24.2282
  39   2.0000      -0.867316       -23.6009
  40   2.0000      -0.795622       -21.6500
  41   2.0000      -0.784011       -21.3340
  42   2.0000      -0.782788       -21.3008
  43   2.0000      -0.776211       -21.1218
  44   2.0000      -0.771398       -20.9908
  45   2.0000      -0.738236       -20.0884
  46   2.0000      -0.729630       -19.8543
  47   2.0000      -0.697828       -18.9889
  48   2.0000      -0.681656       -18.5488
  49   2.0000      -0.664142       -18.0722
  50   2.0000      -0.659094       -17.9349
  51   2.0000      -0.647544       -17.6206
  52   2.0000      -0.644025       -17.5248
  53   2.0000      -0.639439       -17.4000
  54   2.0000      -0.637848       -17.3567
  55   2.0000      -0.628701       -17.1078
  56   2.0000      -0.620128       -16.8745
  57   2.0000      -0.606188       -16.4952
  58   2.0000      -0.604645       -16.4532
  59   2.0000      -0.602635       -16.3985
  60   2.0000      -0.592730       -16.1290
  61   2.0000      -0.583987       -15.8911
  62   2.0000      -0.570587       -15.5265
  63   2.0000      -0.557159       -15.1611
  64   2.0000      -0.555520       -15.1165
  65   2.0000      -0.548740       -14.9320
  66   2.0000      -0.539721       -14.6866
  67   2.0000      -0.538688       -14.6585
  68   2.0000      -0.532267       -14.4837
  69   2.0000      -0.517294       -14.0763
  70   2.0000      -0.508972       -13.8498
  71   2.0000      -0.505874       -13.7655
  72   2.0000      -0.502292       -13.6681
  73   2.0000      -0.489307       -13.3147
  74   2.0000      -0.467689       -12.7265
  75   2.0000      -0.465946       -12.6790
  76   2.0000      -0.452250       -12.3064
  77   2.0000      -0.442789       -12.0489
  78   2.0000      -0.424165       -11.5421
  79   2.0000      -0.417721       -11.3668
  80   2.0000      -0.405992       -11.0476
  81   2.0000      -0.390775       -10.6335
  82   0.0000      -0.217620        -5.9217
  83   0.0000      -0.182891        -4.9767
  84   0.0000      -0.153232        -4.1697
  85   0.0000      -0.089802        -2.4436
  86   0.0000      -0.079786        -2.1711

MULLIKEN ATOMIC CHARGES
-----------------------
   0 Ir:    0.637489
   1 C :   -0.258807
   2 C :   -0.222056
   3 C :   -0.248566
   4 C :   -0.224225
   5 C :   -0.175176
   6 N :   -0.486113
   7 C :   -0.124075
   8 C :   -0.639067
   9 H :    0.249699
  10 H :    0.223231
  11 H :    0.268073
  12 C :   -0.675878
  13 H :    0.256688
  14 H :    0.269607
  15 H :    0.227276
  16 H :    0.242885
  17 C :    0.109685
  18 C :   -0.135315
  19 H :    0.271198
  20 C :   -0.355076
  21 C :   -0.172216
  22 S :    0.329379
  23 C :   -0.414708
  24 H :    0.400508
  25 H :    0.273692
  26 H :    0.300469
  27 H :    0.286595
  28 H :    0.293604
  29 H :    0.288399
  30 O :   -0.559523
  31 O :   -0.491861
  32 C :    0.638858
  33 C :   -0.744625
  34 H :    0.267821
  35 H :    0.278380
  36 H :    0.246848
  37 H :    0.284884
  38 H :    0.282016
Sum of atomic charges:    1.0000000

LOEWDIN ATOMIC CHARGES
----------------------
   0 Ir:   -0.183412
   1 C :   -0.025694
   2 C :   -0.026440
   3 C :   -0.011169
   4 C :   -0.080949
   5 C :   -0.069098
   6 N :   -0.026874
   7 C :   -0.064532
   8 C :   -0.354111
   9 H :    0.146903
  10 H :    0.134891
  11 H :    0.148211
  12 C :   -0.361042
  13 H :    0.144602
  14 H :    0.156099
  15 H :    0.132925
  16 H :    0.137093
  17 C :    0.036978
  18 C :   -0.224403
  19 H :    0.153983
  20 C :   -0.207566
  21 C :   -0.168404
  22 S :    0.490206
  23 C :   -0.261977
  24 H :    0.380607
  25 H :    0.160443
  26 H :    0.170328
  27 H :    0.183886
  28 H :    0.188083
  29 H :    0.183716
  30 O :   -0.343939
  31 O :   -0.169810
  32 C :    0.145818
  33 C :   -0.370978
  34 H :    0.166004
  35 H :    0.173065
  36 H :    0.147646
  37 H :    0.187896
  38 H :    0.181015

  Mayer bond orders larger than 0.100000
B(  0-Ir,  1-C ) :   0.4554 B(  0-Ir,  2-C ) :   0.4812 B(  0-Ir,  3-C ) :   0.5215
B(  0-Ir,  4-C ) :   0.4680 B(  0-Ir,  5-C ) :   0.4379 B(  0-Ir,  6-N ) :   0.4822
B(  0-Ir, 20-C ) :   0.2876 B(  0-Ir, 31-O ) :   0.5276 B(  1-C ,  2-C ) :   1.1570
B(  1-C ,  4-C ) :   1.1995 B(  1-C , 27-H ) :   0.9191 B(  2-C ,  5-C ) :   1.1506
B(  2-C , 28-H ) :   0.9108 B(  3-C ,  4-C ) :   1.1108 B(  3-C ,  5-C ) :   1.1721
B(  3-C , 37-H ) :   0.9215 B(  4-C , 38-H ) :   0.9165 B(  5-C , 29-H ) :   0.9117
B(  6-N ,  7-C ) :   0.8925 B(  6-N , 17-C ) :   1.6195 B(  7-C ,  8-C ) :   0.9768
B(  7-C , 12-C ) :   0.9900 B(  7-C , 13-H ) :   0.8926 B(  8-C ,  9-H ) :   0.9067
B(  8-C , 10-H ) :   0.9192 B(  8-C , 11-H ) :   0.9017 B( 12-C , 14-H ) :   0.9040
B( 12-C , 15-H ) :   0.9130 B( 12-C , 16-H ) :   0.9167 B( 17-C , 18-C ) :   1.1121
B( 17-C , 19-H ) :   0.8792 B( 18-C , 20-C ) :   1.2696 B( 18-C , 22-S ) :   1.1847
B( 20-C , 21-C ) :   1.3114 B( 20-C , 24-H ) :   0.4768 B( 21-C , 23-C ) :   1.4692
B( 21-C , 25-H ) :   0.8968 B( 22-S , 23-C ) :   1.2826 B( 23-C , 26-H ) :   0.8862
B( 24-H , 30-O ) :   0.1988 B( 30-O , 32-C ) :   1.5378 B( 31-O , 32-C ) :   1.4045
B( 32-C , 33-C ) :   0.9501 B( 33-C , 34-H ) :   0.9022 B( 33-C , 35-H ) :   0.8959
B( 33-C , 36-H ) :   0.9090

Dispersion correction           -0.029938853
FINAL SINGLE POINT ENERGY     -1288.263316300955
Dispersion correction            ... done

DIPOLE MOMENT
-------------
                                X             Y             Z
Electronic contribution:     27.29251     -75.26043     101.45748
Nuclear contribution   :    -27.63014      74.07784    -101.89056
                        -----------------------------------------
Total Dipole Moment    :     -0.33763      -1.18260      -0.43308
                        -----------------------------------------
Magnitude (a.u.)       :      1.30387
Magnitude (Debye)      :      3.31419

Rotational constants in cm-1:     0.010564     0.007851     0.007332
Rotational constants in MHz :   316.698654   235.376181   219.809023

                             ****ORCA TERMINATED NORMALLY****
TOTAL RUN TIME: 0 days 0 hours 24 minutes 19 seconds 733 msec
