                         Program Version 5.0.3 -  RELEASE  -
|  1> ! EnGrad PBEh-3c
|  2> %output
|  3> xyzfile=True
|  4> end
|  5> %scf
|  6> maxiter 250
|  7> end
|  8> %output
|  9> Print[P_Hirshfeld] = 1
| 10> end
| 11> % maxcore
| 12> 4000
| 13> *xyz 1 1
| 14> Ir   0.51770179  -0.73104287   0.74855925
| 15> C   -0.05893342  -2.81449472   1.41351443
| 16> C    0.47679116  -2.11166516   2.48695526
| 17> C    2.04634600  -2.22004902   0.85029795
| 18> C    0.87128362  -2.86118977   0.35310634
| 19> C    1.85599869  -1.77305977   2.15181109
| 20> N   -1.03882852  -0.05376314  -0.45796346
| 21> C   -2.47278364  -0.02453171   0.03546743
| 22> C   -2.87073918   1.34593879   0.55424353
| 23> H   -3.91347637   1.31059588   0.88764263
| 24> H   -2.79203456   2.10407232  -0.22185071
| 25> H   -2.30173354   1.62209919   1.41529404
| 26> C   -3.45414112  -0.51949984  -1.02657053
| 27> H   -2.48507149  -0.71532145   0.85029932
| 28> H   -4.43565120  -0.64474985  -0.52991864
| 29> H   -3.62312200   0.19468781  -1.82287942
| 30> H   -3.17813542  -1.47218014  -1.43069898
| 31> C   -0.79241342   0.27193964  -1.68667212
| 32> C    0.50969435   0.19764564  -2.29423293
| 33> H   -1.59211388   0.54512079  -2.32409378
| 34> C    1.75181983   0.04201108  -1.53331934
| 35> C    2.79955221  -0.09498302  -2.54094324
| 36> S    0.72188453   0.21370751  -3.99651769
| 37> C    2.40983739   0.00806319  -3.84435853
| 38> H    2.16541128   1.08769418  -0.77979741
| 39> H    3.84163160  -0.12307128  -2.25313966
| 40> H    3.04022203  -0.07430550  -4.70940791
| 41> H   -0.91773869  -3.47511858   1.47832815
| 42> H    0.03132409  -1.99799694   3.48818834
| 43> H    2.56818457  -1.39602372   2.81728746
| 44> O    1.90682505   1.95712677   0.53567225
| 45> O    0.16695699   1.06948973   1.71995977
| 46> C    1.08386449   2.07861353   1.28580149
| 47> C    0.82802340   3.44326326   2.02488831
| 48> H    0.85753203   4.21283143   1.25420339
| 49> H    1.71612827   3.60968162   2.65707062
| 50> H   -0.04966491   3.51295842   2.61805548
| 51> H    3.02778333  -2.26008432   0.35028427
| 52> H    0.78210076  -3.46533206  -0.52442396
| 53> *
| 54>
| 55>                          ****END OF INPUT****

CARTESIAN COORDINATES (ANGSTROEM)
---------------------------------
  Ir     0.517702   -0.731043    0.748559
  C     -0.058933   -2.814495    1.413514
  C      0.476791   -2.111665    2.486955
  C      2.046346   -2.220049    0.850298
  C      0.871284   -2.861190    0.353106
  C      1.855999   -1.773060    2.151811
  N     -1.038829   -0.053763   -0.457963
  C     -2.472784   -0.024532    0.035467
  C     -2.870739    1.345939    0.554244
  H     -3.913476    1.310596    0.887643
  H     -2.792035    2.104072   -0.221851
  H     -2.301734    1.622099    1.415294
  C     -3.454141   -0.519500   -1.026571
  H     -2.485071   -0.715321    0.850299
  H     -4.435651   -0.644750   -0.529919
  H     -3.623122    0.194688   -1.822879
  H     -3.178135   -1.472180   -1.430699
  C     -0.792413    0.271940   -1.686672
  C      0.509694    0.197646   -2.294233
  H     -1.592114    0.545121   -2.324094
  C      1.751820    0.042011   -1.533319
  C      2.799552   -0.094983   -2.540943
  S      0.721885    0.213708   -3.996518
  C      2.409837    0.008063   -3.844359
  H      2.165411    1.087694   -0.779797
  H      3.841632   -0.123071   -2.253140
  H      3.040222   -0.074305   -4.709408
  H     -0.917739   -3.475119    1.478328
  H      0.031324   -1.997997    3.488188
  H      2.568185   -1.396024    2.817287
  O      1.906825    1.957127    0.535672
  O      0.166957    1.069490    1.719960
  C      1.083864    2.078614    1.285801
  C      0.828023    3.443263    2.024888
  H      0.857532    4.212831    1.254203
  H      1.716128    3.609682    2.657071
  H     -0.049665    3.512958    2.618055
  H      3.027783   -2.260084    0.350284
  H      0.782101   -3.465332   -0.524424

 Total Charge           Charge          ....    1
 Multiplicity           Mult            ....    1
 Number of Electrons    NEL             ....  164
 Basis Dimension        Dim             ....  358

ORBITAL ENERGIES
----------------

  NO   OCC          E(Eh)            E(eV)
   0   2.0000     -89.769424     -2442.7502
   1   2.0000     -19.614780      -533.7453
   2   2.0000     -19.600878      -533.3670
   3   2.0000     -14.833399      -403.6373
   4   2.0000     -10.681069      -290.6467
   5   2.0000     -10.651689      -289.8472
   6   2.0000     -10.636270      -289.4276
   7   2.0000     -10.633964      -289.3649
   8   2.0000     -10.631750      -289.3046
   9   2.0000     -10.627034      -289.1763
  10   2.0000     -10.610308      -288.7212
  11   2.0000     -10.609455      -288.6979
  12   2.0000     -10.609316      -288.6942
  13   2.0000     -10.609238      -288.6920
  14   2.0000     -10.604885      -288.5736
  15   2.0000     -10.591470      -288.2086
  16   2.0000     -10.547708      -287.0177
  17   2.0000     -10.533269      -286.6248
  18   2.0000     -10.531522      -286.5773
  19   2.0000      -8.408386      -228.8038
  20   2.0000      -6.298177      -171.3821
  21   2.0000      -6.294700      -171.2875
  22   2.0000      -6.293486      -171.2544
  23   2.0000      -4.019518      -109.3766
  24   2.0000      -2.338013       -63.6206
  25   2.0000      -2.303181       -62.6727
  26   2.0000      -2.301527       -62.6277
  27   2.0000      -1.346980       -36.6532
  28   2.0000      -1.190630       -32.3987
  29   2.0000      -1.170853       -31.8605
  30   2.0000      -1.161911       -31.6172
  31   2.0000      -1.117351       -30.4047
  32   2.0000      -1.012952       -27.5638
  33   2.0000      -0.980006       -26.6673
  34   2.0000      -0.965992       -26.2860
  35   2.0000      -0.965597       -26.2752
  36   2.0000      -0.949792       -25.8452
  37   2.0000      -0.909184       -24.7402
  38   2.0000      -0.890920       -24.2432
  39   2.0000      -0.864415       -23.5219
  40   2.0000      -0.793817       -21.6009
  41   2.0000      -0.780465       -21.2375
  42   2.0000      -0.776019       -21.1166
  43   2.0000      -0.772836       -21.0299
  44   2.0000      -0.764935       -20.8149
  45   2.0000      -0.745565       -20.2879
  46   2.0000      -0.728988       -19.8368
  47   2.0000      -0.700002       -19.0480
  48   2.0000      -0.679127       -18.4800
  49   2.0000      -0.672350       -18.2956
  50   2.0000      -0.654045       -17.7975
  51   2.0000      -0.650121       -17.6907
  52   2.0000      -0.641326       -17.4514
  53   2.0000      -0.638818       -17.3831
  54   2.0000      -0.630965       -17.1694
  55   2.0000      -0.628101       -17.0915
  56   2.0000      -0.618732       -16.8366
  57   2.0000      -0.603463       -16.4211
  58   2.0000      -0.601293       -16.3620
  59   2.0000      -0.595825       -16.2132
  60   2.0000      -0.591979       -16.1086
  61   2.0000      -0.583330       -15.8732
  62   2.0000      -0.565539       -15.3891
  63   2.0000      -0.561318       -15.2743
  64   2.0000      -0.554093       -15.0776
  65   2.0000      -0.550786       -14.9877
  66   2.0000      -0.540281       -14.7018
  67   2.0000      -0.537659       -14.6304
  68   2.0000      -0.532095       -14.4791
  69   2.0000      -0.518361       -14.1053
  70   2.0000      -0.516987       -14.0679
  71   2.0000      -0.510374       -13.8880
  72   2.0000      -0.508748       -13.8437
  73   2.0000      -0.496068       -13.4987
  74   2.0000      -0.484808       -13.1923
  75   2.0000      -0.465060       -12.6549
  76   2.0000      -0.456910       -12.4331
  77   2.0000      -0.435107       -11.8399
  78   2.0000      -0.429206       -11.6793
  79   2.0000      -0.418469       -11.3871
  80   2.0000      -0.414528       -11.2799
  81   2.0000      -0.395203       -10.7540
  82   0.0000      -0.224881        -6.1193
  83   0.0000      -0.182126        -4.9559
  84   0.0000      -0.139307        -3.7907
  85   0.0000      -0.085842        -2.3359
  86   0.0000      -0.082791        -2.2529

MULLIKEN ATOMIC CHARGES
-----------------------
   0 Ir:    0.637309
   1 C :   -0.209978
   2 C :   -0.241360
   3 C :   -0.230447
   4 C :   -0.261697
   5 C :   -0.191565
   6 N :   -0.471441
   7 C :   -0.118029
   8 C :   -0.636297
   9 H :    0.242201
  10 H :    0.221275
  11 H :    0.284874
  12 C :   -0.680956
  13 H :    0.261625
  14 H :    0.262597
  15 H :    0.231625
  16 H :    0.251420
  17 C :    0.105825
  18 C :   -0.196109
  19 H :    0.271988
  20 C :   -0.378878
  21 C :   -0.157767
  22 S :    0.353455
  23 C :   -0.402392
  24 H :    0.389795
  25 H :    0.267619
  26 H :    0.299948
  27 H :    0.286013
  28 H :    0.292839
  29 H :    0.283115
  30 O :   -0.351405
  31 O :   -0.589133
  32 C :    0.574995
  33 C :   -0.737484
  34 H :    0.251853
  35 H :    0.257089
  36 H :    0.266130
  37 H :    0.284019
  38 H :    0.277331
Sum of atomic charges:    1.0000000

LOEWDIN ATOMIC CHARGES
----------------------
   0 Ir:   -0.198735
   1 C :   -0.017696
   2 C :   -0.027067
   3 C :   -0.015488
   4 C :   -0.102852
   5 C :   -0.081749
   6 N :   -0.019943
   7 C :   -0.051213
   8 C :   -0.351948
   9 H :    0.145137
  10 H :    0.134953
  11 H :    0.155409
  12 C :   -0.363111
  13 H :    0.145189
  14 H :    0.155590
  15 H :    0.134474
  16 H :    0.139574
  17 C :    0.020196
  18 C :   -0.193310
  19 H :    0.152472
  20 C :   -0.216292
  21 C :   -0.140777
  22 S :    0.502795
  23 C :   -0.270409
  24 H :    0.321055
  25 H :    0.158014
  26 H :    0.171137
  27 H :    0.183338
  28 H :    0.189212
  29 H :    0.181461
  30 O :   -0.134292
  31 O :   -0.309294
  32 C :    0.156727
  33 C :   -0.383120
  34 H :    0.154742
  35 H :    0.161342
  36 H :    0.150090
  37 H :    0.184598
  38 H :    0.179794

  Mayer bond orders larger than 0.100000
B(  0-Ir,  1-C ) :   0.4086 B(  0-Ir,  2-C ) :   0.4803 B(  0-Ir,  3-C ) :   0.4815
B(  0-Ir,  4-C ) :   0.4219 B(  0-Ir,  5-C ) :   0.4403 B(  0-Ir,  6-N ) :   0.4888
B(  0-Ir, 20-C ) :   0.2332 B(  0-Ir, 31-O ) :   0.6774 B(  1-C ,  2-C ) :   1.1714
B(  1-C ,  4-C ) :   1.2113 B(  1-C , 27-H ) :   0.9161 B(  2-C ,  5-C ) :   1.1431
B(  2-C , 28-H ) :   0.9107 B(  3-C ,  4-C ) :   1.1414 B(  3-C ,  5-C ) :   1.1811
B(  3-C , 37-H ) :   0.9134 B(  4-C , 38-H ) :   0.9201 B(  5-C , 29-H ) :   0.9181
B(  6-N ,  7-C ) :   0.8666 B(  6-N , 17-C ) :   1.6332 B(  7-C ,  8-C ) :   0.9819
B(  7-C , 12-C ) :   0.9903 B(  7-C , 13-H ) :   0.8922 B(  8-C ,  9-H ) :   0.9068
B(  8-C , 10-H ) :   0.9203 B(  8-C , 11-H ) :   0.8922 B( 12-C , 14-H ) :   0.9066
B( 12-C , 15-H ) :   0.9117 B( 12-C , 16-H ) :   0.9129 B( 17-C , 18-C ) :   1.1153
B( 17-C , 19-H ) :   0.8811 B( 18-C , 20-C ) :   1.2546 B( 18-C , 22-S ) :   1.2433
B( 20-C , 21-C ) :   1.2642 B( 20-C , 24-H ) :   0.6339 B( 21-C , 23-C ) :   1.5377
B( 21-C , 25-H ) :   0.9006 B( 22-S , 23-C ) :   1.2145 B( 23-C , 26-H ) :   0.8884
B( 24-H , 30-O ) :   0.1170 B( 30-O , 32-C ) :   1.8953 B( 31-O , 32-C ) :   1.0982
B( 32-C , 33-C ) :   0.9296 B( 33-C , 34-H ) :   0.9072 B( 33-C , 35-H ) :   0.9051
B( 33-C , 36-H ) :   0.9062

Dispersion correction           -0.029406166
FINAL SINGLE POINT ENERGY     -1288.281229800170
Dispersion correction            ... done

DIPOLE MOMENT
-------------
                                X             Y             Z
Electronic contribution:     29.61893     -72.39865     100.10207
Nuclear contribution   :    -29.83680      71.34211    -100.93637
                        -----------------------------------------
Total Dipole Moment    :     -0.21787      -1.05654      -0.83430
                        -----------------------------------------
Magnitude (a.u.)       :      1.36374
Magnitude (Debye)      :      3.46636

Rotational constants in cm-1:     0.010514     0.007844     0.007324
Rotational constants in MHz :   315.188914   235.157799   219.561489

                             ****ORCA TERMINATED NORMALLY****
TOTAL RUN TIME: 0 days 0 hours 23 minutes 19 seconds 581 msec
