                         Program Version 5.0.3 -  RELEASE  -
|  1> ! EnGrad PBEh-3c
|  2> %output
|  3> xyzfile=True
|  4> end
|  5> %scf
|  6> maxiter 250
|  7> end
|  8> %output
|  9> Print[P_Hirshfeld] = 1
| 10> end
| 11> % maxcore
| 12> 4000
| 13> *xyz 1 1
| 14> Ir   0.51478006  -0.73501875   0.75173454
| 15> C   -0.06323128  -2.81887219   1.40791933
| 16> C    0.48592464  -2.10390791   2.49654968
| 17> C    2.05497531  -2.22110018   0.83911648
| 18> C    0.87297219  -2.86031316   0.35644649
| 19> C    1.84012111  -1.77698586   2.15274458
| 20> N   -1.03927959  -0.05201969  -0.46017083
| 21> C   -2.46724736  -0.02184005   0.02813786
| 22> C   -2.87441176   1.34328637   0.55169787
| 23> H   -3.91271520   1.31151358   0.88728046
| 24> H   -2.79178222   2.10449064  -0.22240230
| 25> H   -2.29987229   1.62377324   1.41714417
| 26> C   -3.45861741  -0.51680699  -1.01944892
| 27> H   -2.48544305  -0.71733715   0.85354710
| 28> H   -4.43318376  -0.64492634  -0.53195297
| 29> H   -3.62277408   0.19513319  -1.82421619
| 30> H   -3.17672192  -1.47533672  -1.43196587
| 31> C   -0.78850397   0.26765458  -1.67989953
| 32> C    0.51780043   0.20063087  -2.28330344
| 33> H   -1.59618546   0.54706535  -2.32737709
| 34> C    1.74479577   0.04879161  -1.55135341
| 35> C    2.79817346  -0.09203423  -2.53435483
| 36> S    0.72380093   0.21114717  -3.99199686
| 37> C    2.40877553   0.00653482  -3.84088036
| 38> H    2.16268506   1.07695338  -0.78613299
| 39> H    3.84231297  -0.12308499  -2.25473664
| 40> H    3.04067694  -0.07444603  -4.71051481
| 41> H   -0.91792115  -3.47269205   1.47860059
| 42> H    0.03307259  -1.99801737   3.48383397
| 43> H    2.57356595  -1.39332931   2.82039917
| 44> O    1.94479147   1.94909234   0.50320788
| 45> O    0.19040395   1.08371381   1.70619223
| 46> C    1.01799351   2.08203985   1.34030830
| 47> C    0.83929868   3.43628661   2.01856030
| 48> H    0.85677242   4.21336643   1.25488662
| 49> H    1.71385935   3.61020990   2.65694730
| 50> H   -0.05376424   3.51141031   2.61985911
| 51> H    3.02305218  -2.26011721   0.35144648
| 52> H    0.78138799  -3.46579112  -0.52557542
| 53> *
| 54>
| 55>                          ****END OF INPUT****

CARTESIAN COORDINATES (ANGSTROEM)
---------------------------------
  Ir     0.514780   -0.735019    0.751735
  C     -0.063231   -2.818872    1.407919
  C      0.485925   -2.103908    2.496550
  C      2.054975   -2.221100    0.839116
  C      0.872972   -2.860313    0.356446
  C      1.840121   -1.776986    2.152745
  N     -1.039280   -0.052020   -0.460171
  C     -2.467247   -0.021840    0.028138
  C     -2.874412    1.343286    0.551698
  H     -3.912715    1.311514    0.887280
  H     -2.791782    2.104491   -0.222402
  H     -2.299872    1.623773    1.417144
  C     -3.458617   -0.516807   -1.019449
  H     -2.485443   -0.717337    0.853547
  H     -4.433184   -0.644926   -0.531953
  H     -3.622774    0.195133   -1.824216
  H     -3.176722   -1.475337   -1.431966
  C     -0.788504    0.267655   -1.679900
  C      0.517800    0.200631   -2.283303
  H     -1.596185    0.547065   -2.327377
  C      1.744796    0.048792   -1.551353
  C      2.798173   -0.092034   -2.534355
  S      0.723801    0.211147   -3.991997
  C      2.408776    0.006535   -3.840880
  H      2.162685    1.076953   -0.786133
  H      3.842313   -0.123085   -2.254737
  H      3.040677   -0.074446   -4.710515
  H     -0.917921   -3.472692    1.478601
  H      0.033073   -1.998017    3.483834
  H      2.573566   -1.393329    2.820399
  O      1.944791    1.949092    0.503208
  O      0.190404    1.083714    1.706192
  C      1.017994    2.082040    1.340308
  C      0.839299    3.436287    2.018560
  H      0.856772    4.213366    1.254887
  H      1.713859    3.610210    2.656947
  H     -0.053764    3.511410    2.619859
  H      3.023052   -2.260117    0.351446
  H      0.781388   -3.465791   -0.525575

 Total Charge           Charge          ....    1
 Multiplicity           Mult            ....    1
 Number of Electrons    NEL             ....  164
 Basis Dimension        Dim             ....  358

ORBITAL ENERGIES
----------------

  NO   OCC          E(Eh)            E(eV)
   0   2.0000     -89.764017     -2442.6031
   1   2.0000     -19.619222      -533.8662
   2   2.0000     -19.587627      -533.0064
   3   2.0000     -14.832579      -403.6150
   4   2.0000     -10.686603      -290.7973
   5   2.0000     -10.652568      -289.8711
   6   2.0000     -10.639029      -289.5027
   7   2.0000     -10.635587      -289.4090
   8   2.0000     -10.632062      -289.3131
   9   2.0000     -10.629549      -289.2447
  10   2.0000     -10.615261      -288.8559
  11   2.0000     -10.614358      -288.8314
  12   2.0000     -10.611329      -288.7489
  13   2.0000     -10.607477      -288.6441
  14   2.0000     -10.593793      -288.2718
  15   2.0000     -10.586373      -288.0698
  16   2.0000     -10.548827      -287.0482
  17   2.0000     -10.536252      -286.7060
  18   2.0000     -10.535702      -286.6910
  19   2.0000      -8.403076      -228.6593
  20   2.0000      -6.292875      -171.2378
  21   2.0000      -6.289398      -171.1432
  22   2.0000      -6.288164      -171.1096
  23   2.0000      -4.024412      -109.5098
  24   2.0000      -2.343247       -63.7630
  25   2.0000      -2.307182       -62.7816
  26   2.0000      -2.307117       -62.7798
  27   2.0000      -1.273580       -34.6559
  28   2.0000      -1.194614       -32.5071
  29   2.0000      -1.183500       -32.2047
  30   2.0000      -1.170592       -31.8534
  31   2.0000      -1.115889       -30.3649
  32   2.0000      -1.013952       -27.5910
  33   2.0000      -0.980915       -26.6920
  34   2.0000      -0.973215       -26.4825
  35   2.0000      -0.962635       -26.1946
  36   2.0000      -0.949312       -25.8321
  37   2.0000      -0.919969       -25.0336
  38   2.0000      -0.891883       -24.2694
  39   2.0000      -0.863324       -23.4922
  40   2.0000      -0.793374       -21.5888
  41   2.0000      -0.783078       -21.3086
  42   2.0000      -0.782011       -21.2796
  43   2.0000      -0.773087       -21.0368
  44   2.0000      -0.768619       -20.9152
  45   2.0000      -0.736678       -20.0460
  46   2.0000      -0.730466       -19.8770
  47   2.0000      -0.702341       -19.1117
  48   2.0000      -0.680876       -18.5276
  49   2.0000      -0.663797       -18.0628
  50   2.0000      -0.654027       -17.7970
  51   2.0000      -0.644863       -17.5476
  52   2.0000      -0.637386       -17.3442
  53   2.0000      -0.635237       -17.2857
  54   2.0000      -0.628092       -17.0913
  55   2.0000      -0.621824       -16.9207
  56   2.0000      -0.610590       -16.6150
  57   2.0000      -0.605380       -16.4732
  58   2.0000      -0.603108       -16.4114
  59   2.0000      -0.601128       -16.3575
  60   2.0000      -0.591364       -16.0918
  61   2.0000      -0.583571       -15.8798
  62   2.0000      -0.565928       -15.3997
  63   2.0000      -0.558710       -15.2033
  64   2.0000      -0.554761       -15.0958
  65   2.0000      -0.546694       -14.8763
  66   2.0000      -0.543901       -14.8003
  67   2.0000      -0.537961       -14.6387
  68   2.0000      -0.531425       -14.4608
  69   2.0000      -0.520968       -14.1763
  70   2.0000      -0.515506       -14.0276
  71   2.0000      -0.510983       -13.9046
  72   2.0000      -0.505429       -13.7534
  73   2.0000      -0.500805       -13.6276
  74   2.0000      -0.477563       -12.9952
  75   2.0000      -0.469078       -12.7643
  76   2.0000      -0.455692       -12.4000
  77   2.0000      -0.439165       -11.9503
  78   2.0000      -0.425982       -11.5916
  79   2.0000      -0.423292       -11.5184
  80   2.0000      -0.413582       -11.2541
  81   2.0000      -0.395716       -10.7680
  82   0.0000      -0.223980        -6.0948
  83   0.0000      -0.180524        -4.9123
  84   0.0000      -0.147716        -4.0195
  85   0.0000      -0.083410        -2.2697
  86   0.0000      -0.078956        -2.1485

MULLIKEN ATOMIC CHARGES
-----------------------
   0 Ir:    0.654248
   1 C :   -0.215762
   2 C :   -0.235997
   3 C :   -0.219532
   4 C :   -0.257711
   5 C :   -0.197683
   6 N :   -0.474954
   7 C :   -0.119775
   8 C :   -0.635481
   9 H :    0.245566
  10 H :    0.223439
  11 H :    0.276552
  12 C :   -0.678589
  13 H :    0.258047
  14 H :    0.265467
  15 H :    0.230562
  16 H :    0.248489
  17 C :    0.106430
  18 C :   -0.189395
  19 H :    0.271800
  20 C :   -0.383964
  21 C :   -0.160613
  22 S :    0.343478
  23 C :   -0.402559
  24 H :    0.409193
  25 H :    0.267184
  26 H :    0.298783
  27 H :    0.287644
  28 H :    0.294354
  29 H :    0.287755
  30 O :   -0.507586
  31 O :   -0.553792
  32 C :    0.640170
  33 C :   -0.737286
  34 H :    0.266198
  35 H :    0.270113
  36 H :    0.256232
  37 H :    0.288097
  38 H :    0.280881
Sum of atomic charges:    1.0000000

LOEWDIN ATOMIC CHARGES
----------------------
   0 Ir:   -0.179175
   1 C :   -0.015574
   2 C :   -0.026705
   3 C :   -0.007762
   4 C :   -0.095893
   5 C :   -0.079948
   6 N :   -0.025128
   7 C :   -0.054213
   8 C :   -0.352288
   9 H :    0.146211
  10 H :    0.135774
  11 H :    0.152466
  12 C :   -0.362411
  13 H :    0.144120
  14 H :    0.155610
  15 H :    0.134289
  16 H :    0.139284
  17 C :    0.025801
  18 C :   -0.198006
  19 H :    0.153111
  20 C :   -0.220643
  21 C :   -0.143643
  22 S :    0.493979
  23 C :   -0.268095
  24 H :    0.332409
  25 H :    0.157812
  26 H :    0.170627
  27 H :    0.183626
  28 H :    0.188965
  29 H :    0.184483
  30 O :   -0.301564
  31 O :   -0.246434
  32 C :    0.205004
  33 C :   -0.375798
  34 H :    0.163595
  35 H :    0.168927
  36 H :    0.149218
  37 H :    0.186576
  38 H :    0.181395

  Mayer bond orders larger than 0.100000
B(  0-Ir,  1-C ) :   0.4222 B(  0-Ir,  2-C ) :   0.4846 B(  0-Ir,  3-C ) :   0.4861
B(  0-Ir,  4-C ) :   0.4372 B(  0-Ir,  5-C ) :   0.4389 B(  0-Ir,  6-N ) :   0.4888
B(  0-Ir, 20-C ) :   0.2309 B(  0-Ir, 31-O ) :   0.6033 B(  1-C ,  2-C ) :   1.1658
B(  1-C ,  4-C ) :   1.2077 B(  1-C , 27-H ) :   0.9165 B(  2-C ,  5-C ) :   1.1441
B(  2-C , 28-H ) :   0.9103 B(  3-C ,  4-C ) :   1.1348 B(  3-C ,  5-C ) :   1.1821
B(  3-C , 37-H ) :   0.9141 B(  4-C , 38-H ) :   0.9186 B(  5-C , 29-H ) :   0.9152
B(  6-N ,  7-C ) :   0.8713 B(  6-N , 17-C ) :   1.6327 B(  7-C ,  8-C ) :   0.9807
B(  7-C , 12-C ) :   0.9901 B(  7-C , 13-H ) :   0.8930 B(  8-C ,  9-H ) :   0.9063
B(  8-C , 10-H ) :   0.9193 B(  8-C , 11-H ) :   0.8970 B( 12-C , 14-H ) :   0.9051
B( 12-C , 15-H ) :   0.9118 B( 12-C , 16-H ) :   0.9144 B( 17-C , 18-C ) :   1.1106
B( 17-C , 19-H ) :   0.8805 B( 18-C , 20-C ) :   1.2696 B( 18-C , 22-S ) :   1.2270
B( 20-C , 21-C ) :   1.2709 B( 20-C , 24-H ) :   0.5891 B( 21-C , 23-C ) :   1.5267
B( 21-C , 25-H ) :   0.9009 B( 22-S , 23-C ) :   1.2251 B( 23-C , 26-H ) :   0.8886
B( 24-H , 30-O ) :   0.1535 B( 30-O , 32-C ) :   1.6690 B( 31-O , 32-C ) :   1.2388
B( 32-C , 33-C ) :   0.9471 B( 33-C , 34-H ) :   0.9019 B( 33-C , 35-H ) :   0.8978
B( 33-C , 36-H ) :   0.9065

Dispersion correction           -0.029387279
FINAL SINGLE POINT ENERGY     -1288.318946406139
Dispersion correction            ... done

DIPOLE MOMENT
-------------
                                X             Y             Z
Electronic contribution:     28.99889     -72.97387     100.71967
Nuclear contribution   :    -29.45817      71.74342    -101.25379
                        -----------------------------------------
Total Dipole Moment    :     -0.45927      -1.23046      -0.53411
                        -----------------------------------------
Magnitude (a.u.)       :      1.41783
Magnitude (Debye)      :      3.60383

Rotational constants in cm-1:     0.010513     0.007846     0.007325
Rotational constants in MHz :   315.177805   235.206811   219.606890

                             ****ORCA TERMINATED NORMALLY****
TOTAL RUN TIME: 0 days 0 hours 21 minutes 39 seconds 900 msec
