                         Program Version 5.0.3 -  RELEASE  -
|  1> ! EnGrad PBEh-3c
|  2> %output
|  3> xyzfile=True
|  4> end
|  5> %scf
|  6> maxiter 250
|  7> end
|  8> %output
|  9> Print[P_Hirshfeld] = 1
| 10> end
| 11> % maxcore
| 12> 4000
| 13> *xyz 1 1
| 14> Ir   0.51716274  -0.73542635   0.75156311
| 15> C   -0.06256464  -2.82414936   1.40525259
| 16> C    0.48858789  -2.10135369   2.49748798
| 17> C    2.06162525  -2.22996024   0.84148426
| 18> C    0.87620948  -2.86224005   0.35720755
| 19> C    1.83534594  -1.77597437   2.15529457
| 20> N   -1.04141765  -0.05452650  -0.46424373
| 21> C   -2.46732951  -0.02115592   0.02666924
| 22> C   -2.87493675   1.34310821   0.55375308
| 23> H   -3.91262310   1.30936325   0.88621498
| 24> H   -2.79124398   2.10507321  -0.22012048
| 25> H   -2.29539051   1.62427282   1.41993048
| 26> C   -3.46078255  -0.51596560  -1.01782210
| 27> H   -2.48490862  -0.72102077   0.85526818
| 28> H   -4.43122129  -0.64432737  -0.53242038
| 29> H   -3.62284453   0.19683702  -1.82471493
| 30> H   -3.17672893  -1.47681280  -1.43490910
| 31> C   -0.78773058   0.26722602  -1.68087680
| 32> C    0.52542863   0.19729037  -2.27492289
| 33> H   -1.60171881   0.54868410  -2.32929819
| 34> C    1.74859987   0.07811379  -1.54760443
| 35> C    2.79638692  -0.09395109  -2.53001295
| 36> S    0.72224785   0.20979051  -3.98888585
| 37> C    2.40723539   0.00383962  -3.83833526
| 38> H    2.14138899   1.05129800  -0.78458296
| 39> H    3.84150816  -0.12564699  -2.25357402
| 40> H    3.04072216  -0.07248229  -4.71095192
| 41> H   -0.92450700  -3.46661645   1.47278041
| 42> H    0.03027926  -1.99554180   3.47887842
| 43> H    2.57488877  -1.38704812   2.82542443
| 44> O    1.94791420   1.95606428   0.49996034
| 45> O    0.20189170   1.09223681   1.69745281
| 46> C    1.01668912   2.07040495   1.34105233
| 47> C    0.84273704   3.43118030   2.01533550
| 48> H    0.85618781   4.21380633   1.25478572
| 49> H    1.71280221   3.60996258   2.65513899
| 50> H   -0.05572826   3.51146520   2.62052162
| 51> H    3.02222746  -2.25292227   0.35191786
| 52> H    0.78407479  -3.46394593  -0.52966691
| 53> *
| 54>
| 55>                          ****END OF INPUT****

CARTESIAN COORDINATES (ANGSTROEM)
---------------------------------
  Ir     0.517163   -0.735426    0.751563
  C     -0.062565   -2.824149    1.405253
  C      0.488588   -2.101354    2.497488
  C      2.061625   -2.229960    0.841484
  C      0.876209   -2.862240    0.357208
  C      1.835346   -1.775974    2.155295
  N     -1.041418   -0.054526   -0.464244
  C     -2.467330   -0.021156    0.026669
  C     -2.874937    1.343108    0.553753
  H     -3.912623    1.309363    0.886215
  H     -2.791244    2.105073   -0.220120
  H     -2.295391    1.624273    1.419930
  C     -3.460783   -0.515966   -1.017822
  H     -2.484909   -0.721021    0.855268
  H     -4.431221   -0.644327   -0.532420
  H     -3.622845    0.196837   -1.824715
  H     -3.176729   -1.476813   -1.434909
  C     -0.787731    0.267226   -1.680877
  C      0.525429    0.197290   -2.274923
  H     -1.601719    0.548684   -2.329298
  C      1.748600    0.078114   -1.547604
  C      2.796387   -0.093951   -2.530013
  S      0.722248    0.209791   -3.988886
  C      2.407235    0.003840   -3.838335
  H      2.141389    1.051298   -0.784583
  H      3.841508   -0.125647   -2.253574
  H      3.040722   -0.072482   -4.710952
  H     -0.924507   -3.466616    1.472780
  H      0.030279   -1.995542    3.478878
  H      2.574889   -1.387048    2.825424
  O      1.947914    1.956064    0.499960
  O      0.201892    1.092237    1.697453
  C      1.016689    2.070405    1.341052
  C      0.842737    3.431180    2.015335
  H      0.856188    4.213806    1.254786
  H      1.712802    3.609963    2.655139
  H     -0.055728    3.511465    2.620522
  H      3.022227   -2.252922    0.351918
  H      0.784075   -3.463946   -0.529667

 Total Charge           Charge          ....    1
 Multiplicity           Mult            ....    1
 Number of Electrons    NEL             ....  164
 Basis Dimension        Dim             ....  358

ORBITAL ENERGIES
----------------

  NO   OCC          E(Eh)            E(eV)
   0   2.0000     -89.763470     -2442.5882
   1   2.0000     -19.621047      -533.9158
   2   2.0000     -19.580284      -532.8066
   3   2.0000     -14.833359      -403.6362
   4   2.0000     -10.681997      -290.6719
   5   2.0000     -10.653956      -289.9089
   6   2.0000     -10.642144      -289.5874
   7   2.0000     -10.637798      -289.4692
   8   2.0000     -10.634906      -289.3905
   9   2.0000     -10.629979      -289.2564
  10   2.0000     -10.618185      -288.9355
  11   2.0000     -10.617064      -288.9050
  12   2.0000     -10.612698      -288.7862
  13   2.0000     -10.607914      -288.6560
  14   2.0000     -10.591639      -288.2131
  15   2.0000     -10.585811      -288.0545
  16   2.0000     -10.549783      -287.0742
  17   2.0000     -10.537389      -286.7369
  18   2.0000     -10.532723      -286.6100
  19   2.0000      -8.402530      -228.6445
  20   2.0000      -6.292369      -171.2241
  21   2.0000      -6.288887      -171.1293
  22   2.0000      -6.287532      -171.0924
  23   2.0000      -4.026291      -109.5609
  24   2.0000      -2.345180       -63.8156
  25   2.0000      -2.309046       -62.8323
  26   2.0000      -2.308944       -62.8296
  27   2.0000      -1.275759       -34.7152
  28   2.0000      -1.195951       -32.5435
  29   2.0000      -1.185568       -32.2609
  30   2.0000      -1.172592       -31.9078
  31   2.0000      -1.116166       -30.3724
  32   2.0000      -1.014575       -27.6080
  33   2.0000      -0.982003       -26.7217
  34   2.0000      -0.976314       -26.5669
  35   2.0000      -0.962069       -26.1792
  36   2.0000      -0.951152       -25.8822
  37   2.0000      -0.915045       -24.8996
  38   2.0000      -0.892395       -24.2833
  39   2.0000      -0.863501       -23.4971
  40   2.0000      -0.793495       -21.5921
  41   2.0000      -0.784963       -21.3599
  42   2.0000      -0.784816       -21.3559
  43   2.0000      -0.774167       -21.0661
  44   2.0000      -0.769667       -20.9437
  45   2.0000      -0.736163       -20.0320
  46   2.0000      -0.731579       -19.9073
  47   2.0000      -0.704652       -19.1746
  48   2.0000      -0.681699       -18.5500
  49   2.0000      -0.661537       -18.0013
  50   2.0000      -0.654044       -17.7974
  51   2.0000      -0.646064       -17.5803
  52   2.0000      -0.638522       -17.3751
  53   2.0000      -0.637170       -17.3383
  54   2.0000      -0.628654       -17.1065
  55   2.0000      -0.621880       -16.9222
  56   2.0000      -0.610377       -16.6092
  57   2.0000      -0.607302       -16.5255
  58   2.0000      -0.605555       -16.4780
  59   2.0000      -0.601396       -16.3648
  60   2.0000      -0.591522       -16.0961
  61   2.0000      -0.584327       -15.9003
  62   2.0000      -0.566511       -15.4155
  63   2.0000      -0.557863       -15.1802
  64   2.0000      -0.554233       -15.0815
  65   2.0000      -0.546617       -14.8742
  66   2.0000      -0.544973       -14.8295
  67   2.0000      -0.538810       -14.6618
  68   2.0000      -0.531533       -14.4637
  69   2.0000      -0.521581       -14.1929
  70   2.0000      -0.517876       -14.0921
  71   2.0000      -0.511573       -13.9206
  72   2.0000      -0.506047       -13.7702
  73   2.0000      -0.501440       -13.6449
  74   2.0000      -0.476570       -12.9681
  75   2.0000      -0.470324       -12.7982
  76   2.0000      -0.456820       -12.4307
  77   2.0000      -0.441000       -12.0002
  78   2.0000      -0.425805       -11.5867
  79   2.0000      -0.422722       -11.5029
  80   2.0000      -0.413502       -11.2520
  81   2.0000      -0.396656       -10.7936
  82   0.0000      -0.225978        -6.1492
  83   0.0000      -0.180271        -4.9054
  84   0.0000      -0.150676        -4.1001
  85   0.0000      -0.084379        -2.2961
  86   0.0000      -0.078912        -2.1473

MULLIKEN ATOMIC CHARGES
-----------------------
   0 Ir:    0.650965
   1 C :   -0.210918
   2 C :   -0.233874
   3 C :   -0.209267
   4 C :   -0.262662
   5 C :   -0.205524
   6 N :   -0.472676
   7 C :   -0.120294
   8 C :   -0.634294
   9 H :    0.246297
  10 H :    0.224077
  11 H :    0.275604
  12 C :   -0.677726
  13 H :    0.256309
  14 H :    0.266919
  15 H :    0.230178
  16 H :    0.247288
  17 C :    0.104288
  18 C :   -0.194304
  19 H :    0.272600
  20 C :   -0.382966
  21 C :   -0.161409
  22 S :    0.340680
  23 C :   -0.400791
  24 H :    0.413327
  25 H :    0.266454
  26 H :    0.299004
  27 H :    0.288743
  28 H :    0.295488
  29 H :    0.289780
  30 O :   -0.514201
  31 O :   -0.542130
  32 C :    0.635797
  33 C :   -0.737941
  34 H :    0.265428
  35 H :    0.269032
  36 H :    0.250318
  37 H :    0.290043
  38 H :    0.282359
Sum of atomic charges:    1.0000000

LOEWDIN ATOMIC CHARGES
----------------------
   0 Ir:   -0.173534
   1 C :   -0.012598
   2 C :   -0.025635
   3 C :   -0.004183
   4 C :   -0.095463
   5 C :   -0.080561
   6 N :   -0.026276
   7 C :   -0.054750
   8 C :   -0.351947
   9 H :    0.146505
  10 H :    0.136119
  11 H :    0.152604
  12 C :   -0.362205
  13 H :    0.143540
  14 H :    0.155681
  15 H :    0.134248
  16 H :    0.139235
  17 C :    0.026376
  18 C :   -0.194661
  19 H :    0.153773
  20 C :   -0.216832
  21 C :   -0.141822
  22 S :    0.490321
  23 C :   -0.266682
  24 H :    0.320623
  25 H :    0.157684
  26 H :    0.170886
  27 H :    0.184001
  28 H :    0.189268
  29 H :    0.186107
  30 O :   -0.311459
  31 O :   -0.229274
  32 C :    0.192614
  33 C :   -0.377197
  34 H :    0.162673
  35 H :    0.167336
  36 H :    0.146533
  37 H :    0.186811
  38 H :    0.182143

  Mayer bond orders larger than 0.100000
B(  0-Ir,  1-C ) :   0.4244 B(  0-Ir,  2-C ) :   0.4872 B(  0-Ir,  3-C ) :   0.4853
B(  0-Ir,  4-C ) :   0.4365 B(  0-Ir,  5-C ) :   0.4385 B(  0-Ir,  6-N ) :   0.4879
B(  0-Ir, 20-C ) :   0.2165 B(  0-Ir, 31-O ) :   0.5964 B(  1-C ,  2-C ) :   1.1615
B(  1-C ,  4-C ) :   1.2082 B(  1-C , 27-H ) :   0.9160 B(  2-C ,  5-C ) :   1.1456
B(  2-C , 28-H ) :   0.9101 B(  3-C ,  4-C ) :   1.1359 B(  3-C ,  5-C ) :   1.1816
B(  3-C , 37-H ) :   0.9128 B(  4-C , 38-H ) :   0.9181 B(  5-C , 29-H ) :   0.9143
B(  6-N ,  7-C ) :   0.8713 B(  6-N , 17-C ) :   1.6365 B(  7-C ,  8-C ) :   0.9802
B(  7-C , 12-C ) :   0.9893 B(  7-C , 13-H ) :   0.8934 B(  8-C ,  9-H ) :   0.9059
B(  8-C , 10-H ) :   0.9188 B(  8-C , 11-H ) :   0.8977 B( 12-C , 14-H ) :   0.9044
B( 12-C , 15-H ) :   0.9117 B( 12-C , 16-H ) :   0.9150 B( 17-C , 18-C ) :   1.1059
B( 17-C , 19-H ) :   0.8799 B( 18-C , 20-C ) :   1.2856 B( 18-C , 22-S ) :   1.2242
B( 20-C , 21-C ) :   1.2671 B( 20-C , 24-H ) :   0.6026 B( 21-C , 23-C ) :   1.5321
B( 21-C , 25-H ) :   0.9016 B( 22-S , 23-C ) :   1.2216 B( 23-C , 26-H ) :   0.8885
B( 24-H , 30-O ) :   0.1512 B( 30-O , 32-C ) :   1.6643 B( 31-O , 32-C ) :   1.2622
B( 32-C , 33-C ) :   0.9437 B( 33-C , 34-H ) :   0.9032 B( 33-C , 35-H ) :   0.8989
B( 33-C , 36-H ) :   0.9086

Dispersion correction           -0.029327725
FINAL SINGLE POINT ENERGY     -1288.330068588655
Dispersion correction            ... done

DIPOLE MOMENT
-------------
                                X             Y             Z
Electronic contribution:     29.09888     -73.18467     100.69931
Nuclear contribution   :    -29.62268      71.80121    -101.21671
                        -----------------------------------------
Total Dipole Moment    :     -0.52380      -1.38346      -0.51739
                        -----------------------------------------
Magnitude (a.u.)       :      1.56717
Magnitude (Debye)      :      3.98343

Rotational constants in cm-1:     0.010507     0.007852     0.007332
Rotational constants in MHz :   315.003993   235.391383   219.802286

                             ****ORCA TERMINATED NORMALLY****
TOTAL RUN TIME: 0 days 0 hours 21 minutes 5 seconds 334 msec
