                         Program Version 5.0.3 -  RELEASE  -
|  1> ! EnGrad PBEh-3c
|  2> %output
|  3> xyzfile=True
|  4> end
|  5> %scf
|  6> maxiter 250
|  7> end
|  8> %output
|  9> Print[P_Hirshfeld] = 1
| 10> end
| 11> % maxcore
| 12> 4000
| 13> *xyz 1 1
| 14> Ir   0.52653106  -0.74326912   0.75678022
| 15> C   -0.05288873  -2.84177536   1.40059561
| 16> C    0.49490858  -2.09489883   2.49351888
| 17> C    2.08119350  -2.27345424   0.86220602
| 18> C    0.89374281  -2.87820753   0.35690151
| 19> C    1.83473851  -1.76725286   2.16808011
| 20> N   -1.05200337  -0.06778654  -0.48075285
| 21> C   -2.46645777  -0.02236055   0.02479702
| 22> C   -2.87196708   1.34504066   0.56371021
| 23> H   -3.91409833   1.29940222   0.87846237
| 24> H   -2.78902110   2.10906903  -0.21058545
| 25> H   -2.27346951   1.63048891   1.42910132
| 26> C   -3.46514070  -0.51535350  -1.01636559
| 27> H   -2.48125846  -0.73460743   0.86092156
| 28> H   -4.42441693  -0.64237726  -0.53222471
| 29> H   -3.62240218   0.20232350  -1.82666962
| 30> H   -3.17682171  -1.48172834  -1.44702028
| 31> C   -0.78504847   0.26714792  -1.69185070
| 32> C    0.55416467   0.18948196  -2.23170240
| 33> H   -1.62424932   0.55633286  -2.33707436
| 34> C    1.77597281   0.23424111  -1.53742985
| 35> C    2.79138746  -0.09531885  -2.51117462
| 36> S    0.71442302   0.19658231  -3.96436776
| 37> C    2.40267799  -0.01503057  -3.82259924
| 38> H    2.02081172   0.90156195  -0.77625888
| 39> H    3.83793676  -0.13762608  -2.24843000
| 40> H    3.03759426  -0.06292085  -4.71007715
| 41> H   -0.96573769  -3.42989997   1.44419211
| 42> H    0.01972624  -1.97860507   3.45639742
| 43> H    2.57859518  -1.35537911   2.84164691
| 44> O    1.95436150   1.98589593   0.49377856
| 45> O    0.24861677   1.11032787   1.65663351
| 46> C    1.03438011   2.04574409   1.33534097
| 47> C    0.84769536   3.40152323   2.00438067
| 48> H    0.85278195   4.21079643   1.25605197
| 49> H    1.70757749   3.60677675   2.64787988
| 50> H   -0.05994844   3.51063858   2.62040404
| 51> H    3.02362009  -2.21576807   0.34464568
| 52> H    0.79290939  -3.45152141  -0.55070053
| 53> *
| 54>
| 55>                          ****END OF INPUT****

CARTESIAN COORDINATES (ANGSTROEM)
---------------------------------
  Ir     0.526531   -0.743269    0.756780
  C     -0.052889   -2.841775    1.400596
  C      0.494909   -2.094899    2.493519
  C      2.081193   -2.273454    0.862206
  C      0.893743   -2.878208    0.356902
  C      1.834739   -1.767253    2.168080
  N     -1.052003   -0.067787   -0.480753
  C     -2.466458   -0.022361    0.024797
  C     -2.871967    1.345041    0.563710
  H     -3.914098    1.299402    0.878462
  H     -2.789021    2.109069   -0.210585
  H     -2.273470    1.630489    1.429101
  C     -3.465141   -0.515354   -1.016366
  H     -2.481258   -0.734607    0.860922
  H     -4.424417   -0.642377   -0.532225
  H     -3.622402    0.202323   -1.826670
  H     -3.176822   -1.481728   -1.447020
  C     -0.785048    0.267148   -1.691851
  C      0.554165    0.189482   -2.231702
  H     -1.624249    0.556333   -2.337074
  C      1.775973    0.234241   -1.537430
  C      2.791387   -0.095319   -2.511175
  S      0.714423    0.196582   -3.964368
  C      2.402678   -0.015031   -3.822599
  H      2.020812    0.901562   -0.776259
  H      3.837937   -0.137626   -2.248430
  H      3.037594   -0.062921   -4.710077
  H     -0.965738   -3.429900    1.444192
  H      0.019726   -1.978605    3.456397
  H      2.578595   -1.355379    2.841647
  O      1.954362    1.985896    0.493779
  O      0.248617    1.110328    1.656634
  C      1.034380    2.045744    1.335341
  C      0.847695    3.401523    2.004381
  H      0.852782    4.210796    1.256052
  H      1.707577    3.606777    2.647880
  H     -0.059948    3.510639    2.620404
  H      3.023620   -2.215768    0.344646
  H      0.792909   -3.451521   -0.550701

 Total Charge           Charge          ....    1
 Multiplicity           Mult            ....    1
 Number of Electrons    NEL             ....  164
 Basis Dimension        Dim             ....  358

ORBITAL ENERGIES
----------------

  NO   OCC          E(Eh)            E(eV)
   0   2.0000     -89.759202     -2442.4721
   1   2.0000     -19.621017      -533.9150
   2   2.0000     -19.556446      -532.1580
   3   2.0000     -14.834871      -403.6774
   4   2.0000     -10.663403      -290.1659
   5   2.0000     -10.658838      -290.0417
   6   2.0000     -10.654348      -289.9195
   7   2.0000     -10.646778      -289.7136
   8   2.0000     -10.646697      -289.7114
   9   2.0000     -10.630480      -289.2701
  10   2.0000     -10.629317      -289.2384
  11   2.0000     -10.627485      -289.1886
  12   2.0000     -10.616644      -288.8936
  13   2.0000     -10.610017      -288.7133
  14   2.0000     -10.583380      -287.9884
  15   2.0000     -10.582941      -287.9765
  16   2.0000     -10.552879      -287.1584
  17   2.0000     -10.541232      -286.8415
  18   2.0000     -10.522178      -286.3230
  19   2.0000      -8.398325      -228.5300
  20   2.0000      -6.288375      -171.1154
  21   2.0000      -6.284871      -171.0200
  22   2.0000      -6.282880      -170.9659
  23   2.0000      -4.033795      -109.7652
  24   2.0000      -2.352935       -64.0266
  25   2.0000      -2.316654       -63.0394
  26   2.0000      -2.316079       -63.0237
  27   2.0000      -1.290650       -35.1204
  28   2.0000      -1.198048       -32.6006
  29   2.0000      -1.186028       -32.2735
  30   2.0000      -1.180138       -32.1132
  31   2.0000      -1.117386       -30.4056
  32   2.0000      -1.015763       -27.6403
  33   2.0000      -0.988277       -26.8924
  34   2.0000      -0.986585       -26.8463
  35   2.0000      -0.962199       -26.1828
  36   2.0000      -0.957671       -26.0595
  37   2.0000      -0.902263       -24.5518
  38   2.0000      -0.893260       -24.3068
  39   2.0000      -0.865099       -23.5405
  40   2.0000      -0.795400       -21.6439
  41   2.0000      -0.793261       -21.5857
  42   2.0000      -0.791863       -21.5477
  43   2.0000      -0.779820       -21.2200
  44   2.0000      -0.770949       -20.9786
  45   2.0000      -0.746463       -20.3123
  46   2.0000      -0.734244       -19.9798
  47   2.0000      -0.717682       -19.5291
  48   2.0000      -0.683761       -18.6061
  49   2.0000      -0.655540       -17.8381
  50   2.0000      -0.653283       -17.7767
  51   2.0000      -0.650273       -17.6948
  52   2.0000      -0.643961       -17.5231
  53   2.0000      -0.640285       -17.4230
  54   2.0000      -0.630987       -17.1700
  55   2.0000      -0.623326       -16.9616
  56   2.0000      -0.615747       -16.7553
  57   2.0000      -0.613719       -16.7001
  58   2.0000      -0.610930       -16.6243
  59   2.0000      -0.602286       -16.3890
  60   2.0000      -0.593807       -16.1583
  61   2.0000      -0.590254       -16.0616
  62   2.0000      -0.570738       -15.5306
  63   2.0000      -0.566948       -15.4274
  64   2.0000      -0.559521       -15.2254
  65   2.0000      -0.545534       -14.8447
  66   2.0000      -0.541059       -14.7230
  67   2.0000      -0.536531       -14.5998
  68   2.0000      -0.530064       -14.4238
  69   2.0000      -0.528267       -14.3749
  70   2.0000      -0.522219       -14.2103
  71   2.0000      -0.515742       -14.0341
  72   2.0000      -0.506030       -13.7698
  73   2.0000      -0.503657       -13.7052
  74   2.0000      -0.477124       -12.9832
  75   2.0000      -0.472656       -12.8616
  76   2.0000      -0.458535       -12.4774
  77   2.0000      -0.446462       -12.1489
  78   2.0000      -0.427760       -11.6399
  79   2.0000      -0.418154       -11.3785
  80   2.0000      -0.410039       -11.1577
  81   2.0000      -0.399368       -10.8673
  82   0.0000      -0.234125        -6.3709
  83   0.0000      -0.179319        -4.8795
  84   0.0000      -0.157999        -4.2994
  85   0.0000      -0.089929        -2.4471
  86   0.0000      -0.082847        -2.2544

MULLIKEN ATOMIC CHARGES
-----------------------
   0 Ir:    0.626212
   1 C :   -0.191401
   2 C :   -0.230744
   3 C :   -0.173874
   4 C :   -0.280276
   5 C :   -0.231912
   6 N :   -0.463724
   7 C :   -0.121467
   8 C :   -0.629284
   9 H :    0.246366
  10 H :    0.226069
  11 H :    0.273608
  12 C :   -0.675505
  13 H :    0.249801
  14 H :    0.269864
  15 H :    0.229538
  16 H :    0.244233
  17 C :    0.093182
  18 C :   -0.255370
  19 H :    0.277781
  20 C :   -0.330453
  21 C :   -0.174269
  22 S :    0.324966
  23 C :   -0.394743
  24 H :    0.446406
  25 H :    0.263835
  26 H :    0.300659
  27 H :    0.294249
  28 H :    0.300371
  29 H :    0.297110
  30 O :   -0.506891
  31 O :   -0.515885
  32 C :    0.608151
  33 C :   -0.746972
  34 H :    0.261766
  35 H :    0.264434
  36 H :    0.235451
  37 H :    0.299329
  38 H :    0.289387
Sum of atomic charges:    1.0000000

LOEWDIN ATOMIC CHARGES
----------------------
   0 Ir:   -0.148138
   1 C :   -0.002829
   2 C :   -0.019212
   3 C :    0.007161
   4 C :   -0.095069
   5 C :   -0.081404
   6 N :   -0.034523
   7 C :   -0.057150
   8 C :   -0.350454
   9 H :    0.146828
  10 H :    0.137032
  11 H :    0.153603
  12 C :   -0.361746
  13 H :    0.140964
  14 H :    0.155397
  15 H :    0.134263
  16 H :    0.139109
  17 C :    0.027772
  18 C :   -0.188181
  19 H :    0.157541
  20 C :   -0.161992
  21 C :   -0.141817
  22 S :    0.471369
  23 C :   -0.256931
  24 H :    0.238197
  25 H :    0.157181
  26 H :    0.172398
  27 H :    0.187147
  28 H :    0.190838
  29 H :    0.191715
  30 O :   -0.312003
  31 O :   -0.189588
  32 C :    0.139607
  33 C :   -0.383343
  34 H :    0.160267
  35 H :    0.162926
  36 H :    0.138544
  37 H :    0.188716
  38 H :    0.185804

  Mayer bond orders larger than 0.100000
B(  0-Ir,  1-C ) :   0.4316 B(  0-Ir,  2-C ) :   0.5088 B(  0-Ir,  3-C ) :   0.4825
B(  0-Ir,  4-C ) :   0.4300 B(  0-Ir,  5-C ) :   0.4396 B(  0-Ir,  6-N ) :   0.4830
B(  0-Ir, 20-C ) :   0.1491 B(  0-Ir, 31-O ) :   0.5972 B(  1-C ,  2-C ) :   1.1411
B(  1-C ,  4-C ) :   1.2098 B(  1-C , 27-H ) :   0.9114 B(  2-C ,  5-C ) :   1.1468
B(  2-C , 28-H ) :   0.9089 B(  3-C ,  4-C ) :   1.1405 B(  3-C ,  5-C ) :   1.1788
B(  3-C , 37-H ) :   0.9024 B(  4-C , 38-H ) :   0.9147 B(  5-C , 29-H ) :   0.9117
B(  6-N ,  7-C ) :   0.8734 B(  6-N , 17-C ) :   1.6502 B(  7-C ,  8-C ) :   0.9776
B(  7-C , 12-C ) :   0.9859 B(  7-C , 13-H ) :   0.8948 B(  8-C ,  9-H ) :   0.9052
B(  8-C , 10-H ) :   0.9172 B(  8-C , 11-H ) :   0.8993 B( 12-C , 14-H ) :   0.9030
B( 12-C , 15-H ) :   0.9112 B( 12-C , 16-H ) :   0.9163 B( 17-C , 18-C ) :   1.0896
B( 17-C , 19-H ) :   0.8768 B( 18-C , 20-C ) :   1.3769 B( 18-C , 22-S ) :   1.2034
B( 20-C , 21-C ) :   1.2645 B( 20-C , 24-H ) :   0.6477 B( 21-C , 23-C ) :   1.5463
B( 21-C , 25-H ) :   0.9044 B( 22-S , 23-C ) :   1.2114 B( 23-C , 26-H ) :   0.8886
B( 24-H , 30-O ) :   0.1435 B( 30-O , 32-C ) :   1.7122 B( 31-O , 32-C ) :   1.2962
B( 32-C , 33-C ) :   0.9330 B( 33-C , 34-H ) :   0.9070 B( 33-C , 35-H ) :   0.9021
B( 33-C , 36-H ) :   0.9136

Dispersion correction           -0.029272293
FINAL SINGLE POINT ENERGY     -1288.349573966603
Dispersion correction            ... done

DIPOLE MOMENT
-------------
                                X             Y             Z
Electronic contribution:     29.47411     -74.50367     101.09871
Nuclear contribution   :    -30.17727      72.60597    -101.52719
                        -----------------------------------------
Total Dipole Moment    :     -0.70316      -1.89770      -0.42848
                        -----------------------------------------
Magnitude (a.u.)       :      2.06865
Magnitude (Debye)      :      5.25809

Rotational constants in cm-1:     0.010475     0.007879     0.007364
Rotational constants in MHz :   314.040173   236.199380   220.764151

                             ****ORCA TERMINATED NORMALLY****
TOTAL RUN TIME: 0 days 0 hours 18 minutes 13 seconds 563 msec
