                         Program Version 5.0.3 -  RELEASE  -
|  1> ! EnGrad PBEh-3c
|  2> %output
|  3> xyzfile=True
|  4> end
|  5> %scf
|  6> maxiter 250
|  7> end
|  8> %output
|  9> Print[P_Hirshfeld] = 1
| 10> end
| 11> % maxcore
| 12> 4000
| 13> *xyz 1 1
| 14> Ir   0.52091688  -0.75888343   0.77040832
| 15> C   -0.05351482  -2.84651553   1.39527224
| 16> C    0.50156786  -2.08872386   2.49445352
| 17> C    2.09425672  -2.28163825   0.86361097
| 18> C    0.90274817  -2.88895428   0.36068046
| 19> C    1.83332136  -1.76899851   2.17235370
| 20> N   -1.05480677  -0.07114188  -0.48519611
| 21> C   -2.45833335  -0.02512793   0.02047627
| 22> C   -2.86906226   1.34278657   0.56511742
| 23> H   -3.91386557   1.29700295   0.87533374
| 24> H   -2.78775344   2.11137019  -0.20694273
| 25> H   -2.26516350   1.63517564   1.43082247
| 26> C   -3.46541475  -0.51477057  -1.01443517
| 27> H   -2.47993420  -0.73776567   0.86205322
| 28> H   -4.42360693  -0.64275814  -0.53219189
| 29> H   -3.62166325   0.20305368  -1.82727772
| 30> H   -3.17657611  -1.48258872  -1.45098610
| 31> C   -0.78424304   0.26398985  -1.68736012
| 32> C    0.56258504   0.20565801  -2.20665197
| 33> H   -1.62815528   0.55961917  -2.34162635
| 34> C    1.76370977   0.25025129  -1.61971567
| 35> C    2.79500054  -0.07642116  -2.49673956
| 36> S    0.71592057   0.18087990  -3.94085466
| 37> C    2.40123260  -0.02829349  -3.81140910
| 38> H    1.98176787   0.85812001  -0.73676913
| 39> H    3.83855941  -0.14201006  -2.24761400
| 40> H    3.03252623  -0.06123443  -4.70446099
| 41> H   -0.98275716  -3.40535248   1.43123991
| 42> H    0.01638283  -1.96772171   3.44484292
| 43> H    2.58096744  -1.34001054   2.84561885
| 44> O    1.94161245   1.99177969   0.51439339
| 45> O    0.27496685   1.10469916   1.63414279
| 46> C    1.04812071   2.06438800   1.32717861
| 47> C    0.84877311   3.39145674   2.00259176
| 48> H    0.85061908   4.20239947   1.25932419
| 49> H    1.70333791   3.60394112   2.64498933
| 50> H   -0.05878646   3.50583319   2.61735891
| 51> H    3.02149893  -2.20058795   0.34023021
| 52> H    0.79536933  -3.44478690  -0.56095158
| 53> *
| 54>
| 55>                          ****END OF INPUT****

CARTESIAN COORDINATES (ANGSTROEM)
---------------------------------
  Ir     0.520917   -0.758883    0.770408
  C     -0.053515   -2.846516    1.395272
  C      0.501568   -2.088724    2.494454
  C      2.094257   -2.281638    0.863611
  C      0.902748   -2.888954    0.360680
  C      1.833321   -1.768999    2.172354
  N     -1.054807   -0.071142   -0.485196
  C     -2.458333   -0.025128    0.020476
  C     -2.869062    1.342787    0.565117
  H     -3.913866    1.297003    0.875334
  H     -2.787753    2.111370   -0.206943
  H     -2.265163    1.635176    1.430822
  C     -3.465415   -0.514771   -1.014435
  H     -2.479934   -0.737766    0.862053
  H     -4.423607   -0.642758   -0.532192
  H     -3.621663    0.203054   -1.827278
  H     -3.176576   -1.482589   -1.450986
  C     -0.784243    0.263990   -1.687360
  C      0.562585    0.205658   -2.206652
  H     -1.628155    0.559619   -2.341626
  C      1.763710    0.250251   -1.619716
  C      2.795001   -0.076421   -2.496740
  S      0.715921    0.180880   -3.940855
  C      2.401233   -0.028293   -3.811409
  H      1.981768    0.858120   -0.736769
  H      3.838559   -0.142010   -2.247614
  H      3.032526   -0.061234   -4.704461
  H     -0.982757   -3.405352    1.431240
  H      0.016383   -1.967722    3.444843
  H      2.580967   -1.340011    2.845619
  O      1.941612    1.991780    0.514393
  O      0.274967    1.104699    1.634143
  C      1.048121    2.064388    1.327179
  C      0.848773    3.391457    2.002592
  H      0.850619    4.202399    1.259324
  H      1.703338    3.603941    2.644989
  H     -0.058786    3.505833    2.617359
  H      3.021499   -2.200588    0.340230
  H      0.795369   -3.444787   -0.560952

 Total Charge           Charge          ....    1
 Multiplicity           Mult            ....    1
 Number of Electrons    NEL             ....  164
 Basis Dimension        Dim             ....  358

ORBITAL ENERGIES
----------------

  NO   OCC          E(Eh)            E(eV)
   0   2.0000     -89.748848     -2442.1903
   1   2.0000     -19.615818      -533.7735
   2   2.0000     -19.559457      -532.2399
   3   2.0000     -14.832620      -403.6161
   4   2.0000     -10.659703      -290.0653
   5   2.0000     -10.659358      -290.0559
   6   2.0000     -10.657091      -289.9942
   7   2.0000     -10.651251      -289.8353
   8   2.0000     -10.649351      -289.7836
   9   2.0000     -10.633518      -289.3527
  10   2.0000     -10.631499      -289.2978
  11   2.0000     -10.616412      -288.8873
  12   2.0000     -10.616270      -288.8834
  13   2.0000     -10.606523      -288.6182
  14   2.0000     -10.574816      -287.7554
  15   2.0000     -10.573898      -287.7304
  16   2.0000     -10.552727      -287.1543
  17   2.0000     -10.541898      -286.8596
  18   2.0000     -10.522102      -286.3210
  19   2.0000      -8.388458      -228.2616
  20   2.0000      -6.278487      -170.8463
  21   2.0000      -6.275042      -170.7526
  22   2.0000      -6.272976      -170.6963
  23   2.0000      -4.036782      -109.8464
  24   2.0000      -2.356373       -64.1202
  25   2.0000      -2.319474       -63.1161
  26   2.0000      -2.318912       -63.1008
  27   2.0000      -1.298290       -35.3283
  28   2.0000      -1.201579       -32.6966
  29   2.0000      -1.195716       -32.5371
  30   2.0000      -1.182446       -32.1760
  31   2.0000      -1.124086       -30.5879
  32   2.0000      -1.015573       -27.6352
  33   2.0000      -0.992383       -27.0041
  34   2.0000      -0.988856       -26.9081
  35   2.0000      -0.960846       -26.1459
  36   2.0000      -0.958634       -26.0858
  37   2.0000      -0.909008       -24.7354
  38   2.0000      -0.892113       -24.2756
  39   2.0000      -0.865438       -23.5498
  40   2.0000      -0.798761       -21.7354
  41   2.0000      -0.795598       -21.6493
  42   2.0000      -0.791687       -21.5429
  43   2.0000      -0.781569       -21.2676
  44   2.0000      -0.772414       -21.0185
  45   2.0000      -0.739887       -20.1333
  46   2.0000      -0.736234       -20.0340
  47   2.0000      -0.719359       -19.5748
  48   2.0000      -0.684259       -18.6196
  49   2.0000      -0.658182       -17.9100
  50   2.0000      -0.655243       -17.8301
  51   2.0000      -0.653933       -17.7944
  52   2.0000      -0.645908       -17.5761
  53   2.0000      -0.640680       -17.4338
  54   2.0000      -0.633940       -17.2504
  55   2.0000      -0.625939       -17.0327
  56   2.0000      -0.618858       -16.8400
  57   2.0000      -0.616799       -16.7839
  58   2.0000      -0.615146       -16.7390
  59   2.0000      -0.606859       -16.5135
  60   2.0000      -0.591676       -16.1003
  61   2.0000      -0.588360       -16.0101
  62   2.0000      -0.574940       -15.6449
  63   2.0000      -0.563618       -15.3368
  64   2.0000      -0.559607       -15.2277
  65   2.0000      -0.544639       -14.8204
  66   2.0000      -0.542443       -14.7606
  67   2.0000      -0.538138       -14.6435
  68   2.0000      -0.530418       -14.4334
  69   2.0000      -0.525403       -14.2969
  70   2.0000      -0.522106       -14.2072
  71   2.0000      -0.517139       -14.0721
  72   2.0000      -0.506714       -13.7884
  73   2.0000      -0.505194       -13.7470
  74   2.0000      -0.478845       -13.0300
  75   2.0000      -0.476992       -12.9796
  76   2.0000      -0.457825       -12.4580
  77   2.0000      -0.450551       -12.2601
  78   2.0000      -0.429806       -11.6956
  79   2.0000      -0.417500       -11.3608
  80   2.0000      -0.412587       -11.2271
  81   2.0000      -0.400785       -10.9059
  82   0.0000      -0.232025        -6.3137
  83   0.0000      -0.174344        -4.7441
  84   0.0000      -0.157414        -4.2834
  85   0.0000      -0.088588        -2.4106
  86   0.0000      -0.085298        -2.3211

MULLIKEN ATOMIC CHARGES
-----------------------
   0 Ir:    0.622833
   1 C :   -0.194433
   2 C :   -0.229064
   3 C :   -0.165326
   4 C :   -0.277872
   5 C :   -0.233919
   6 N :   -0.460262
   7 C :   -0.122682
   8 C :   -0.628594
   9 H :    0.245982
  10 H :    0.225759
  11 H :    0.271855
  12 C :   -0.674969
  13 H :    0.246861
  14 H :    0.270194
  15 H :    0.229153
  16 H :    0.242784
  17 C :    0.073582
  18 C :   -0.234529
  19 H :    0.279684
  20 C :   -0.306087
  21 C :   -0.170050
  22 S :    0.302701
  23 C :   -0.409319
  24 H :    0.428905
  25 H :    0.264301
  26 H :    0.299035
  27 H :    0.295925
  28 H :    0.301985
  29 H :    0.299722
  30 O :   -0.471667
  31 O :   -0.533447
  32 C :    0.602554
  33 C :   -0.754908
  34 H :    0.262768
  35 H :    0.266595
  36 H :    0.238834
  37 H :    0.301930
  38 H :    0.293186
Sum of atomic charges:    1.0000000

LOEWDIN ATOMIC CHARGES
----------------------
   0 Ir:   -0.138994
   1 C :   -0.002821
   2 C :   -0.015041
   3 C :    0.013018
   4 C :   -0.091520
   5 C :   -0.079729
   6 N :   -0.037969
   7 C :   -0.059917
   8 C :   -0.350635
   9 H :    0.146569
  10 H :    0.136551
  11 H :    0.153159
  12 C :   -0.361543
  13 H :    0.139860
  14 H :    0.155095
  15 H :    0.134124
  16 H :    0.138655
  17 C :    0.031811
  18 C :   -0.205576
  19 H :    0.159468
  20 C :   -0.160140
  21 C :   -0.154336
  22 S :    0.455866
  23 C :   -0.248630
  24 H :    0.239543
  25 H :    0.158267
  26 H :    0.170716
  27 H :    0.188180
  28 H :    0.191332
  29 H :    0.193712
  30 O :   -0.272844
  31 O :   -0.201475
  32 C :    0.115875
  33 C :   -0.383091
  34 H :    0.161322
  35 H :    0.164265
  36 H :    0.140424
  37 H :    0.189025
  38 H :    0.187423

  Mayer bond orders larger than 0.100000
B(  0-Ir,  1-C ) :   0.4459 B(  0-Ir,  2-C ) :   0.5310 B(  0-Ir,  3-C ) :   0.4941
B(  0-Ir,  4-C ) :   0.4283 B(  0-Ir,  5-C ) :   0.4398 B(  0-Ir,  6-N ) :   0.4775
B(  0-Ir, 20-C ) :   0.1186 B(  0-Ir, 31-O ) :   0.6150 B(  1-C ,  2-C ) :   1.1244
B(  1-C ,  4-C ) :   1.2139 B(  1-C , 27-H ) :   0.9103 B(  2-C ,  5-C ) :   1.1485
B(  2-C , 28-H ) :   0.9084 B(  3-C ,  4-C ) :   1.1390 B(  3-C ,  5-C ) :   1.1733
B(  3-C , 37-H ) :   0.8998 B(  4-C , 38-H ) :   0.9116 B(  5-C , 29-H ) :   0.9095
B(  6-N ,  7-C ) :   0.8802 B(  6-N , 17-C ) :   1.6608 B(  7-C ,  8-C ) :   0.9760
B(  7-C , 12-C ) :   0.9850 B(  7-C , 13-H ) :   0.8955 B(  8-C ,  9-H ) :   0.9055
B(  8-C , 10-H ) :   0.9170 B(  8-C , 11-H ) :   0.9002 B( 12-C , 14-H ) :   0.9031
B( 12-C , 15-H ) :   0.9111 B( 12-C , 16-H ) :   0.9169 B( 17-C , 18-C ) :   1.0880
B( 17-C , 19-H ) :   0.8750 B( 18-C , 20-C ) :   1.3984 B( 18-C , 22-S ) :   1.1746
B( 20-C , 21-C ) :   1.3063 B( 20-C , 24-H ) :   0.6529 B( 21-C , 23-C ) :   1.5126
B( 21-C , 25-H ) :   0.9050 B( 22-S , 23-C ) :   1.2437 B( 23-C , 26-H ) :   0.8898
B( 24-H , 30-O ) :   0.1459 B( 30-O , 32-C ) :   1.7660 B( 31-O , 32-C ) :   1.2630
B( 32-C , 33-C ) :   0.9355 B( 33-C , 34-H ) :   0.9062 B( 33-C , 35-H ) :   0.9010
B( 33-C , 36-H ) :   0.9137

Dispersion correction           -0.029215765
FINAL SINGLE POINT ENERGY     -1288.359975618685
Dispersion correction            ... done

DIPOLE MOMENT
-------------
                                X             Y             Z
Electronic contribution:     28.83884     -75.91374     102.55217
Nuclear contribution   :    -29.47474      74.02844    -102.75231
                        -----------------------------------------
Total Dipole Moment    :     -0.63590      -1.88530      -0.20014
                        -----------------------------------------
Magnitude (a.u.)       :      1.99970
Magnitude (Debye)      :      5.08282

Rotational constants in cm-1:     0.010468     0.007883     0.007375
Rotational constants in MHz :   313.815461   236.319903   221.106722

                             ****ORCA TERMINATED NORMALLY****
TOTAL RUN TIME: 0 days 0 hours 22 minutes 42 seconds 487 msec
