                         Program Version 5.0.3 -  RELEASE  -
|  1> ! EnGrad PBEh-3c
|  2> %output
|  3> xyzfile=True
|  4> end
|  5> %scf
|  6> maxiter 250
|  7> end
|  8> %output
|  9> Print[P_Hirshfeld] = 1
| 10> end
| 11> % maxcore
| 12> 4000
| 13> *xyz 1 1
| 14> Ir   0.51733969  -0.76904937   0.78407676
| 15> C   -0.05029242  -2.85182249   1.39122000
| 16> C    0.50210824  -2.08802489   2.48739930
| 17> C    2.10285025  -2.29505064   0.87665304
| 18> C    0.91177185  -2.90309773   0.36337435
| 19> C    1.84548777  -1.76708318   2.17637005
| 20> N   -1.05746980  -0.07942183  -0.48914694
| 21> C   -2.45767933  -0.02945338   0.02302400
| 22> C   -2.86267556   1.34332434   0.57012148
| 23> H   -3.91330100   1.29227538   0.87110395
| 24> H   -2.78624770   2.11357287  -0.20150635
| 25> H   -2.25573551   1.63911764   1.43167002
| 26> C   -3.46237385  -0.51651035  -1.01858690
| 27> H   -2.47751235  -0.74129140   0.86126632
| 28> H   -4.42349894  -0.64272675  -0.53041789
| 29> H   -3.62108692   0.20399333  -1.82690717
| 30> H   -3.17754100  -1.48164010  -1.45564090
| 31> C   -0.78707457   0.26670280  -1.68781086
| 32> C    0.55078609   0.21577199  -2.20367564
| 33> H   -1.63003057   0.56176147  -2.34400539
| 34> C    1.77464869   0.29075131  -1.64672731
| 35> C    2.80445515  -0.06241040  -2.49817101
| 36> S    0.71341701   0.16520431  -3.92375202
| 37> C    2.39935149  -0.04193686  -3.80398596
| 38> H    1.92812725   0.79755174  -0.69558535
| 39> H    3.83912999  -0.14714330  -2.24244982
| 40> H    3.02608516  -0.05899405  -4.69727788
| 41> H   -1.00420473  -3.37582202   1.41375773
| 42> H    0.00946501  -1.95356188   3.43492853
| 43> H    2.58020626  -1.32192393   2.84979463
| 44> O    1.95565776   2.00458329   0.50980716
| 45> O    0.28115611   1.08183975   1.62080224
| 46> C    1.06968064   2.08094984   1.31929353
| 47> C    0.84359883   3.38885444   2.00402051
| 48> H    0.84829206   4.19351096   1.26268612
| 49> H    1.70007592   3.60005922   2.64154654
| 50> H   -0.05708262   3.50090673   2.61387252
| 51> H    3.02334172  -2.17977743   0.33361171
| 52> H    0.79978239  -3.43602985  -0.57333977
| 53> *
| 54>
| 55>                          ****END OF INPUT****

CARTESIAN COORDINATES (ANGSTROEM)
---------------------------------
  Ir     0.517340   -0.769049    0.784077
  C     -0.050292   -2.851822    1.391220
  C      0.502108   -2.088025    2.487399
  C      2.102850   -2.295051    0.876653
  C      0.911772   -2.903098    0.363374
  C      1.845488   -1.767083    2.176370
  N     -1.057470   -0.079422   -0.489147
  C     -2.457679   -0.029453    0.023024
  C     -2.862676    1.343324    0.570121
  H     -3.913301    1.292275    0.871104
  H     -2.786248    2.113573   -0.201506
  H     -2.255736    1.639118    1.431670
  C     -3.462374   -0.516510   -1.018587
  H     -2.477512   -0.741291    0.861266
  H     -4.423499   -0.642727   -0.530418
  H     -3.621087    0.203993   -1.826907
  H     -3.177541   -1.481640   -1.455641
  C     -0.787075    0.266703   -1.687811
  C      0.550786    0.215772   -2.203676
  H     -1.630031    0.561761   -2.344005
  C      1.774649    0.290751   -1.646727
  C      2.804455   -0.062410   -2.498171
  S      0.713417    0.165204   -3.923752
  C      2.399351   -0.041937   -3.803986
  H      1.928127    0.797552   -0.695585
  H      3.839130   -0.147143   -2.242450
  H      3.026085   -0.058994   -4.697278
  H     -1.004205   -3.375822    1.413758
  H      0.009465   -1.953562    3.434929
  H      2.580206   -1.321924    2.849795
  O      1.955658    2.004583    0.509807
  O      0.281156    1.081840    1.620802
  C      1.069681    2.080950    1.319294
  C      0.843599    3.388854    2.004021
  H      0.848292    4.193511    1.262686
  H      1.700076    3.600059    2.641547
  H     -0.057083    3.500907    2.613873
  H      3.023342   -2.179777    0.333612
  H      0.799782   -3.436030   -0.573340

 Total Charge           Charge          ....    1
 Multiplicity           Mult            ....    1
 Number of Electrons    NEL             ....  164
 Basis Dimension        Dim             ....  358

ORBITAL ENERGIES
----------------

  NO   OCC          E(Eh)            E(eV)
   0   2.0000     -89.745200     -2442.0911
   1   2.0000     -19.614593      -533.7402
   2   2.0000     -19.566311      -532.4264
   3   2.0000     -14.830427      -403.5564
   4   2.0000     -10.664680      -290.2007
   5   2.0000     -10.658106      -290.0218
   6   2.0000     -10.657063      -289.9934
   7   2.0000     -10.653403      -289.8938
   8   2.0000     -10.649564      -289.7894
   9   2.0000     -10.635037      -289.3941
  10   2.0000     -10.632625      -289.3284
  11   2.0000     -10.615608      -288.8654
  12   2.0000     -10.611714      -288.7594
  13   2.0000     -10.604650      -288.5672
  14   2.0000     -10.574560      -287.7484
  15   2.0000     -10.571936      -287.6770
  16   2.0000     -10.552335      -287.1436
  17   2.0000     -10.542161      -286.8668
  18   2.0000     -10.524548      -286.3875
  19   2.0000      -8.385112      -228.1705
  20   2.0000      -6.275113      -170.7545
  21   2.0000      -6.271700      -170.6616
  22   2.0000      -6.269657      -170.6060
  23   2.0000      -4.036825      -109.8476
  24   2.0000      -2.356628       -64.1271
  25   2.0000      -2.319552       -63.1182
  26   2.0000      -2.318900       -63.1005
  27   2.0000      -1.293284       -35.1920
  28   2.0000      -1.200628       -32.6707
  29   2.0000      -1.193223       -32.4693
  30   2.0000      -1.181761       -32.1574
  31   2.0000      -1.124995       -30.6127
  32   2.0000      -1.015059       -27.6212
  33   2.0000      -0.992891       -27.0179
  34   2.0000      -0.988538       -26.8995
  35   2.0000      -0.962054       -26.1788
  36   2.0000      -0.955630       -26.0040
  37   2.0000      -0.916191       -24.9308
  38   2.0000      -0.891355       -24.2550
  39   2.0000      -0.865873       -23.5616
  40   2.0000      -0.798178       -21.7195
  41   2.0000      -0.795669       -21.6513
  42   2.0000      -0.791914       -21.5491
  43   2.0000      -0.781244       -21.2587
  44   2.0000      -0.771622       -20.9969
  45   2.0000      -0.740158       -20.1407
  46   2.0000      -0.735822       -20.0227
  47   2.0000      -0.719076       -19.5671
  48   2.0000      -0.684096       -18.6152
  49   2.0000      -0.659375       -17.9425
  50   2.0000      -0.655877       -17.8473
  51   2.0000      -0.654181       -17.8012
  52   2.0000      -0.645355       -17.5610
  53   2.0000      -0.638626       -17.3779
  54   2.0000      -0.632607       -17.2141
  55   2.0000      -0.624380       -16.9903
  56   2.0000      -0.619157       -16.8481
  57   2.0000      -0.617502       -16.8031
  58   2.0000      -0.615806       -16.7569
  59   2.0000      -0.607222       -16.5233
  60   2.0000      -0.591177       -16.0867
  61   2.0000      -0.586811       -15.9679
  62   2.0000      -0.576401       -15.6847
  63   2.0000      -0.564161       -15.3516
  64   2.0000      -0.560020       -15.2389
  65   2.0000      -0.545411       -14.8414
  66   2.0000      -0.543305       -14.7841
  67   2.0000      -0.541404       -14.7324
  68   2.0000      -0.531401       -14.4602
  69   2.0000      -0.526155       -14.3174
  70   2.0000      -0.520878       -14.1738
  71   2.0000      -0.518433       -14.1073
  72   2.0000      -0.508308       -13.8318
  73   2.0000      -0.504817       -13.7368
  74   2.0000      -0.481862       -13.1121
  75   2.0000      -0.476969       -12.9790
  76   2.0000      -0.456947       -12.4342
  77   2.0000      -0.451964       -12.2986
  78   2.0000      -0.428078       -11.6486
  79   2.0000      -0.418709       -11.3936
  80   2.0000      -0.415643       -11.3102
  81   2.0000      -0.399898       -10.8818
  82   0.0000      -0.230526        -6.2729
  83   0.0000      -0.172389        -4.6909
  84   0.0000      -0.153140        -4.1671
  85   0.0000      -0.087378        -2.3777
  86   0.0000      -0.086108        -2.3431

MULLIKEN ATOMIC CHARGES
-----------------------
   0 Ir:    0.617362
   1 C :   -0.189272
   2 C :   -0.239257
   3 C :   -0.159531
   4 C :   -0.277746
   5 C :   -0.234983
   6 N :   -0.456675
   7 C :   -0.122352
   8 C :   -0.628173
   9 H :    0.244307
  10 H :    0.225725
  11 H :    0.271854
  12 C :   -0.675776
  13 H :    0.246371
  14 H :    0.268093
  15 H :    0.230037
  16 H :    0.244011
  17 C :    0.063378
  18 C :   -0.222242
  19 H :    0.279251
  20 C :   -0.289798
  21 C :   -0.159485
  22 S :    0.299643
  23 C :   -0.418299
  24 H :    0.404135
  25 H :    0.264073
  26 H :    0.299065
  27 H :    0.296988
  28 H :    0.302990
  29 H :    0.300875
  30 O :   -0.448222
  31 O :   -0.563345
  32 C :    0.602573
  33 C :   -0.756206
  34 H :    0.266048
  35 H :    0.268601
  36 H :    0.246388
  37 H :    0.303888
  38 H :    0.295708
Sum of atomic charges:    1.0000000

LOEWDIN ATOMIC CHARGES
----------------------
   0 Ir:   -0.139718
   1 C :   -0.004493
   2 C :   -0.015216
   3 C :    0.015077
   4 C :   -0.090592
   5 C :   -0.079576
   6 N :   -0.041093
   7 C :   -0.059921
   8 C :   -0.350555
   9 H :    0.146152
  10 H :    0.136271
  11 H :    0.153186
  12 C :   -0.361986
  13 H :    0.139418
  14 H :    0.154624
  15 H :    0.134408
  16 H :    0.138941
  17 C :    0.030714
  18 C :   -0.218776
  19 H :    0.159706
  20 C :   -0.142790
  21 C :   -0.159237
  22 S :    0.456351
  23 C :   -0.246145
  24 H :    0.223361
  25 H :    0.158724
  26 H :    0.170186
  27 H :    0.189103
  28 H :    0.191619
  29 H :    0.194557
  30 O :   -0.253481
  31 O :   -0.229774
  32 C :    0.132019
  33 C :   -0.382826
  34 H :    0.163339
  35 H :    0.166296
  36 H :    0.143831
  37 H :    0.189681
  38 H :    0.188614

  Mayer bond orders larger than 0.100000
B(  0-Ir,  1-C ) :   0.4477 B(  0-Ir,  2-C ) :   0.5496 B(  0-Ir,  3-C ) :   0.4911
B(  0-Ir,  4-C ) :   0.4230 B(  0-Ir,  5-C ) :   0.4412 B(  0-Ir,  6-N ) :   0.4753
B(  0-Ir, 20-C ) :   0.1059 B(  0-Ir, 31-O ) :   0.6410 B(  1-C ,  2-C ) :   1.1144
B(  1-C ,  4-C ) :   1.2178 B(  1-C , 27-H ) :   0.9081 B(  2-C ,  5-C ) :   1.1457
B(  2-C , 28-H ) :   0.9073 B(  3-C ,  4-C ) :   1.1412 B(  3-C ,  5-C ) :   1.1735
B(  3-C , 37-H ) :   0.8958 B(  4-C , 38-H ) :   0.9091 B(  5-C , 29-H ) :   0.9087
B(  6-N ,  7-C ) :   0.8817 B(  6-N , 17-C ) :   1.6639 B(  7-C ,  8-C ) :   0.9755
B(  7-C , 12-C ) :   0.9846 B(  7-C , 13-H ) :   0.8959 B(  8-C ,  9-H ) :   0.9060
B(  8-C , 10-H ) :   0.9170 B(  8-C , 11-H ) :   0.9001 B( 12-C , 14-H ) :   0.9042
B( 12-C , 15-H ) :   0.9109 B( 12-C , 16-H ) :   0.9164 B( 17-C , 18-C ) :   1.0924
B( 17-C , 19-H ) :   0.8750 B( 18-C , 20-C ) :   1.3870 B( 18-C , 22-S ) :   1.1657
B( 20-C , 21-C ) :   1.3287 B( 20-C , 24-H ) :   0.6745 B( 21-C , 23-C ) :   1.4867
B( 21-C , 25-H ) :   0.9058 B( 22-S , 23-C ) :   1.2589 B( 23-C , 26-H ) :   0.8902
B( 24-H , 30-O ) :   0.1432 B( 30-O , 32-C ) :   1.8139 B( 31-O , 32-C ) :   1.2013
B( 32-C , 33-C ) :   0.9428 B( 33-C , 34-H ) :   0.9038 B( 33-C , 35-H ) :   0.8992
B( 33-C , 36-H ) :   0.9112

Dispersion correction           -0.029199710
FINAL SINGLE POINT ENERGY     -1288.364614330145
Dispersion correction            ... done

DIPOLE MOMENT
-------------
                                X             Y             Z
Electronic contribution:     28.35418     -76.68966     103.93134
Nuclear contribution   :    -28.95104      74.90336    -104.03914
                        -----------------------------------------
Total Dipole Moment    :     -0.59686      -1.78629      -0.10779
                        -----------------------------------------
Magnitude (a.u.)       :      1.88645
Magnitude (Debye)      :      4.79498

Rotational constants in cm-1:     0.010441     0.007871     0.007374
Rotational constants in MHz :   313.012690   235.974738   221.073874

                             ****ORCA TERMINATED NORMALLY****
TOTAL RUN TIME: 0 days 0 hours 23 minutes 41 seconds 269 msec
