                         Program Version 5.0.3 -  RELEASE  -
|  1> ! EnGrad PBEh-3c
|  2> %output
|  3> xyzfile=True
|  4> end
|  5> %scf
|  6> maxiter 250
|  7> end
|  8> %output
|  9> Print[P_Hirshfeld] = 1
| 10> end
| 11> % maxcore
| 12> 4000
| 13> *xyz 1 1
| 14> Ir   0.50007531  -0.80216268   0.82057540
| 15> C   -0.04423709  -2.85480082   1.38287619
| 16> C    0.50377160  -2.08749070   2.47252823
| 17> C    2.11740482  -2.31067572   0.89588346
| 18> C    0.93425729  -2.93722365   0.37063795
| 19> C    1.87281643  -1.76856424   2.18621895
| 20> N   -1.06083595  -0.09826308  -0.48427821
| 21> C   -2.45198830  -0.03965802   0.02583741
| 22> C   -2.84832029   1.34136533   0.57691679
| 23> H   -3.90825309   1.28410997   0.86295652
| 24> H   -2.78216291   2.11766206  -0.19028357
| 25> H   -2.23792591   1.64809583   1.43039380
| 26> C   -3.45723615  -0.51995026  -1.02426112
| 27> H   -2.47265987  -0.74627110   0.85784867
| 28> H   -4.42291346  -0.64368645  -0.52795727
| 29> H   -3.61906485   0.20444035  -1.82567072
| 30> H   -3.17920164  -1.47841200  -1.46441341
| 31> C   -0.79877047   0.27391358  -1.68452533
| 32> C    0.52425216   0.25119448  -2.21612026
| 33> H   -1.62493600   0.56502336  -2.34696145
| 34> C    1.77972652   0.36006417  -1.68773411
| 35> C    2.83290311  -0.01937272  -2.51249145
| 36> S    0.70878277   0.12228721  -3.89585193
| 37> C    2.39316793  -0.07219945  -3.79584242
| 38> H    1.82167155   0.66359561  -0.60543147
| 39> H    3.84838502  -0.15529536  -2.22881602
| 40> H    3.00833151  -0.05919557  -4.67878777
| 41> H   -1.04836072  -3.30433906   1.37498867
| 42> H   -0.00417625  -1.91889780   3.41299462
| 43> H    2.57653247  -1.28332081   2.85279182
| 44> O    1.98746932   2.03138081   0.50907959
| 45> O    0.31804044   1.05495329   1.58634609
| 46> C    1.09012816   2.09322763   1.30725074
| 47> C    0.83169383   3.38829116   2.01175169
| 48> H    0.84227248   4.17314851   1.26923692
| 49> H    1.69357372   3.59148604   2.63717849
| 50> H   -0.05454424   3.48492823   2.60583972
| 51> H    3.02632478  -2.13701486   0.31814108
| 52> H    0.80922573  -3.41442562  -0.59765495
| 53> *
| 54>
| 55>                          ****END OF INPUT****

CARTESIAN COORDINATES (ANGSTROEM)
---------------------------------
  Ir     0.500075   -0.802163    0.820575
  C     -0.044237   -2.854801    1.382876
  C      0.503772   -2.087491    2.472528
  C      2.117405   -2.310676    0.895883
  C      0.934257   -2.937224    0.370638
  C      1.872816   -1.768564    2.186219
  N     -1.060836   -0.098263   -0.484278
  C     -2.451988   -0.039658    0.025837
  C     -2.848320    1.341365    0.576917
  H     -3.908253    1.284110    0.862957
  H     -2.782163    2.117662   -0.190284
  H     -2.237926    1.648096    1.430394
  C     -3.457236   -0.519950   -1.024261
  H     -2.472660   -0.746271    0.857849
  H     -4.422913   -0.643686   -0.527957
  H     -3.619065    0.204440   -1.825671
  H     -3.179202   -1.478412   -1.464413
  C     -0.798770    0.273914   -1.684525
  C      0.524252    0.251194   -2.216120
  H     -1.624936    0.565023   -2.346961
  C      1.779727    0.360064   -1.687734
  C      2.832903   -0.019373   -2.512491
  S      0.708783    0.122287   -3.895852
  C      2.393168   -0.072199   -3.795842
  H      1.821672    0.663596   -0.605431
  H      3.848385   -0.155295   -2.228816
  H      3.008332   -0.059196   -4.678788
  H     -1.048361   -3.304339    1.374989
  H     -0.004176   -1.918898    3.412995
  H      2.576532   -1.283321    2.852792
  O      1.987469    2.031381    0.509080
  O      0.318040    1.054953    1.586346
  C      1.090128    2.093228    1.307251
  C      0.831694    3.388291    2.011752
  H      0.842272    4.173149    1.269237
  H      1.693574    3.591486    2.637178
  H     -0.054544    3.484928    2.605840
  H      3.026325   -2.137015    0.318141
  H      0.809226   -3.414426   -0.597655

 Total Charge           Charge          ....    1
 Multiplicity           Mult            ....    1
 Number of Electrons    NEL             ....  164
 Basis Dimension        Dim             ....  358

ORBITAL ENERGIES
----------------

  NO   OCC          E(Eh)            E(eV)
   0   2.0000     -89.741034     -2441.9777
   1   2.0000     -19.615560      -533.7665
   2   2.0000     -19.566180      -532.4228
   3   2.0000     -14.830455      -403.5572
   4   2.0000     -10.666995      -290.2637
   5   2.0000     -10.660118      -290.0766
   6   2.0000     -10.658827      -290.0414
   7   2.0000     -10.657081      -289.9939
   8   2.0000     -10.650796      -289.8229
   9   2.0000     -10.642016      -289.5840
  10   2.0000     -10.637399      -289.4583
  11   2.0000     -10.615457      -288.8613
  12   2.0000     -10.606258      -288.6110
  13   2.0000     -10.600195      -288.4460
  14   2.0000     -10.580741      -287.9166
  15   2.0000     -10.571764      -287.6723
  16   2.0000     -10.552807      -287.1565
  17   2.0000     -10.544032      -286.9177
  18   2.0000     -10.523752      -286.3659
  19   2.0000      -8.381715      -228.0781
  20   2.0000      -6.271647      -170.6602
  21   2.0000      -6.268219      -170.5669
  22   2.0000      -6.266397      -170.5173
  23   2.0000      -4.040709      -109.9533
  24   2.0000      -2.361338       -64.2553
  25   2.0000      -2.323472       -63.2249
  26   2.0000      -2.322752       -63.2053
  27   2.0000      -1.290439       -35.1146
  28   2.0000      -1.200060       -32.6553
  29   2.0000      -1.191267       -32.4160
  30   2.0000      -1.183038       -32.1921
  31   2.0000      -1.126758       -30.6606
  32   2.0000      -1.015412       -27.6308
  33   2.0000      -0.997532       -27.1442
  34   2.0000      -0.990151       -26.9434
  35   2.0000      -0.965833       -26.2816
  36   2.0000      -0.947876       -25.7930
  37   2.0000      -0.920958       -25.0605
  38   2.0000      -0.891900       -24.2698
  39   2.0000      -0.869353       -23.6563
  40   2.0000      -0.799656       -21.7598
  41   2.0000      -0.798037       -21.7157
  42   2.0000      -0.794228       -21.6120
  43   2.0000      -0.782896       -21.3037
  44   2.0000      -0.771025       -20.9807
  45   2.0000      -0.740131       -20.1400
  46   2.0000      -0.737315       -20.0634
  47   2.0000      -0.715381       -19.4665
  48   2.0000      -0.685489       -18.6531
  49   2.0000      -0.664690       -18.0871
  50   2.0000      -0.657687       -17.8966
  51   2.0000      -0.654274       -17.8037
  52   2.0000      -0.646996       -17.6056
  53   2.0000      -0.635539       -17.2939
  54   2.0000      -0.632828       -17.2201
  55   2.0000      -0.622133       -16.9291
  56   2.0000      -0.621448       -16.9105
  57   2.0000      -0.619060       -16.8455
  58   2.0000      -0.617396       -16.8002
  59   2.0000      -0.607318       -16.5260
  60   2.0000      -0.593168       -16.1409
  61   2.0000      -0.582032       -15.8379
  62   2.0000      -0.579657       -15.7733
  63   2.0000      -0.567052       -15.4303
  64   2.0000      -0.559961       -15.2373
  65   2.0000      -0.549710       -14.9584
  66   2.0000      -0.546333       -14.8665
  67   2.0000      -0.543821       -14.7981
  68   2.0000      -0.533647       -14.5213
  69   2.0000      -0.527600       -14.3567
  70   2.0000      -0.526214       -14.3190
  71   2.0000      -0.515615       -14.0306
  72   2.0000      -0.512180       -13.9371
  73   2.0000      -0.504043       -13.7157
  74   2.0000      -0.483419       -13.1545
  75   2.0000      -0.477296       -12.9879
  76   2.0000      -0.462185       -12.5767
  77   2.0000      -0.450693       -12.2640
  78   2.0000      -0.426568       -11.6075
  79   2.0000      -0.418302       -11.3826
  80   2.0000      -0.415115       -11.2959
  81   2.0000      -0.399929       -10.8826
  82   0.0000      -0.228646        -6.2218
  83   0.0000      -0.172769        -4.7013
  84   0.0000      -0.148725        -4.0470
  85   0.0000      -0.088364        -2.4045
  86   0.0000      -0.086956        -2.3662

MULLIKEN ATOMIC CHARGES
-----------------------
   0 Ir:    0.601367
   1 C :   -0.193173
   2 C :   -0.259862
   3 C :   -0.165870
   4 C :   -0.257492
   5 C :   -0.221061
   6 N :   -0.456724
   7 C :   -0.124008
   8 C :   -0.628529
   9 H :    0.242891
  10 H :    0.227385
  11 H :    0.270690
  12 C :   -0.676897
  13 H :    0.245515
  14 H :    0.265421
  15 H :    0.231951
  16 H :    0.245930
  17 C :    0.068637
  18 C :   -0.187605
  19 H :    0.280918
  20 C :   -0.245744
  21 C :   -0.144967
  22 S :    0.296862
  23 C :   -0.423018
  24 H :    0.309573
  25 H :    0.265551
  26 H :    0.297059
  27 H :    0.300663
  28 H :    0.306991
  29 H :    0.305526
  30 O :   -0.432221
  31 O :   -0.582601
  32 C :    0.587293
  33 C :   -0.752022
  34 H :    0.269484
  35 H :    0.269764
  36 H :    0.251240
  37 H :    0.308113
  38 H :    0.302969
Sum of atomic charges:    1.0000000

LOEWDIN ATOMIC CHARGES
----------------------
   0 Ir:   -0.145640
   1 C :   -0.015424
   2 C :   -0.017346
   3 C :    0.018465
   4 C :   -0.079402
   5 C :   -0.073265
   6 N :   -0.046315
   7 C :   -0.062688
   8 C :   -0.350401
   9 H :    0.146065
  10 H :    0.136400
  11 H :    0.152507
  12 C :   -0.362234
  13 H :    0.138513
  14 H :    0.154109
  15 H :    0.135159
  16 H :    0.139223
  17 C :    0.034710
  18 C :   -0.244003
  19 H :    0.160019
  20 C :   -0.116684
  21 C :   -0.162720
  22 S :    0.464784
  23 C :   -0.249028
  24 H :    0.204278
  25 H :    0.159962
  26 H :    0.168390
  27 H :    0.192056
  28 H :    0.192878
  29 H :    0.196965
  30 O :   -0.245378
  31 O :   -0.240984
  32 C :    0.138724
  33 C :   -0.382790
  34 H :    0.164737
  35 H :    0.167713
  36 H :    0.144352
  37 H :    0.192284
  38 H :    0.192009

  Mayer bond orders larger than 0.100000
B(  0-Ir,  1-C ) :   0.4609 B(  0-Ir,  2-C ) :   0.5881 B(  0-Ir,  3-C ) :   0.4884
B(  0-Ir,  4-C ) :   0.4238 B(  0-Ir,  5-C ) :   0.4448 B(  0-Ir,  6-N ) :   0.4681
B(  0-Ir, 31-O ) :   0.6577 B(  1-C ,  2-C ) :   1.0920 B(  1-C ,  4-C ) :   1.2217
B(  1-C , 27-H ) :   0.9022 B(  2-C ,  5-C ) :   1.1379 B(  2-C , 28-H ) :   0.9023
B(  3-C ,  4-C ) :   1.1402 B(  3-C ,  5-C ) :   1.1759 B(  3-C , 37-H ) :   0.8893
B(  4-C , 38-H ) :   0.9018 B(  5-C , 29-H ) :   0.9053 B(  6-N ,  7-C ) :   0.8881
B(  6-N , 17-C ) :   1.6644 B(  7-C ,  8-C ) :   0.9740 B(  7-C , 12-C ) :   0.9842
B(  7-C , 13-H ) :   0.8963 B(  8-C ,  9-H ) :   0.9067 B(  8-C , 10-H ) :   0.9163
B(  8-C , 11-H ) :   0.9008 B( 12-C , 14-H ) :   0.9057 B( 12-C , 15-H ) :   0.9108
B( 12-C , 16-H ) :   0.9154 B( 17-C , 18-C ) :   1.0915 B( 17-C , 19-H ) :   0.8736
B( 18-C , 20-C ) :   1.3587 B( 18-C , 22-S ) :   1.1550 B( 20-C , 21-C ) :   1.3350
B( 20-C , 24-H ) :   0.7582 B( 21-C , 23-C ) :   1.4584 B( 21-C , 25-H ) :   0.9054
B( 22-S , 23-C ) :   1.2768 B( 23-C , 26-H ) :   0.8913 B( 24-H , 30-O ) :   0.1087
B( 30-O , 32-C ) :   1.8632 B( 31-O , 32-C ) :   1.1576 B( 32-C , 33-C ) :   0.9481
B( 33-C , 34-H ) :   0.9020 B( 33-C , 35-H ) :   0.8995 B( 33-C , 36-H ) :   0.9081

Dispersion correction           -0.029189850
FINAL SINGLE POINT ENERGY     -1288.361125296281
Dispersion correction            ... done

DIPOLE MOMENT
-------------
                                X             Y             Z
Electronic contribution:     26.28176     -79.63717     107.53970
Nuclear contribution   :    -26.89502      77.86717    -107.54955
                        -----------------------------------------
Total Dipole Moment    :     -0.61326      -1.77001      -0.00985
                        -----------------------------------------
Magnitude (a.u.)       :      1.87326
Magnitude (Debye)      :      4.76146

Rotational constants in cm-1:     0.010386     0.007822     0.007354
Rotational constants in MHz :   311.352150   234.488407   220.478925

                             ****ORCA TERMINATED NORMALLY****
TOTAL RUN TIME: 0 days 0 hours 25 minutes 3 seconds 881 msec
