                         Program Version 5.0.3 -  RELEASE  -
|  1> ! EnGrad PBEh-3c
|  2> %output
|  3> xyzfile=True
|  4> end
|  5> %scf
|  6> maxiter 250
|  7> end
|  8> %output
|  9> Print[P_Hirshfeld] = 1
| 10> end
| 11> % maxcore
| 12> 4000
| 13> *xyz 1 1
| 14> Ir   0.51296033  -0.77744905   0.79333517
| 15> C   -0.04875640  -2.85257798   1.38910347
| 16> C    0.50253018  -2.08788939   2.48362704
| 17> C    2.10654223  -2.29901417   0.88153112
| 18> C    0.91747561  -2.91175427   0.36521687
| 19> C    1.85242008  -1.76745887   2.17886837
| 20> N   -1.05832367  -0.08420119  -0.48791192
| 21> C   -2.45623572  -0.03204194   0.02373766
| 22> C   -2.85903414   1.34282741   0.57184521
| 23> H   -3.91202052   1.29020410   0.86903724
| 24> H   -2.78521153   2.11461015  -0.19865953
| 25> H   -2.25121784   1.64139509   1.43134629
| 26> C   -3.46107060  -0.51738293  -1.02002625
| 27> H   -2.47628145  -0.74255458   0.86039938
| 28> H   -4.42335043  -0.64297019  -0.52979372
| 29> H   -3.62057399   0.20410672  -1.82659353
| 30> H   -3.17796225  -1.48082124  -1.45786617
| 31> C   -0.79004141   0.26853192  -1.68697744
| 32> C    0.54405537   0.22475743  -2.20683240
| 33> H   -1.62873825   0.56258890  -2.34475524
| 34> C    1.77593675   0.30833353  -1.65712928
| 35> C    2.81167139  -0.05149326  -2.50180360
| 36> S    0.71224147   0.15431776  -3.91667475
| 37> C    2.39778294  -0.04961341  -3.80192024
| 38> H    1.90112320   0.76357181  -0.67271650
| 39> H    3.84147766  -0.14921119  -2.23899141
| 40> H    3.02158168  -0.05904517  -4.69258759
| 41> H   -1.01540554  -3.35768932   1.40392339
| 42> H    0.00600470  -1.94476883   3.42936467
| 43> H    2.57927435  -1.31213169   2.85055491
| 44> O    1.96372723   2.01138087   0.50962260
| 45> O    0.29051236   1.07501960   1.61206194
| 46> C    1.07486745   2.08406428   1.31623870
| 47> C    0.84057895   3.38871156   2.00598164
| 48> H    0.84676510   4.18834573   1.26434783
| 49> H    1.69842654   3.59788451   2.64043852
| 50> H   -0.05643872   3.49685355   2.61183488
| 51> H    3.02409842  -2.16893008   0.32968736
| 52> H    0.80217783  -3.43054962  -0.57950767
| 53> *
| 54>
| 55>                          ****END OF INPUT****

CARTESIAN COORDINATES (ANGSTROEM)
---------------------------------
  Ir     0.512960   -0.777449    0.793335
  C     -0.048756   -2.852578    1.389103
  C      0.502530   -2.087889    2.483627
  C      2.106542   -2.299014    0.881531
  C      0.917476   -2.911754    0.365217
  C      1.852420   -1.767459    2.178868
  N     -1.058324   -0.084201   -0.487912
  C     -2.456236   -0.032042    0.023738
  C     -2.859034    1.342827    0.571845
  H     -3.912021    1.290204    0.869037
  H     -2.785212    2.114610   -0.198660
  H     -2.251218    1.641395    1.431346
  C     -3.461071   -0.517383   -1.020026
  H     -2.476281   -0.742555    0.860399
  H     -4.423350   -0.642970   -0.529794
  H     -3.620574    0.204107   -1.826594
  H     -3.177962   -1.480821   -1.457866
  C     -0.790041    0.268532   -1.686977
  C      0.544055    0.224757   -2.206832
  H     -1.628738    0.562589   -2.344755
  C      1.775937    0.308334   -1.657129
  C      2.811671   -0.051493   -2.501804
  S      0.712241    0.154318   -3.916675
  C      2.397783   -0.049613   -3.801920
  H      1.901123    0.763572   -0.672717
  H      3.841478   -0.149211   -2.238991
  H      3.021582   -0.059045   -4.692588
  H     -1.015406   -3.357689    1.403923
  H      0.006005   -1.944769    3.429365
  H      2.579274   -1.312132    2.850555
  O      1.963727    2.011381    0.509623
  O      0.290512    1.075020    1.612062
  C      1.074867    2.084064    1.316239
  C      0.840579    3.388712    2.005982
  H      0.846765    4.188346    1.264348
  H      1.698427    3.597885    2.640439
  H     -0.056439    3.496854    2.611835
  H      3.024098   -2.168930    0.329687
  H      0.802178   -3.430550   -0.579508

 Total Charge           Charge          ....    1
 Multiplicity           Mult            ....    1
 Number of Electrons    NEL             ....  164
 Basis Dimension        Dim             ....  358

ORBITAL ENERGIES
----------------

  NO   OCC          E(Eh)            E(eV)
   0   2.0000     -89.743855     -2442.0544
   1   2.0000     -19.614917      -533.7490
   2   2.0000     -19.566328      -532.4269
   3   2.0000     -14.830326      -403.5537
   4   2.0000     -10.665303      -290.2176
   5   2.0000     -10.658238      -290.0254
   6   2.0000     -10.657244      -289.9984
   7   2.0000     -10.655201      -289.9428
   8   2.0000     -10.650098      -289.8039
   9   2.0000     -10.636843      -289.4432
  10   2.0000     -10.633934      -289.3641
  11   2.0000     -10.615536      -288.8634
  12   2.0000     -10.609937      -288.7111
  13   2.0000     -10.603338      -288.5315
  14   2.0000     -10.575493      -287.7738
  15   2.0000     -10.571539      -287.6662
  16   2.0000     -10.552429      -287.1462
  17   2.0000     -10.542600      -286.8787
  18   2.0000     -10.524372      -286.3827
  19   2.0000      -8.383965      -228.1393
  20   2.0000      -6.273952      -170.7229
  21   2.0000      -6.270537      -170.6300
  22   2.0000      -6.268540      -170.5756
  23   2.0000      -4.037957      -109.8784
  24   2.0000      -2.357968       -64.1636
  25   2.0000      -2.320665       -63.1485
  26   2.0000      -2.320019       -63.1309
  27   2.0000      -1.292706       -35.1763
  28   2.0000      -1.200442       -32.6657
  29   2.0000      -1.192734       -32.4559
  30   2.0000      -1.182329       -32.1728
  31   2.0000      -1.125276       -30.6203
  32   2.0000      -1.015064       -27.6213
  33   2.0000      -0.994166       -27.0526
  34   2.0000      -0.989175       -26.9168
  35   2.0000      -0.962850       -26.2005
  36   2.0000      -0.953741       -25.9526
  37   2.0000      -0.917462       -24.9654
  38   2.0000      -0.891459       -24.2578
  39   2.0000      -0.866726       -23.5848
  40   2.0000      -0.798650       -21.7324
  41   2.0000      -0.796458       -21.6727
  42   2.0000      -0.792547       -21.5663
  43   2.0000      -0.781937       -21.2776
  44   2.0000      -0.771313       -20.9885
  45   2.0000      -0.739817       -20.1314
  46   2.0000      -0.736641       -20.0450
  47   2.0000      -0.718788       -19.5592
  48   2.0000      -0.684437       -18.6245
  49   2.0000      -0.660740       -17.9796
  50   2.0000      -0.656294       -17.8587
  51   2.0000      -0.654376       -17.8065
  52   2.0000      -0.645644       -17.5689
  53   2.0000      -0.637948       -17.3595
  54   2.0000      -0.632656       -17.2154
  55   2.0000      -0.623672       -16.9710
  56   2.0000      -0.620069       -16.8729
  57   2.0000      -0.618066       -16.8184
  58   2.0000      -0.616642       -16.7797
  59   2.0000      -0.607166       -16.5218
  60   2.0000      -0.591450       -16.0942
  61   2.0000      -0.585696       -15.9376
  62   2.0000      -0.577233       -15.7073
  63   2.0000      -0.565035       -15.3754
  64   2.0000      -0.560111       -15.2414
  65   2.0000      -0.546398       -14.8683
  66   2.0000      -0.543930       -14.8011
  67   2.0000      -0.542416       -14.7599
  68   2.0000      -0.531995       -14.4763
  69   2.0000      -0.526553       -14.3282
  70   2.0000      -0.521102       -14.1799
  71   2.0000      -0.519181       -14.1276
  72   2.0000      -0.509526       -13.8649
  73   2.0000      -0.504701       -13.7336
  74   2.0000      -0.482342       -13.1252
  75   2.0000      -0.477248       -12.9866
  76   2.0000      -0.457717       -12.4551
  77   2.0000      -0.452459       -12.3120
  78   2.0000      -0.427760       -11.6400
  79   2.0000      -0.418429       -11.3860
  80   2.0000      -0.415814       -11.3149
  81   2.0000      -0.399913       -10.8822
  82   0.0000      -0.230117        -6.2618
  83   0.0000      -0.172166        -4.6849
  84   0.0000      -0.151876        -4.1328
  85   0.0000      -0.086957        -2.3662
  86   0.0000      -0.086726        -2.3599

MULLIKEN ATOMIC CHARGES
-----------------------
   0 Ir:    0.613510
   1 C :   -0.189889
   2 C :   -0.244547
   3 C :   -0.160723
   4 C :   -0.272456
   5 C :   -0.231562
   6 N :   -0.456915
   7 C :   -0.122778
   8 C :   -0.628233
   9 H :    0.243911
  10 H :    0.226147
  11 H :    0.271502
  12 C :   -0.676051
  13 H :    0.246095
  14 H :    0.267394
  15 H :    0.230537
  16 H :    0.244483
  17 C :    0.062129
  18 C :   -0.212238
  19 H :    0.279558
  20 C :   -0.281300
  21 C :   -0.154437
  22 S :    0.299230
  23 C :   -0.421029
  24 H :    0.383307
  25 H :    0.264230
  26 H :    0.298664
  27 H :    0.297866
  28 H :    0.304036
  29 H :    0.302106
  30 O :   -0.443760
  31 O :   -0.568370
  32 C :    0.598375
  33 C :   -0.755148
  34 H :    0.266987
  35 H :    0.268925
  36 H :    0.247725
  37 H :    0.305121
  38 H :    0.297598
Sum of atomic charges:    1.0000000

LOEWDIN ATOMIC CHARGES
----------------------
   0 Ir:   -0.139830
   1 C :   -0.006850
   2 C :   -0.015449
   3 C :    0.016170
   4 C :   -0.087809
   5 C :   -0.078003
   6 N :   -0.042806
   7 C :   -0.060609
   8 C :   -0.350521
   9 H :    0.146104
  10 H :    0.136299
  11 H :    0.152982
  12 C :   -0.362049
  13 H :    0.139150
  14 H :    0.154485
  15 H :    0.134605
  16 H :    0.139009
  17 C :    0.031884
  18 C :   -0.225711
  19 H :    0.159764
  20 C :   -0.135801
  21 C :   -0.160432
  22 S :    0.458136
  23 C :   -0.246509
  24 H :    0.217277
  25 H :    0.158962
  26 H :    0.169686
  27 H :    0.189791
  28 H :    0.191977
  29 H :    0.195177
  30 O :   -0.251444
  31 O :   -0.232627
  32 C :    0.133585
  33 C :   -0.382820
  34 H :    0.163725
  35 H :    0.166664
  36 H :    0.144035
  37 H :    0.190331
  38 H :    0.189470

  Mayer bond orders larger than 0.100000
B(  0-Ir,  1-C ) :   0.4514 B(  0-Ir,  2-C ) :   0.5602 B(  0-Ir,  3-C ) :   0.4910
B(  0-Ir,  4-C ) :   0.4232 B(  0-Ir,  5-C ) :   0.4421 B(  0-Ir,  6-N ) :   0.4736
B(  0-Ir, 20-C ) :   0.1010 B(  0-Ir, 31-O ) :   0.6453 B(  1-C ,  2-C ) :   1.1083
B(  1-C ,  4-C ) :   1.2187 B(  1-C , 27-H ) :   0.9068 B(  2-C ,  5-C ) :   1.1437
B(  2-C , 28-H ) :   0.9061 B(  3-C ,  4-C ) :   1.1409 B(  3-C ,  5-C ) :   1.1739
B(  3-C , 37-H ) :   0.8940 B(  4-C , 38-H ) :   0.9073 B(  5-C , 29-H ) :   0.9079
B(  6-N ,  7-C ) :   0.8834 B(  6-N , 17-C ) :   1.6640 B(  7-C ,  8-C ) :   0.9751
B(  7-C , 12-C ) :   0.9845 B(  7-C , 13-H ) :   0.8960 B(  8-C ,  9-H ) :   0.9062
B(  8-C , 10-H ) :   0.9168 B(  8-C , 11-H ) :   0.9003 B( 12-C , 14-H ) :   0.9046
B( 12-C , 15-H ) :   0.9109 B( 12-C , 16-H ) :   0.9161 B( 17-C , 18-C ) :   1.0934
B( 17-C , 19-H ) :   0.8747 B( 18-C , 20-C ) :   1.3793 B( 18-C , 22-S ) :   1.1627
B( 20-C , 21-C ) :   1.3327 B( 20-C , 24-H ) :   0.6925 B( 21-C , 23-C ) :   1.4782
B( 21-C , 25-H ) :   0.9059 B( 22-S , 23-C ) :   1.2641 B( 23-C , 26-H ) :   0.8906
B( 24-H , 30-O ) :   0.1389 B( 30-O , 32-C ) :   1.8272 B( 31-O , 32-C ) :   1.1904
B( 32-C , 33-C ) :   0.9443 B( 33-C , 34-H ) :   0.9033 B( 33-C , 35-H ) :   0.8992
B( 33-C , 36-H ) :   0.9105

Dispersion correction           -0.029198819
FINAL SINGLE POINT ENERGY     -1288.366365024898
Dispersion correction            ... done

DIPOLE MOMENT
-------------
                                X             Y             Z
Electronic contribution:     27.82803     -77.44200     104.85617
Nuclear contribution   :    -28.42950      75.65518    -104.92960
                        -----------------------------------------
Total Dipole Moment    :     -0.60147      -1.78682      -0.07344
                        -----------------------------------------
Magnitude (a.u.)       :      1.88677
Magnitude (Debye)      :      4.79579

Rotational constants in cm-1:     0.010427     0.007859     0.007370
Rotational constants in MHz :   312.600332   235.609782   220.932603

                             ****ORCA TERMINATED NORMALLY****
TOTAL RUN TIME: 0 days 0 hours 18 minutes 10 seconds 716 msec
