                         Program Version 5.0.3 -  RELEASE  -
|  1> ! EnGrad PBEh-3c
|  2> %output
|  3> xyzfile=True
|  4> end
|  5> %scf
|  6> maxiter 250
|  7> end
|  8> %output
|  9> Print[P_Hirshfeld] = 1
| 10> end
| 11> % maxcore
| 12> 4000
| 13> *xyz -1 1
| 14> Pt  -1.07134522  -0.92122528   0.56673757
| 15> Cl  -0.28472867  -0.67480348   2.75833745
| 16> Cl  -2.73866078  -2.37604171   1.17623836
| 17> Cl  -1.73251479  -1.03484078  -1.67347838
| 18> C    1.10093215   1.03933770  -0.61339493
| 19> H    1.45462983   1.96439983  -0.15945586
| 20> H    1.32580825   0.08421357   0.40724950
| 21> H    1.80284591   0.69101863  -1.36599384
| 22> H    0.14303331   1.22793498  -1.09623292
| 23> *
| 24>
| 25>                          ****END OF INPUT****

CARTESIAN COORDINATES (ANGSTROEM)
---------------------------------
  Pt    -1.071345   -0.921225    0.566738
  Cl    -0.284729   -0.674803    2.758337
  Cl    -2.738661   -2.376042    1.176238
  Cl    -1.732515   -1.034841   -1.673478
  C      1.100932    1.039338   -0.613395
  H      1.454630    1.964400   -0.159456
  H      1.325808    0.084214    0.407249
  H      1.802846    0.691019   -1.365994
  H      0.143033    1.227935   -1.096233

 Total Charge           Charge          ....   -1
 Multiplicity           Mult            ....    1
 Number of Electrons    NEL             ....   80
 Basis Dimension        Dim             ....  109

ORBITAL ENERGIES
----------------

  NO   OCC          E(Eh)            E(eV)
   0   2.0000    -102.114106     -2778.6661
   1   2.0000    -102.090221     -2778.0161
   2   2.0000    -102.090038     -2778.0112
   3   2.0000     -10.349591      -281.6267
   4   2.0000      -9.577359      -260.6132
   5   2.0000      -9.554064      -259.9793
   6   2.0000      -9.553916      -259.9753
   7   2.0000      -7.264921      -197.6886
   8   2.0000      -7.257482      -197.4861
   9   2.0000      -7.257182      -197.4780
  10   2.0000      -7.239905      -197.0078
  11   2.0000      -7.239822      -197.0056
  12   2.0000      -7.235148      -196.8784
  13   2.0000      -7.234930      -196.8725
  14   2.0000      -7.234926      -196.8723
  15   2.0000      -7.234782      -196.8684
  16   2.0000      -3.941450      -107.2523
  17   2.0000      -2.157290       -58.7029
  18   2.0000      -2.155396       -58.6513
  19   2.0000      -2.118345       -57.6431
  20   2.0000      -0.702022       -19.1030
  21   2.0000      -0.685532       -18.6543
  22   2.0000      -0.676475       -18.4078
  23   2.0000      -0.664192       -18.0736
  24   2.0000      -0.358600        -9.7580
  25   2.0000      -0.355470        -9.6728
  26   2.0000      -0.305296        -8.3075
  27   2.0000      -0.282530        -7.6880
  28   2.0000      -0.266698        -7.2572
  29   2.0000      -0.262031        -7.1302
  30   2.0000      -0.228459        -6.2167
  31   2.0000      -0.224331        -6.1043
  32   2.0000      -0.201445        -5.4816
  33   2.0000      -0.180258        -4.9051
  34   2.0000      -0.176679        -4.8077
  35   2.0000      -0.157650        -4.2899
  36   2.0000      -0.144451        -3.9307
  37   2.0000      -0.139671        -3.8006
  38   2.0000      -0.129468        -3.5230
  39   2.0000      -0.117269        -3.1910
  40   0.0000       0.063448         1.7265
  41   0.0000       0.174392         4.7455
  42   0.0000       0.194559         5.2942
  43   0.0000       0.221097         6.0163
  44   0.0000       0.264125         7.1872

MULLIKEN ATOMIC CHARGES
-----------------------
   0 Pt:    0.132020
   1 Cl:   -0.438315
   2 Cl:   -0.316990
   3 Cl:   -0.438650
   4 C :   -0.868930
   5 H :    0.218468
   6 H :    0.207154
   7 H :    0.226699
   8 H :    0.278544
Sum of atomic charges:   -1.0000000

LOEWDIN ATOMIC CHARGES
----------------------
   0 Pt:   -0.842709
   1 Cl:   -0.148308
   2 Cl:   -0.000724
   3 Cl:   -0.147020
   4 C :   -0.478753
   5 H :    0.123225
   6 H :    0.194350
   7 H :    0.127313
   8 H :    0.172626

  Mayer bond orders larger than 0.100000
B(  0-Pt,  1-Cl) :   0.7991 B(  0-Pt,  2-Cl) :   0.9968 B(  0-Pt,  3-Cl) :   0.7935
B(  1-Cl,  3-Cl) :   0.1100 B(  4-C ,  5-H ) :   0.9172 B(  4-C ,  6-H ) :   0.8751
B(  4-C ,  7-H ) :   0.9173 B(  4-C ,  8-H ) :   0.8903

Dispersion correction           -0.004761862
FINAL SINGLE POINT ENERGY     -1539.003634835141
Dispersion correction            ... done

DIPOLE MOMENT
-------------
                                X             Y             Z
Electronic contribution:     -0.26490      -0.66858       3.91387
Nuclear contribution   :      1.29052       1.55929      -4.39181
                        -----------------------------------------
Total Dipole Moment    :      1.02562       0.89071      -0.47794
                        -----------------------------------------
Magnitude (a.u.)       :      1.44003
Magnitude (Debye)      :      3.66026

Rotational constants in cm-1:     0.048831     0.042655     0.022889
Rotational constants in MHz :  1463.907086  1278.762972   686.208462

                             ****ORCA TERMINATED NORMALLY****
TOTAL RUN TIME: 0 days 0 hours 0 minutes 37 seconds 367 msec
