                         Program Version 5.0.3 -  RELEASE  -
|  1> ! EnGrad PBEh-3c
|  2> %output
|  3> xyzfile=True
|  4> end
|  5> %scf
|  6> maxiter 250
|  7> end
|  8> %output
|  9> Print[P_Hirshfeld] = 1
| 10> end
| 11> % maxcore
| 12> 4000
| 13> *xyz -1 1
| 14> Pt  -1.07518433  -0.93905754   0.56709942
| 15> Cl  -0.28083614  -0.64145949   2.72887741
| 16> Cl  -2.69437277  -2.31214548   1.16524702
| 17> Cl  -1.68292583  -1.04555840  -1.66790351
| 18> C    1.16911678   0.89679026  -0.44448471
| 19> H    1.45711435   1.92637783  -0.12357330
| 20> H    1.23197531   0.18907897   0.19705514
| 21> H    1.76659200   0.70735040  -1.38356217
| 22> H    0.10606851   1.21899801  -1.03912937
| 23> *
| 24>
| 25>                          ****END OF INPUT****

CARTESIAN COORDINATES (ANGSTROEM)
---------------------------------
  Pt    -1.075184   -0.939058    0.567099
  Cl    -0.280836   -0.641459    2.728877
  Cl    -2.694373   -2.312145    1.165247
  Cl    -1.682926   -1.045558   -1.667904
  C      1.169117    0.896790   -0.444485
  H      1.457114    1.926378   -0.123573
  H      1.231975    0.189079    0.197055
  H      1.766592    0.707350   -1.383562
  H      0.106069    1.218998   -1.039129

 Total Charge           Charge          ....   -1
 Multiplicity           Mult            ....    1
 Number of Electrons    NEL             ....   80
 Basis Dimension        Dim             ....  109

ORBITAL ENERGIES
----------------

  NO   OCC          E(Eh)            E(eV)
   0   2.0000    -102.117797     -2778.7665
   1   2.0000    -102.090726     -2778.0299
   2   2.0000    -102.089391     -2777.9936
   3   2.0000     -10.326954      -281.0107
   4   2.0000      -9.582305      -260.7478
   5   2.0000      -9.554783      -259.9989
   6   2.0000      -9.553580      -259.9661
   7   2.0000      -7.269919      -197.8245
   8   2.0000      -7.262267      -197.6163
   9   2.0000      -7.261929      -197.6071
  10   2.0000      -7.240539      -197.0251
  11   2.0000      -7.239444      -196.9953
  12   2.0000      -7.235968      -196.9007
  13   2.0000      -7.235597      -196.8906
  14   2.0000      -7.234595      -196.8634
  15   2.0000      -7.234410      -196.8583
  16   2.0000      -3.940333      -107.2219
  17   2.0000      -2.159022       -58.7500
  18   2.0000      -2.153968       -58.6124
  19   2.0000      -2.117156       -57.6107
  20   2.0000      -0.712265       -19.3817
  21   2.0000      -0.688663       -18.7395
  22   2.0000      -0.677527       -18.4365
  23   2.0000      -0.674426       -18.3521
  24   2.0000      -0.401116       -10.9149
  25   2.0000      -0.332131        -9.0378
  26   2.0000      -0.303701        -8.2641
  27   2.0000      -0.286814        -7.8046
  28   2.0000      -0.280178        -7.6240
  29   2.0000      -0.272055        -7.4030
  30   2.0000      -0.236491        -6.4353
  31   2.0000      -0.229984        -6.2582
  32   2.0000      -0.204345        -5.5605
  33   2.0000      -0.181562        -4.9405
  34   2.0000      -0.179138        -4.8746
  35   2.0000      -0.158162        -4.3038
  36   2.0000      -0.143210        -3.8969
  37   2.0000      -0.135655        -3.6914
  38   2.0000      -0.125595        -3.4176
  39   2.0000      -0.115026        -3.1300
  40   0.0000       0.071396         1.9428
  41   0.0000       0.194761         5.2997
  42   0.0000       0.200531         5.4567
  43   0.0000       0.242870         6.6088
  44   0.0000       0.268205         7.2982

MULLIKEN ATOMIC CHARGES
-----------------------
   0 Pt:    0.123153
   1 Cl:   -0.437879
   2 Cl:   -0.294277
   3 Cl:   -0.437471
   4 C :   -0.914602
   5 H :    0.212588
   6 H :    0.299848
   7 H :    0.212023
   8 H :    0.236617
Sum of atomic charges:   -1.0000000

LOEWDIN ATOMIC CHARGES
----------------------
   0 Pt:   -0.873293
   1 Cl:   -0.139878
   2 Cl:    0.051882
   3 Cl:   -0.138733
   4 C :   -0.490996
   5 H :    0.125154
   6 H :    0.160718
   7 H :    0.126867
   8 H :    0.178280

  Mayer bond orders larger than 0.100000
B(  0-Pt,  1-Cl) :   0.8083 B(  0-Pt,  2-Cl) :   1.0363 B(  0-Pt,  3-Cl) :   0.7957
B(  1-Cl,  3-Cl) :   0.1099 B(  4-C ,  5-H ) :   0.9266 B(  4-C ,  6-H ) :   0.8667
B(  4-C ,  7-H ) :   0.9291 B(  4-C ,  8-H ) :   0.9068

Dispersion correction           -0.004678795
FINAL SINGLE POINT ENERGY     -1539.007065607599
Dispersion correction            ... done

DIPOLE MOMENT
-------------
                                X             Y             Z
Electronic contribution:     -2.35256      -2.46349       3.75418
Nuclear contribution   :      3.17816       3.21966      -4.18131
                        -----------------------------------------
Total Dipole Moment    :      0.82559       0.75617      -0.42714
                        -----------------------------------------
Magnitude (a.u.)       :      1.19827
Magnitude (Debye)      :      3.04576

Rotational constants in cm-1:     0.051275     0.043803     0.023745
Rotational constants in MHz :  1537.198791  1313.169290   711.851549

                             ****ORCA TERMINATED NORMALLY****
TOTAL RUN TIME: 0 days 0 hours 0 minutes 37 seconds 525 msec
