                         Program Version 5.0.3 -  RELEASE  -
|  1> ! EnGrad PBEh-3c
|  2> %output
|  3> xyzfile=True
|  4> end
|  5> %scf
|  6> maxiter 250
|  7> end
|  8> %output
|  9> Print[P_Hirshfeld] = 1
| 10> end
| 11> % maxcore
| 12> 4000
| 13> *xyz -1 1
| 14> Pt  -1.07288820  -0.92839227   0.56688300
| 15> Cl  -0.28316422  -0.66140214   2.74649711
| 16> Cl  -2.72086091  -2.35036107   1.17182081
| 17> Cl  -1.71258441  -1.03914832  -1.67123778
| 18> C    1.12833635   0.98204623  -0.54550794
| 19> H    1.45562839   1.94911835  -0.14503424
| 20> H    1.28809570   0.12636019   0.32276993
| 21> H    1.78827504   0.69758256  -1.37305476
| 22> H    0.12817673   1.22434310  -1.07328234
| 23> *
| 24>
| 25>                          ****END OF INPUT****

CARTESIAN COORDINATES (ANGSTROEM)
---------------------------------
  Pt    -1.072888   -0.928392    0.566883
  Cl    -0.283164   -0.661402    2.746497
  Cl    -2.720861   -2.350361    1.171821
  Cl    -1.712584   -1.039148   -1.671238
  C      1.128336    0.982046   -0.545508
  H      1.455628    1.949118   -0.145034
  H      1.288096    0.126360    0.322770
  H      1.788275    0.697583   -1.373055
  H      0.128177    1.224343   -1.073282

 Total Charge           Charge          ....   -1
 Multiplicity           Mult            ....    1
 Number of Electrons    NEL             ....   80
 Basis Dimension        Dim             ....  109

ORBITAL ENERGIES
----------------

  NO   OCC          E(Eh)            E(eV)
   0   2.0000    -102.116232     -2778.7239
   1   2.0000    -102.090720     -2778.0297
   2   2.0000    -102.090014     -2778.0105
   3   2.0000     -10.339429      -281.3502
   4   2.0000      -9.579937      -260.6833
   5   2.0000      -9.554648      -259.9952
   6   2.0000      -9.554016      -259.9780
   7   2.0000      -7.267537      -197.7597
   8   2.0000      -7.259990      -197.5544
   9   2.0000      -7.259677      -197.5458
  10   2.0000      -7.240456      -197.0228
  11   2.0000      -7.239906      -197.0079
  12   2.0000      -7.235773      -196.8954
  13   2.0000      -7.235495      -196.8878
  14   2.0000      -7.235026      -196.8751
  15   2.0000      -7.234865      -196.8707
  16   2.0000      -3.941340      -107.2493
  17   2.0000      -2.158297       -58.7303
  18   2.0000      -2.155168       -58.6451
  19   2.0000      -2.118186       -57.6388
  20   2.0000      -0.706375       -19.2214
  21   2.0000      -0.687042       -18.6954
  22   2.0000      -0.677135       -18.4258
  23   2.0000      -0.662590       -18.0300
  24   2.0000      -0.349659        -9.5147
  25   2.0000      -0.345559        -9.4031
  26   2.0000      -0.322919        -8.7871
  27   2.0000      -0.285170        -7.7599
  28   2.0000      -0.271571        -7.3898
  29   2.0000      -0.269554        -7.3349
  30   2.0000      -0.230306        -6.2669
  31   2.0000      -0.228594        -6.2204
  32   2.0000      -0.202945        -5.5224
  33   2.0000      -0.180996        -4.9252
  34   2.0000      -0.178387        -4.8542
  35   2.0000      -0.158244        -4.3060
  36   2.0000      -0.144302        -3.9267
  37   2.0000      -0.138629        -3.7723
  38   2.0000      -0.128375        -3.4932
  39   2.0000      -0.116635        -3.1738
  40   0.0000       0.066099         1.7986
  41   0.0000       0.189171         5.1476
  42   0.0000       0.197746         5.3809
  43   0.0000       0.246318         6.7027
  44   0.0000       0.264420         7.1952

MULLIKEN ATOMIC CHARGES
-----------------------
   0 Pt:    0.133983
   1 Cl:   -0.438448
   2 Cl:   -0.307258
   3 Cl:   -0.437618
   4 C :   -0.898573
   5 H :    0.214729
   6 H :    0.247745
   7 H :    0.221625
   8 H :    0.263816
Sum of atomic charges:   -1.0000000

LOEWDIN ATOMIC CHARGES
----------------------
   0 Pt:   -0.851952
   1 Cl:   -0.145054
   2 Cl:    0.021102
   3 Cl:   -0.143130
   4 C :   -0.497256
   5 H :    0.121755
   6 H :    0.192427
   7 H :    0.125488
   8 H :    0.176620

  Mayer bond orders larger than 0.100000
B(  0-Pt,  1-Cl) :   0.8036 B(  0-Pt,  2-Cl) :   1.0137 B(  0-Pt,  3-Cl) :   0.7954
B(  1-Cl,  3-Cl) :   0.1101 B(  4-C ,  5-H ) :   0.9207 B(  4-C ,  6-H ) :   0.8772
B(  4-C ,  7-H ) :   0.9205 B(  4-C ,  8-H ) :   0.8967

Dispersion correction           -0.004622218
FINAL SINGLE POINT ENERGY     -1539.028805529115
Dispersion correction            ... done

DIPOLE MOMENT
-------------
                                X             Y             Z
Electronic contribution:     -1.11773      -1.41341       3.86494
Nuclear contribution   :      2.04918       2.22661      -4.30721
                        -----------------------------------------
Total Dipole Moment    :      0.93145       0.81321      -0.44226
                        -----------------------------------------
Magnitude (a.u.)       :      1.31320
Magnitude (Debye)      :      3.33790

Rotational constants in cm-1:     0.049770     0.043152     0.023234
Rotational constants in MHz :  1492.055349  1293.668659   696.525034

                             ****ORCA TERMINATED NORMALLY****
TOTAL RUN TIME: 0 days 0 hours 0 minutes 37 seconds 468 msec
