                         Program Version 5.0.3 -  RELEASE  -
|  1> ! EnGrad PBEh-3c
|  2> %output
|  3> xyzfile=True
|  4> end
|  5> %scf
|  6> maxiter 250
|  7> end
|  8> %output
|  9> Print[P_Hirshfeld] = 1
| 10> end
| 11> % maxcore
| 12> 4000
| 13> *xyz -1 1
| 14> Pt  -1.07436779  -0.94054209   0.56292407
| 15> Cl  -0.27796977  -0.62589389   2.71430800
| 16> Cl  -2.68126161  -2.28985239   1.16363431
| 17> Cl  -1.66094800  -1.05068709  -1.66570050
| 18> C    1.13817660   0.87324003  -0.43890170
| 19> H    1.46182388   1.89474024  -0.10094344
| 20> H    1.19014212   0.24161107   0.10830672
| 21> H    1.74951587   0.71139696  -1.37587967
| 22> H    0.15037593   1.18654542  -0.96838170
| 23> *
| 24>
| 25>                          ****END OF INPUT****

CARTESIAN COORDINATES (ANGSTROEM)
---------------------------------
  Pt    -1.074368   -0.940542    0.562924
  Cl    -0.277970   -0.625894    2.714308
  Cl    -2.681262   -2.289852    1.163634
  Cl    -1.660948   -1.050687   -1.665701
  C      1.138177    0.873240   -0.438902
  H      1.461824    1.894740   -0.100943
  H      1.190142    0.241611    0.108307
  H      1.749516    0.711397   -1.375880
  H      0.150376    1.186545   -0.968382

 Total Charge           Charge          ....   -1
 Multiplicity           Mult            ....    1
 Number of Electrons    NEL             ....   80
 Basis Dimension        Dim             ....  109

ORBITAL ENERGIES
----------------

  NO   OCC          E(Eh)            E(eV)
   0   2.0000    -102.118385     -2778.7825
   1   2.0000    -102.090278     -2778.0177
   2   2.0000    -102.089912     -2778.0077
   3   2.0000     -10.307965      -280.4940
   4   2.0000      -9.583283      -260.7744
   5   2.0000      -9.554430      -259.9893
   6   2.0000      -9.554252      -259.9844
   7   2.0000      -7.270900      -197.8512
   8   2.0000      -7.263200      -197.6417
   9   2.0000      -7.262856      -197.6323
  10   2.0000      -7.240161      -197.0148
  11   2.0000      -7.240088      -197.0128
  12   2.0000      -7.235633      -196.8916
  13   2.0000      -7.235288      -196.8822
  14   2.0000      -7.235226      -196.8805
  15   2.0000      -7.235060      -196.8760
  16   2.0000      -3.939863      -107.2091
  17   2.0000      -2.159373       -58.7595
  18   2.0000      -2.153540       -58.6008
  19   2.0000      -2.116689       -57.5980
  20   2.0000      -0.715209       -19.4618
  21   2.0000      -0.696714       -18.9586
  22   2.0000      -0.688032       -18.7223
  23   2.0000      -0.678021       -18.4499
  24   2.0000      -0.423089       -11.5128
  25   2.0000      -0.326227        -8.8771
  26   2.0000      -0.315786        -8.5930
  27   2.0000      -0.288493        -7.8503
  28   2.0000      -0.283942        -7.7265
  29   2.0000      -0.277006        -7.5377
  30   2.0000      -0.239608        -6.5201
  31   2.0000      -0.230990        -6.2855
  32   2.0000      -0.205333        -5.5874
  33   2.0000      -0.182148        -4.9565
  34   2.0000      -0.180308        -4.9064
  35   2.0000      -0.158449        -4.3116
  36   2.0000      -0.142757        -3.8846
  37   2.0000      -0.134237        -3.6528
  38   2.0000      -0.123957        -3.3731
  39   2.0000      -0.114057        -3.1036
  40   0.0000       0.073989         2.0133
  41   0.0000       0.197526         5.3749
  42   0.0000       0.202404         5.5077
  43   0.0000       0.262770         7.1503
  44   0.0000       0.269632         7.3371

MULLIKEN ATOMIC CHARGES
-----------------------
   0 Pt:    0.114271
   1 Cl:   -0.436636
   2 Cl:   -0.288337
   3 Cl:   -0.437030
   4 C :   -0.949593
   5 H :    0.204904
   6 H :    0.330014
   7 H :    0.205917
   8 H :    0.256490
Sum of atomic charges:   -1.0000000

LOEWDIN ATOMIC CHARGES
----------------------
   0 Pt:   -0.881123
   1 Cl:   -0.136516
   2 Cl:    0.065500
   3 Cl:   -0.133066
   4 C :   -0.485594
   5 H :    0.126485
   6 H :    0.136807
   7 H :    0.128531
   8 H :    0.178976

  Mayer bond orders larger than 0.100000
B(  0-Pt,  1-Cl) :   0.8120 B(  0-Pt,  2-Cl) :   1.0465 B(  0-Pt,  3-Cl) :   0.7977
B(  1-Cl,  3-Cl) :   0.1099 B(  4-C ,  5-H ) :   0.9361 B(  4-C ,  6-H ) :   0.8508
B(  4-C ,  7-H ) :   0.9377 B(  4-C ,  8-H ) :   0.8994

Dispersion correction           -0.004714110
FINAL SINGLE POINT ENERGY     -1538.962707903804
Dispersion correction            ... done

DIPOLE MOMENT
-------------
                                X             Y             Z
Electronic contribution:     -2.75733      -2.94135       3.68182
Nuclear contribution   :      3.52755       3.66654      -4.10716
                        -----------------------------------------
Total Dipole Moment    :      0.77022       0.72518      -0.42535
                        -----------------------------------------
Magnitude (a.u.)       :      1.14020
Magnitude (Debye)      :      2.89815

Rotational constants in cm-1:     0.052302     0.044222     0.024074
Rotational constants in MHz :  1567.973238  1325.746449   721.726721

                             ****ORCA TERMINATED NORMALLY****
TOTAL RUN TIME: 0 days 0 hours 0 minutes 37 seconds 454 msec
