                         Program Version 5.0.3 -  RELEASE  -
|  1> ! EnGrad PBEh-3c
|  2> %output
|  3> xyzfile=True
|  4> end
|  5> %scf
|  6> maxiter 250
|  7> end
|  8> %output
|  9> Print[P_Hirshfeld] = 1
| 10> end
| 11> % maxcore
| 12> 4000
| 13> *xyz -1 1
| 14> Pt  -1.07356676  -0.93396431   0.56506739
| 15> Cl  -0.28078199  -0.64511769   2.73173485
| 16> Cl  -2.70270026  -2.32261116   1.16806640
| 17> Cl  -1.68890341  -1.04444012  -1.66869832
| 18> C    1.13284919   0.93214657  -0.49661721
| 19> H    1.45846970   1.92417998  -0.12481374
| 20> H    1.24317316   0.17921545   0.22441487
| 21> H    1.77049968   0.70391799  -1.37435029
| 22> H    0.13835751   1.20700869  -1.02517381
| 23> *
| 24>
| 25>                          ****END OF INPUT****

CARTESIAN COORDINATES (ANGSTROEM)
---------------------------------
  Pt    -1.073567   -0.933964    0.565067
  Cl    -0.280782   -0.645118    2.731735
  Cl    -2.702700   -2.322611    1.168066
  Cl    -1.688903   -1.044440   -1.668698
  C      1.132849    0.932147   -0.496617
  H      1.458470    1.924180   -0.124814
  H      1.243173    0.179215    0.224415
  H      1.770500    0.703918   -1.374350
  H      0.138358    1.207009   -1.025174

 Total Charge           Charge          ....   -1
 Multiplicity           Mult            ....    1
 Number of Electrons    NEL             ....   80
 Basis Dimension        Dim             ....  109

ORBITAL ENERGIES
----------------

  NO   OCC          E(Eh)            E(eV)
   0   2.0000    -102.117617     -2778.7616
   1   2.0000    -102.090718     -2778.0297
   2   2.0000    -102.090080     -2778.0123
   3   2.0000     -10.322965      -280.9021
   4   2.0000      -9.581831      -260.7349
   5   2.0000      -9.554746      -259.9979
   6   2.0000      -9.554236      -259.9840
   7   2.0000      -7.269447      -197.8117
   8   2.0000      -7.261820      -197.6042
   9   2.0000      -7.261494      -197.5953
  10   2.0000      -7.240518      -197.0245
  11   2.0000      -7.240103      -197.0132
  12   2.0000      -7.235911      -196.8991
  13   2.0000      -7.235570      -196.8899
  14   2.0000      -7.235257      -196.8814
  15   2.0000      -7.235065      -196.8761
  16   2.0000      -3.940859      -107.2362
  17   2.0000      -2.158958       -58.7482
  18   2.0000      -2.154617       -58.6301
  19   2.0000      -2.117686       -57.6252
  20   2.0000      -0.710510       -19.3340
  21   2.0000      -0.688523       -18.7357
  22   2.0000      -0.677732       -18.4420
  23   2.0000      -0.672379       -18.2964
  24   2.0000      -0.379026       -10.3138
  25   2.0000      -0.336790        -9.1645
  26   2.0000      -0.321004        -8.7350
  27   2.0000      -0.286975        -7.8090
  28   2.0000      -0.277826        -7.5600
  29   2.0000      -0.273356        -7.4384
  30   2.0000      -0.234435        -6.3793
  31   2.0000      -0.230135        -6.2623
  32   2.0000      -0.204245        -5.5578
  33   2.0000      -0.181667        -4.9434
  34   2.0000      -0.179557        -4.8860
  35   2.0000      -0.158543        -4.3142
  36   2.0000      -0.143792        -3.9128
  37   2.0000      -0.136984        -3.7275
  38   2.0000      -0.126660        -3.4466
  39   2.0000      -0.115604        -3.1458
  40   0.0000       0.069326         1.8864
  41   0.0000       0.193951         5.2777
  42   0.0000       0.200133         5.4459
  43   0.0000       0.260009         7.0752
  44   0.0000       0.268562         7.3080

MULLIKEN ATOMIC CHARGES
-----------------------
   0 Pt:    0.128406
   1 Cl:   -0.437802
   2 Cl:   -0.298252
   3 Cl:   -0.436961
   4 C :   -0.922626
   5 H :    0.209386
   6 H :    0.281780
   7 H :    0.214961
   8 H :    0.261108
Sum of atomic charges:   -1.0000000

LOEWDIN ATOMIC CHARGES
----------------------
   0 Pt:   -0.863932
   1 Cl:   -0.141194
   2 Cl:    0.041821
   3 Cl:   -0.138180
   4 C :   -0.499037
   5 H :    0.122477
   6 H :    0.175220
   7 H :    0.125869
   8 H :    0.176956

  Mayer bond orders larger than 0.100000
B(  0-Pt,  1-Cl) :   0.8080 B(  0-Pt,  2-Cl) :   1.0290 B(  0-Pt,  3-Cl) :   0.7971
B(  1-Cl,  3-Cl) :   0.1101 B(  4-C ,  5-H ) :   0.9285 B(  4-C ,  6-H ) :   0.8716
B(  4-C ,  7-H ) :   0.9284 B(  4-C ,  8-H ) :   0.8979

Dispersion correction           -0.004661799
FINAL SINGLE POINT ENERGY     -1539.036012617177
Dispersion correction            ... done

DIPOLE MOMENT
-------------
                                X             Y             Z
Electronic contribution:     -1.87618      -2.12944       3.79105
Nuclear contribution   :      2.72718       2.88698      -4.21547
                        -----------------------------------------
Total Dipole Moment    :      0.85099       0.75754      -0.42441
                        -----------------------------------------
Magnitude (a.u.)       :      1.21580
Magnitude (Debye)      :      3.09033

Rotational constants in cm-1:     0.050903     0.043656     0.023617
Rotational constants in MHz :  1526.038778  1308.763422   708.033042

                             ****ORCA TERMINATED NORMALLY****
TOTAL RUN TIME: 0 days 0 hours 0 minutes 38 seconds 5 msec
