                         Program Version 5.0.3 -  RELEASE  -
|  1> ! EnGrad PBEh-3c
|  2> %output
|  3> xyzfile=True
|  4> end
|  5> %scf
|  6> maxiter 250
|  7> end
|  8> %output
|  9> Print[P_Hirshfeld] = 1
| 10> end
| 11> % maxcore
| 12> 4000
| 13> *xyz -1 1
| 14> Pt  -1.07792723  -0.93885227   0.56361790
| 15> Cl  -0.27990687  -0.63513246   2.71544696
| 16> Cl  -2.69189155  -2.30501552   1.16802150
| 17> Cl  -1.67191010  -1.04605793  -1.66375968
| 18> C    1.13840294   0.97148428  -0.53206942
| 19> H    1.46139980   1.89076256  -0.10738030
| 20> H    1.20087116   0.19028412   0.18144327
| 21> H    1.75616268   0.70585618  -1.36142970
| 22> H    0.15966391   1.16742232  -0.96455318
| 23> *
| 24>
| 25>                          ****END OF INPUT****

CARTESIAN COORDINATES (ANGSTROEM)
---------------------------------
  Pt    -1.077927   -0.938852    0.563618
  Cl    -0.279907   -0.635132    2.715447
  Cl    -2.691892   -2.305016    1.168022
  Cl    -1.671910   -1.046058   -1.663760
  C      1.138403    0.971484   -0.532069
  H      1.461400    1.890763   -0.107380
  H      1.200871    0.190284    0.181443
  H      1.756163    0.705856   -1.361430
  H      0.159664    1.167422   -0.964553

 Total Charge           Charge          ....   -1
 Multiplicity           Mult            ....    1
 Number of Electrons    NEL             ....   80
 Basis Dimension        Dim             ....  109

ORBITAL ENERGIES
----------------

  NO   OCC          E(Eh)            E(eV)
   0   2.0000    -102.118610     -2778.7887
   1   2.0000    -102.090921     -2778.0352
   2   2.0000    -102.090749     -2778.0305
   3   2.0000     -10.305430      -280.4250
   4   2.0000      -9.583218      -260.7726
   5   2.0000      -9.555226      -260.0109
   6   2.0000      -9.554921      -260.0026
   7   2.0000      -7.270843      -197.8497
   8   2.0000      -7.263161      -197.6406
   9   2.0000      -7.262826      -197.6315
  10   2.0000      -7.241054      -197.0391
  11   2.0000      -7.240674      -197.0288
  12   2.0000      -7.236276      -196.9091
  13   2.0000      -7.236093      -196.9041
  14   2.0000      -7.236031      -196.9024
  15   2.0000      -7.235723      -196.8940
  16   2.0000      -3.940656      -107.2307
  17   2.0000      -2.159553       -58.7644
  18   2.0000      -2.154481       -58.6264
  19   2.0000      -2.117475       -57.6194
  20   2.0000      -0.713720       -19.4213
  21   2.0000      -0.690552       -18.7909
  22   2.0000      -0.681188       -18.5361
  23   2.0000      -0.678564       -18.4647
  24   2.0000      -0.364914        -9.9298
  25   2.0000      -0.351047        -9.5525
  26   2.0000      -0.338182        -9.2024
  27   2.0000      -0.289120        -7.8674
  28   2.0000      -0.281850        -7.6695
  29   2.0000      -0.278003        -7.5649
  30   2.0000      -0.237887        -6.4732
  31   2.0000      -0.231703        -6.3049
  32   2.0000      -0.205725        -5.5981
  33   2.0000      -0.182695        -4.9714
  34   2.0000      -0.181101        -4.9280
  35   2.0000      -0.159222        -4.3326
  36   2.0000      -0.143550        -3.9062
  37   2.0000      -0.135764        -3.6943
  38   2.0000      -0.125105        -3.4043
  39   2.0000      -0.114779        -3.1233
  40   0.0000       0.071437         1.9439
  41   0.0000       0.196326         5.3423
  42   0.0000       0.201036         5.4705
  43   0.0000       0.267324         7.2743
  44   0.0000       0.269517         7.3339

MULLIKEN ATOMIC CHARGES
-----------------------
   0 Pt:    0.120022
   1 Cl:   -0.435925
   2 Cl:   -0.292756
   3 Cl:   -0.436276
   4 C :   -0.928127
   5 H :    0.216443
   6 H :    0.269746
   7 H :    0.220653
   8 H :    0.266220
Sum of atomic charges:   -1.0000000

LOEWDIN ATOMIC CHARGES
----------------------
   0 Pt:   -0.879385
   1 Cl:   -0.136092
   2 Cl:    0.055558
   3 Cl:   -0.132213
   4 C :   -0.498941
   5 H :    0.124302
   6 H :    0.170711
   7 H :    0.127464
   8 H :    0.168594

  Mayer bond orders larger than 0.100000
B(  0-Pt,  1-Cl) :   0.8116 B(  0-Pt,  2-Cl) :   1.0374 B(  0-Pt,  3-Cl) :   0.7994
B(  1-Cl,  3-Cl) :   0.1100 B(  4-C ,  5-H ) :   0.9286 B(  4-C ,  6-H ) :   0.8769
B(  4-C ,  7-H ) :   0.9294 B(  4-C ,  8-H ) :   0.8979

Dispersion correction           -0.004687674
FINAL SINGLE POINT ENERGY     -1539.043916722561
Dispersion correction            ... done

DIPOLE MOMENT
-------------
                                X             Y             Z
Electronic contribution:     -2.60940      -3.01145       4.05016
Nuclear contribution   :      3.40779       3.70928      -4.44168
                        -----------------------------------------
Total Dipole Moment    :      0.79839       0.69783      -0.39152
                        -----------------------------------------
Magnitude (a.u.)       :      1.13035
Magnitude (Debye)      :      2.87311

Rotational constants in cm-1:     0.051032     0.044081     0.023759
Rotational constants in MHz :  1529.907095  1321.515089   712.289488

                             ****ORCA TERMINATED NORMALLY****
TOTAL RUN TIME: 0 days 0 hours 0 minutes 36 seconds 486 msec
