                         Program Version 5.0.3 -  RELEASE  -
|  1> ! EnGrad PBEh-3c
|  2> %output
|  3> xyzfile=True
|  4> end
|  5> %scf
|  6> maxiter 250
|  7> end
|  8> %output
|  9> Print[P_Hirshfeld] = 1
| 10> end
| 11> % maxcore
| 12> 4000
| 13> *xyz -1 1
| 14> Pt  -1.07020962  -0.93277343   0.55962540
| 15> Cl  -0.27793362  -0.62758769   2.70836190
| 16> Cl  -2.69581432  -2.30273638   1.17169711
| 17> Cl  -1.66204974  -1.04808796  -1.66493320
| 18> C    1.12834853   0.99019079  -0.55884291
| 19> H    1.47091374   1.88979230  -0.08805333
| 20> H    1.18359641   0.17554592   0.18033201
| 21> H    1.75884495   0.70404987  -1.36908025
| 22> H    0.15718278   1.15261517  -0.93987209
| 23> *
| 24>
| 25>                          ****END OF INPUT****

CARTESIAN COORDINATES (ANGSTROEM)
---------------------------------
  Pt    -1.070210   -0.932773    0.559625
  Cl    -0.277934   -0.627588    2.708362
  Cl    -2.695814   -2.302736    1.171697
  Cl    -1.662050   -1.048088   -1.664933
  C      1.128349    0.990191   -0.558843
  H      1.470914    1.889792   -0.088053
  H      1.183596    0.175546    0.180332
  H      1.758845    0.704050   -1.369080
  H      0.157183    1.152615   -0.939872

 Total Charge           Charge          ....   -1
 Multiplicity           Mult            ....    1
 Number of Electrons    NEL             ....   80
 Basis Dimension        Dim             ....  109

ORBITAL ENERGIES
----------------

  NO   OCC          E(Eh)            E(eV)
   0   2.0000    -102.118370     -2778.7821
   1   2.0000    -102.091188     -2778.0424
   2   2.0000    -102.090932     -2778.0355
   3   2.0000     -10.307740      -280.4879
   4   2.0000      -9.582771      -260.7604
   5   2.0000      -9.555529      -260.0192
   6   2.0000      -9.555171      -260.0094
   7   2.0000      -7.270394      -197.8375
   8   2.0000      -7.262734      -197.6290
   9   2.0000      -7.262406      -197.6201
  10   2.0000      -7.241348      -197.0471
  11   2.0000      -7.240932      -197.0358
  12   2.0000      -7.236581      -196.9174
  13   2.0000      -7.236333      -196.9106
  14   2.0000      -7.236324      -196.9104
  15   2.0000      -7.235967      -196.9007
  16   2.0000      -3.940905      -107.2375
  17   2.0000      -2.159362       -58.7592
  18   2.0000      -2.154959       -58.6394
  19   2.0000      -2.117750       -57.6269
  20   2.0000      -0.712480       -19.3876
  21   2.0000      -0.690894       -18.8002
  22   2.0000      -0.680344       -18.5131
  23   2.0000      -0.678767       -18.4702
  24   2.0000      -0.355483        -9.6732
  25   2.0000      -0.353025        -9.6063
  26   2.0000      -0.345719        -9.4075
  27   2.0000      -0.289892        -7.8883
  28   2.0000      -0.279613        -7.6087
  29   2.0000      -0.277554        -7.5526
  30   2.0000      -0.236273        -6.4293
  31   2.0000      -0.232436        -6.3249
  32   2.0000      -0.205885        -5.6024
  33   2.0000      -0.183065        -4.9814
  34   2.0000      -0.181419        -4.9367
  35   2.0000      -0.159528        -4.3410
  36   2.0000      -0.143888        -3.9154
  37   2.0000      -0.136613        -3.7174
  38   2.0000      -0.125407        -3.4125
  39   2.0000      -0.114719        -3.1217
  40   0.0000       0.070078         1.9069
  41   0.0000       0.196276         5.3409
  42   0.0000       0.200553         5.4573
  43   0.0000       0.267130         7.2690
  44   0.0000       0.269090         7.3223

MULLIKEN ATOMIC CHARGES
-----------------------
   0 Pt:    0.116882
   1 Cl:   -0.434307
   2 Cl:   -0.295745
   3 Cl:   -0.435853
   4 C :   -0.920947
   5 H :    0.214506
   6 H :    0.258806
   7 H :    0.222176
   8 H :    0.274483
Sum of atomic charges:   -1.0000000

LOEWDIN ATOMIC CHARGES
----------------------
   0 Pt:   -0.880408
   1 Cl:   -0.133118
   2 Cl:    0.048076
   3 Cl:   -0.130582
   4 C :   -0.495505
   5 H :    0.124658
   6 H :    0.172951
   7 H :    0.128023
   8 H :    0.165904

  Mayer bond orders larger than 0.100000
B(  0-Pt,  1-Cl) :   0.8137 B(  0-Pt,  2-Cl) :   1.0305 B(  0-Pt,  3-Cl) :   0.8003
B(  1-Cl,  3-Cl) :   0.1104 B(  4-C ,  5-H ) :   0.9291 B(  4-C ,  6-H ) :   0.8771
B(  4-C ,  7-H ) :   0.9284 B(  4-C ,  8-H ) :   0.8919

Dispersion correction           -0.004697846
FINAL SINGLE POINT ENERGY     -1539.045214654242
Dispersion correction            ... done

DIPOLE MOMENT
-------------
                                X             Y             Z
Electronic contribution:     -2.20294      -2.84074       3.99938
Nuclear contribution   :      3.01669       3.53956      -4.38453
                        -----------------------------------------
Total Dipole Moment    :      0.81375       0.69882      -0.38516
                        -----------------------------------------
Magnitude (a.u.)       :      1.13969
Magnitude (Debye)      :      2.89685

Rotational constants in cm-1:     0.050854     0.044159     0.023743
Rotational constants in MHz :  1524.575231  1323.860622   711.793252

                             ****ORCA TERMINATED NORMALLY****
TOTAL RUN TIME: 0 days 0 hours 0 minutes 37 seconds 198 msec
