                         Program Version 5.0.3 -  RELEASE  -
|  1> ! EnGrad PBEh-3c
|  2> %output
|  3> xyzfile=True
|  4> end
|  5> %scf
|  6> maxiter 250
|  7> end
|  8> %output
|  9> Print[P_Hirshfeld] = 1
| 10> end
| 11> % maxcore
| 12> 4000
| 13> *xyz -1 1
| 14> Pt  -1.06568652  -0.92922278   0.55762235
| 15> Cl  -0.27641424  -0.62382262   2.70642146
| 16> Cl  -2.69938607  -2.30311660   1.17399855
| 17> Cl  -1.65798746  -1.04907592  -1.66705080
| 18> C    1.13088782   0.98609184  -0.55413614
| 19> H    1.47587627   1.89218520  -0.07951843
| 20> H    1.17803117   0.17387820   0.17705870
| 21> H    1.76328938   0.70289232  -1.37793383
| 22> H    0.14310663   1.15129296  -0.93725984
| 23> *
| 24>
| 25>                          ****END OF INPUT****

CARTESIAN COORDINATES (ANGSTROEM)
---------------------------------
  Pt    -1.065687   -0.929223    0.557622
  Cl    -0.276414   -0.623823    2.706421
  Cl    -2.699386   -2.303117    1.173999
  Cl    -1.657987   -1.049076   -1.667051
  C      1.130888    0.986092   -0.554136
  H      1.475876    1.892185   -0.079518
  H      1.178031    0.173878    0.177059
  H      1.763289    0.702892   -1.377934
  H      0.143107    1.151293   -0.937260

 Total Charge           Charge          ....   -1
 Multiplicity           Mult            ....    1
 Number of Electrons    NEL             ....   80
 Basis Dimension        Dim             ....  109

ORBITAL ENERGIES
----------------

  NO   OCC          E(Eh)            E(eV)
   0   2.0000    -102.118302     -2778.7803
   1   2.0000    -102.091258     -2778.0444
   2   2.0000    -102.091187     -2778.0424
   3   2.0000     -10.310901      -280.5739
   4   2.0000      -9.582550      -260.7544
   5   2.0000      -9.555595      -260.0210
   6   2.0000      -9.555437      -260.0167
   7   2.0000      -7.270175      -197.8315
   8   2.0000      -7.262528      -197.6234
   9   2.0000      -7.262204      -197.6146
  10   2.0000      -7.241416      -197.0489
  11   2.0000      -7.241203      -197.0432
  12   2.0000      -7.236644      -196.9191
  13   2.0000      -7.236584      -196.9175
  14   2.0000      -7.236401      -196.9125
  15   2.0000      -7.236231      -196.9079
  16   2.0000      -3.941163      -107.2445
  17   2.0000      -2.159332       -58.7584
  18   2.0000      -2.155321       -58.6493
  19   2.0000      -2.118026       -57.6344
  20   2.0000      -0.711621       -19.3642
  21   2.0000      -0.690857       -18.7992
  22   2.0000      -0.679522       -18.4907
  23   2.0000      -0.677599       -18.4384
  24   2.0000      -0.353794        -9.6272
  25   2.0000      -0.351039        -9.5522
  26   2.0000      -0.345945        -9.4136
  27   2.0000      -0.290106        -7.8942
  28   2.0000      -0.278464        -7.5774
  29   2.0000      -0.276694        -7.5292
  30   2.0000      -0.235227        -6.4008
  31   2.0000      -0.232645        -6.3306
  32   2.0000      -0.205879        -5.6022
  33   2.0000      -0.183198        -4.9851
  34   2.0000      -0.181515        -4.9393
  35   2.0000      -0.159732        -4.3465
  36   2.0000      -0.144207        -3.9241
  37   2.0000      -0.137311        -3.7364
  38   2.0000      -0.125838        -3.4242
  39   2.0000      -0.114923        -3.1272
  40   0.0000       0.068941         1.8760
  41   0.0000       0.196083         5.3357
  42   0.0000       0.200220         5.4483
  43   0.0000       0.266893         7.2625
  44   0.0000       0.268572         7.3082

MULLIKEN ATOMIC CHARGES
-----------------------
   0 Pt:    0.117030
   1 Cl:   -0.433643
   2 Cl:   -0.297534
   3 Cl:   -0.435720
   4 C :   -0.917138
   5 H :    0.213410
   6 H :    0.261720
   7 H :    0.220166
   8 H :    0.271711
Sum of atomic charges:   -1.0000000

LOEWDIN ATOMIC CHARGES
----------------------
   0 Pt:   -0.877659
   1 Cl:   -0.132119
   2 Cl:    0.043045
   3 Cl:   -0.130696
   4 C :   -0.494844
   5 H :    0.124596
   6 H :    0.172257
   7 H :    0.127950
   8 H :    0.167468

  Mayer bond orders larger than 0.100000
B(  0-Pt,  1-Cl) :   0.8147 B(  0-Pt,  2-Cl) :   1.0268 B(  0-Pt,  3-Cl) :   0.8003
B(  1-Cl,  3-Cl) :   0.1106 B(  4-C ,  5-H ) :   0.9289 B(  4-C ,  6-H ) :   0.8740
B(  4-C ,  7-H ) :   0.9289 B(  4-C ,  8-H ) :   0.8922

Dispersion correction           -0.004700464
FINAL SINGLE POINT ENERGY     -1539.046260666873
Dispersion correction            ... done

DIPOLE MOMENT
-------------
                                X             Y             Z
Electronic contribution:     -1.96669      -2.64109       3.88594
Nuclear contribution   :      2.78664       3.34586      -4.27067
                        -----------------------------------------
Total Dipole Moment    :      0.81995       0.70477      -0.38473
                        -----------------------------------------
Magnitude (a.u.)       :      1.14762
Magnitude (Debye)      :      2.91702

Rotational constants in cm-1:     0.050754     0.044167     0.023724
Rotational constants in MHz :  1521.562241  1324.106540   711.237128

                             ****ORCA TERMINATED NORMALLY****
TOTAL RUN TIME: 0 days 0 hours 0 minutes 37 seconds 667 msec
