                         Program Version 5.0.3 -  RELEASE  -
|  1> ! EnGrad PBEh-3c
|  2> %output
|  3> xyzfile=True
|  4> end
|  5> %scf
|  6> maxiter 250
|  7> end
|  8> %output
|  9> Print[P_Hirshfeld] = 1
| 10> end
| 11> % maxcore
| 12> 4000
| 13> *xyz -1 1
| 14> Pt  -1.06125677  -0.92494072   0.55461294
| 15> Cl  -0.27266705  -0.61672620   2.70290084
| 16> Cl  -2.70715857  -2.30467465   1.17946269
| 17> Cl  -1.65109052  -1.05011747  -1.67261921
| 18> C    1.13208179   0.98258026  -0.55233223
| 19> H    1.48646197   1.89535143  -0.06445107
| 20> H    1.16938378   0.16979338   0.17520809
| 21> H    1.77190636   0.70251628  -1.39272523
| 22> H    0.12075656   1.14757909  -0.93100111
| 23> *
| 24>
| 25>                          ****END OF INPUT****

CARTESIAN COORDINATES (ANGSTROEM)
---------------------------------
  Pt    -1.061257   -0.924941    0.554613
  Cl    -0.272667   -0.616726    2.702901
  Cl    -2.707159   -2.304675    1.179463
  Cl    -1.651091   -1.050117   -1.672619
  C      1.132082    0.982580   -0.552332
  H      1.486462    1.895351   -0.064451
  H      1.169384    0.169793    0.175208
  H      1.771906    0.702516   -1.392725
  H      0.120757    1.147579   -0.931001

 Total Charge           Charge          ....   -1
 Multiplicity           Mult            ....    1
 Number of Electrons    NEL             ....   80
 Basis Dimension        Dim             ....  109

ORBITAL ENERGIES
----------------

  NO   OCC          E(Eh)            E(eV)
   0   2.0000    -102.118264     -2778.7792
   1   2.0000    -102.091725     -2778.0571
   2   2.0000    -102.091501     -2778.0510
   3   2.0000     -10.316368      -280.7226
   4   2.0000      -9.582283      -260.7472
   5   2.0000      -9.555974      -260.0313
   6   2.0000      -9.555811      -260.0268
   7   2.0000      -7.269907      -197.8242
   8   2.0000      -7.262282      -197.6167
   9   2.0000      -7.261968      -197.6082
  10   2.0000      -7.241748      -197.0580
  11   2.0000      -7.241635      -197.0549
  12   2.0000      -7.237112      -196.9318
  13   2.0000      -7.236861      -196.9250
  14   2.0000      -7.236763      -196.9223
  15   2.0000      -7.236625      -196.9186
  16   2.0000      -3.941692      -107.2589
  17   2.0000      -2.159421       -58.7608
  18   2.0000      -2.155978       -58.6672
  19   2.0000      -2.118573       -57.6493
  20   2.0000      -0.710354       -19.3297
  21   2.0000      -0.690878       -18.7997
  22   2.0000      -0.679677       -18.4949
  23   2.0000      -0.674010       -18.3407
  24   2.0000      -0.351597        -9.5674
  25   2.0000      -0.347983        -9.4691
  26   2.0000      -0.345072        -9.3899
  27   2.0000      -0.290312        -7.8998
  28   2.0000      -0.276684        -7.5289
  29   2.0000      -0.275342        -7.4924
  30   2.0000      -0.233912        -6.3651
  31   2.0000      -0.232705        -6.3322
  32   2.0000      -0.205978        -5.6049
  33   2.0000      -0.183487        -4.9929
  34   2.0000      -0.181728        -4.9451
  35   2.0000      -0.160243        -4.3604
  36   2.0000      -0.144805        -3.9403
  37   2.0000      -0.138445        -3.7673
  38   2.0000      -0.126545        -3.4435
  39   2.0000      -0.115474        -3.1422
  40   0.0000       0.066936         1.8214
  41   0.0000       0.195400         5.3171
  42   0.0000       0.199569         5.4305
  43   0.0000       0.265993         7.2380
  44   0.0000       0.267766         7.2863

MULLIKEN ATOMIC CHARGES
-----------------------
   0 Pt:    0.117703
   1 Cl:   -0.432765
   2 Cl:   -0.300400
   3 Cl:   -0.435753
   4 C :   -0.909608
   5 H :    0.211014
   6 H :    0.263899
   7 H :    0.217183
   8 H :    0.268727
Sum of atomic charges:   -1.0000000

LOEWDIN ATOMIC CHARGES
----------------------
   0 Pt:   -0.872444
   1 Cl:   -0.131001
   2 Cl:    0.035131
   3 Cl:   -0.131488
   4 C :   -0.493400
   5 H :    0.124366
   6 H :    0.171676
   7 H :    0.127813
   8 H :    0.169347

  Mayer bond orders larger than 0.100000
B(  0-Pt,  1-Cl) :   0.8157 B(  0-Pt,  2-Cl) :   1.0211 B(  0-Pt,  3-Cl) :   0.7999
B(  1-Cl,  3-Cl) :   0.1109 B(  4-C ,  5-H ) :   0.9287 B(  4-C ,  6-H ) :   0.8698
B(  4-C ,  7-H ) :   0.9294 B(  4-C ,  8-H ) :   0.8917

Dispersion correction           -0.004702134
FINAL SINGLE POINT ENERGY     -1539.046528954197
Dispersion correction            ... done

DIPOLE MOMENT
-------------
                                X             Y             Z
Electronic contribution:     -1.73692      -2.43043       3.75514
Nuclear contribution   :      2.56544       3.14113      -4.13610
                        -----------------------------------------
Total Dipole Moment    :      0.82852       0.71070      -0.38096
                        -----------------------------------------
Magnitude (a.u.)       :      1.15615
Magnitude (Debye)      :      2.93869

Rotational constants in cm-1:     0.050533     0.044128     0.023666
Rotational constants in MHz :  1514.937546  1322.918298   709.488413

                             ****ORCA TERMINATED NORMALLY****
TOTAL RUN TIME: 0 days 0 hours 0 minutes 38 seconds 290 msec
