                         Program Version 5.0.3 -  RELEASE  -
|  1> ! EnGrad PBEh-3c
|  2> %output
|  3> xyzfile=True
|  4> end
|  5> %scf
|  6> maxiter 250
|  7> end
|  8> %output
|  9> Print[P_Hirshfeld] = 1
| 10> end
| 11> % maxcore
| 12> 4000
| 13> *xyz -1 1
| 14> Pt  -1.20311121  -0.98909831   0.61768373
| 15> Cl  -0.30039828  -0.82455268   2.75422620
| 16> Cl  -2.77150082  -2.51708730   1.18255418
| 17> Cl  -1.90600197  -0.92030368  -1.59716131
| 18> C    1.20566033   1.06273913  -0.62402097
| 19> H    1.44184981   2.09158450  -0.36094709
| 20> H    1.28518626   0.41845146   0.44840090
| 21> H    1.98447543   0.63985349  -1.25307683
| 22> H    0.26384045   1.03840526  -1.16765504
| 23> *
| 24>
| 25>                          ****END OF INPUT****

CARTESIAN COORDINATES (ANGSTROEM)
---------------------------------
  Pt    -1.203111   -0.989098    0.617684
  Cl    -0.300398   -0.824553    2.754226
  Cl    -2.771501   -2.517087    1.182554
  Cl    -1.906002   -0.920304   -1.597161
  C      1.205660    1.062739   -0.624021
  H      1.441850    2.091585   -0.360947
  H      1.285186    0.418451    0.448401
  H      1.984475    0.639853   -1.253077
  H      0.263840    1.038405   -1.167655

 Total Charge           Charge          ....   -1
 Multiplicity           Mult            ....    1
 Number of Electrons    NEL             ....   80
 Basis Dimension        Dim             ....  109

ORBITAL ENERGIES
----------------

  NO   OCC          E(Eh)            E(eV)
   0   2.0000    -102.120345     -2778.8359
   1   2.0000    -102.094592     -2778.1351
   2   2.0000    -102.094140     -2778.1228
   3   2.0000     -10.328570      -281.0547
   4   2.0000      -9.583924      -260.7918
   5   2.0000      -9.558553      -260.1014
   6   2.0000      -9.558163      -260.0908
   7   2.0000      -7.271571      -197.8695
   8   2.0000      -7.263945      -197.6620
   9   2.0000      -7.263673      -197.6546
  10   2.0000      -7.244306      -197.1276
  11   2.0000      -7.244010      -197.1195
  12   2.0000      -7.239771      -197.0042
  13   2.0000      -7.239344      -196.9926
  14   2.0000      -7.239256      -196.9902
  15   2.0000      -7.238957      -196.9820
  16   2.0000      -3.942418      -107.2786
  17   2.0000      -2.159508       -58.7632
  18   2.0000      -2.156783       -58.6890
  19   2.0000      -2.119205       -57.6665
  20   2.0000      -0.709476       -19.3058
  21   2.0000      -0.691130       -18.8066
  22   2.0000      -0.680957       -18.5298
  23   2.0000      -0.663383       -18.0516
  24   2.0000      -0.349189        -9.5019
  25   2.0000      -0.348955        -9.4955
  26   2.0000      -0.315577        -8.5873
  27   2.0000      -0.289067        -7.8659
  28   2.0000      -0.274842        -7.4788
  29   2.0000      -0.273606        -7.4452
  30   2.0000      -0.232871        -6.3368
  31   2.0000      -0.231343        -6.2952
  32   2.0000      -0.207182        -5.6377
  33   2.0000      -0.184854        -5.0301
  34   2.0000      -0.183783        -5.0010
  35   2.0000      -0.162914        -4.4331
  36   2.0000      -0.145578        -3.9614
  37   2.0000      -0.140804        -3.8315
  38   2.0000      -0.129237        -3.5167
  39   2.0000      -0.118469        -3.2237
  40   0.0000       0.058079         1.5804
  41   0.0000       0.187522         5.1027
  42   0.0000       0.198204         5.3934
  43   0.0000       0.249339         6.7848
  44   0.0000       0.264226         7.1899

MULLIKEN ATOMIC CHARGES
-----------------------
   0 Pt:    0.153207
   1 Cl:   -0.435201
   2 Cl:   -0.307284
   3 Cl:   -0.433873
   4 C :   -0.895611
   5 H :    0.207427
   6 H :    0.226996
   7 H :    0.214857
   8 H :    0.269482
Sum of atomic charges:   -1.0000000

LOEWDIN ATOMIC CHARGES
----------------------
   0 Pt:   -0.819420
   1 Cl:   -0.136729
   2 Cl:    0.023531
   3 Cl:   -0.136876
   4 C :   -0.507392
   5 H :    0.118824
   6 H :    0.171476
   7 H :    0.123301
   8 H :    0.163286

  Mayer bond orders larger than 0.100000
B(  0-Pt,  1-Cl) :   0.8103 B(  0-Pt,  2-Cl) :   1.0188 B(  0-Pt,  3-Cl) :   0.8019
B(  1-Cl,  3-Cl) :   0.1092 B(  4-C ,  5-H ) :   0.9278 B(  4-C ,  6-H ) :   0.9032
B(  4-C ,  7-H ) :   0.9280 B(  4-C ,  8-H ) :   0.8924

Dispersion correction           -0.004441055
FINAL SINGLE POINT ENERGY     -1539.033547762535
Dispersion correction            ... done

DIPOLE MOMENT
-------------
                                X             Y             Z
Electronic contribution:     -5.62162      -2.48091       5.99606
Nuclear contribution   :      6.41345       3.19843      -6.34752
                        -----------------------------------------
Total Dipole Moment    :      0.79183       0.71753      -0.35146
                        -----------------------------------------
Magnitude (a.u.)       :      1.12489
Magnitude (Debye)      :      2.85923

Rotational constants in cm-1:     0.046351     0.042895     0.022418
Rotational constants in MHz :  1389.558577  1285.963177   672.088072

                             ****ORCA TERMINATED NORMALLY****
TOTAL RUN TIME: 0 days 0 hours 0 minutes 38 seconds 889 msec
