                         Program Version 5.0.3 -  RELEASE  -
|  1> ! EnGrad PBEh-3c
|  2> %output
|  3> xyzfile=True
|  4> end
|  5> %scf
|  6> maxiter 250
|  7> end
|  8> %output
|  9> Print[P_Hirshfeld] = 1
| 10> end
| 11> % maxcore
| 12> 4000
| 13> *xyz -1 1
| 14> Pt  -1.20740105  -1.00104272   0.61628192
| 15> Cl  -0.30309207  -0.80834748   2.73860366
| 16> Cl  -2.74818052  -2.48008770   1.18118734
| 17> Cl  -1.87749852  -0.93342632  -1.59573568
| 18> C    1.23901067   0.96809436  -0.45016191
| 19> H    1.44782025   2.07669847  -0.33807085
| 20> H    1.24371139   0.48405112   0.25577106
| 21> H    1.96444247   0.65166237  -1.27325272
| 22> H    0.24038433   1.04081873  -1.13461221
| 23> *
| 24>
| 25>                          ****END OF INPUT****

CARTESIAN COORDINATES (ANGSTROEM)
---------------------------------
  Pt    -1.207401   -1.001043    0.616282
  Cl    -0.303092   -0.808347    2.738604
  Cl    -2.748181   -2.480088    1.181187
  Cl    -1.877499   -0.933426   -1.595736
  C      1.239011    0.968094   -0.450162
  H      1.447820    2.076698   -0.338071
  H      1.243711    0.484051    0.255771
  H      1.964442    0.651662   -1.273253
  H      0.240384    1.040819   -1.134612

 Total Charge           Charge          ....   -1
 Multiplicity           Mult            ....    1
 Number of Electrons    NEL             ....   80
 Basis Dimension        Dim             ....  109

ORBITAL ENERGIES
----------------

  NO   OCC          E(Eh)            E(eV)
   0   2.0000    -102.121535     -2778.8682
   1   2.0000    -102.094324     -2778.1278
   2   2.0000    -102.093149     -2778.0958
   3   2.0000     -10.313444      -280.6431
   4   2.0000      -9.585877      -260.8450
   5   2.0000      -9.558395      -260.0971
   6   2.0000      -9.557386      -260.0697
   7   2.0000      -7.273531      -197.9228
   8   2.0000      -7.265823      -197.7131
   9   2.0000      -7.265518      -197.7048
  10   2.0000      -7.244096      -197.1219
  11   2.0000      -7.243212      -197.0978
  12   2.0000      -7.239688      -197.0019
  13   2.0000      -7.239148      -196.9872
  14   2.0000      -7.238473      -196.9689
  15   2.0000      -7.238156      -196.9602
  16   2.0000      -3.941418      -107.2514
  17   2.0000      -2.160167       -58.7811
  18   2.0000      -2.155495       -58.6540
  19   2.0000      -2.118181       -57.6386
  20   2.0000      -0.714879       -19.4528
  21   2.0000      -0.692574       -18.8459
  22   2.0000      -0.684553       -18.6276
  23   2.0000      -0.680993       -18.5308
  24   2.0000      -0.411333       -11.1929
  25   2.0000      -0.323436        -8.8011
  26   2.0000      -0.306386        -8.3372
  27   2.0000      -0.290520        -7.9054
  28   2.0000      -0.283612        -7.7175
  29   2.0000      -0.276655        -7.5282
  30   2.0000      -0.238399        -6.4872
  31   2.0000      -0.232871        -6.3367
  32   2.0000      -0.208312        -5.6685
  33   2.0000      -0.185042        -5.0353
  34   2.0000      -0.184247        -5.0136
  35   2.0000      -0.162615        -4.4250
  36   2.0000      -0.144438        -3.9303
  37   2.0000      -0.137750        -3.7484
  38   2.0000      -0.126186        -3.4337
  39   2.0000      -0.116681        -3.1750
  40   0.0000       0.063601         1.7307
  41   0.0000       0.191747         5.2177
  42   0.0000       0.200480         5.4553
  43   0.0000       0.258116         7.0237
  44   0.0000       0.265274         7.2185

MULLIKEN ATOMIC CHARGES
-----------------------
   0 Pt:    0.143619
   1 Cl:   -0.434757
   2 Cl:   -0.295420
   3 Cl:   -0.433733
   4 C :   -0.924728
   5 H :    0.194045
   6 H :    0.317063
   7 H :    0.196405
   8 H :    0.237505
Sum of atomic charges:   -1.0000000

LOEWDIN ATOMIC CHARGES
----------------------
   0 Pt:   -0.840857
   1 Cl:   -0.132294
   2 Cl:    0.052595
   3 Cl:   -0.132278
   4 C :   -0.493857
   5 H :    0.120861
   6 H :    0.132226
   7 H :    0.124083
   8 H :    0.169521

  Mayer bond orders larger than 0.100000
B(  0-Pt,  1-Cl) :   0.8172 B(  0-Pt,  2-Cl) :   1.0385 B(  0-Pt,  3-Cl) :   0.8020
B(  1-Cl,  3-Cl) :   0.1092 B(  4-C ,  5-H ) :   0.9413 B(  4-C ,  6-H ) :   0.8671
B(  4-C ,  7-H ) :   0.9428 B(  4-C ,  8-H ) :   0.9082

Dispersion correction           -0.004486424
FINAL SINGLE POINT ENERGY     -1538.973427826401
Dispersion correction            ... done

DIPOLE MOMENT
-------------
                                X             Y             Z
Electronic contribution:     -6.80307      -3.39290       5.37766
Nuclear contribution   :      7.49830       4.06066      -5.73989
                        -----------------------------------------
Total Dipole Moment    :      0.69523       0.66775      -0.36223
                        -----------------------------------------
Magnitude (a.u.)       :      1.02978
Magnitude (Debye)      :      2.61750

Rotational constants in cm-1:     0.047421     0.044030     0.022976
Rotational constants in MHz :  1421.642121  1319.997846   688.810412

                             ****ORCA TERMINATED NORMALLY****
TOTAL RUN TIME: 0 days 0 hours 0 minutes 37 seconds 290 msec
