                         Program Version 5.0.3 -  RELEASE  -
|  1> ! EnGrad PBEh-3c
|  2> %output
|  3> xyzfile=True
|  4> end
|  5> %scf
|  6> maxiter 250
|  7> end
|  8> %output
|  9> Print[P_Hirshfeld] = 1
| 10> end
| 11> % maxcore
| 12> 4000
| 13> *xyz -1 1
| 14> Pt  -1.20483534  -0.99389891   0.61712033
| 15> Cl  -0.30148094  -0.81803962   2.74794732
| 16> Cl  -2.76212812  -2.50221673   1.18200483
| 17> Cl  -1.89454610  -0.92557782  -1.59658833
| 18> C    1.21906422   1.02470029  -0.55414498
| 19> H    1.44424940   2.08560163  -0.35175286
| 20> H    1.26851703   0.44481673   0.37098072
| 21> H    1.97642395   0.64459962  -1.26118576
| 22> H    0.25441316   1.03937526  -1.15437475
| 23> *
| 24>
| 25>                          ****END OF INPUT****

CARTESIAN COORDINATES (ANGSTROEM)
---------------------------------
  Pt    -1.204835   -0.993899    0.617120
  Cl    -0.301481   -0.818040    2.747947
  Cl    -2.762128   -2.502217    1.182005
  Cl    -1.894546   -0.925578   -1.596588
  C      1.219064    1.024700   -0.554145
  H      1.444249    2.085602   -0.351753
  H      1.268517    0.444817    0.370981
  H      1.976424    0.644600   -1.261186
  H      0.254413    1.039375   -1.154375

 Total Charge           Charge          ....   -1
 Multiplicity           Mult            ....    1
 Number of Electrons    NEL             ....   80
 Basis Dimension        Dim             ....  109

ORBITAL ENERGIES
----------------

  NO   OCC          E(Eh)            E(eV)
   0   2.0000    -102.121231     -2778.8600
   1   2.0000    -102.094816     -2778.1412
   2   2.0000    -102.093931     -2778.1171
   3   2.0000     -10.319870      -280.8180
   4   2.0000      -9.585097      -260.8237
   5   2.0000      -9.558819      -260.1087
   6   2.0000      -9.558038      -260.0874
   7   2.0000      -7.272756      -197.9018
   8   2.0000      -7.265083      -197.6930
   9   2.0000      -7.264800      -197.6853
  10   2.0000      -7.244551      -197.1342
  11   2.0000      -7.243879      -197.1160
  12   2.0000      -7.240067      -197.0122
  13   2.0000      -7.239597      -196.9994
  14   2.0000      -7.239127      -196.9867
  15   2.0000      -7.238821      -196.9783
  16   2.0000      -3.942303      -107.2755
  17   2.0000      -2.160062       -58.7783
  18   2.0000      -2.156550       -58.6827
  19   2.0000      -2.119077       -57.6630
  20   2.0000      -0.711903       -19.3719
  21   2.0000      -0.691828       -18.8256
  22   2.0000      -0.681226       -18.5371
  23   2.0000      -0.666355       -18.1324
  24   2.0000      -0.355769        -9.6810
  25   2.0000      -0.338685        -9.2161
  26   2.0000      -0.325678        -8.8621
  27   2.0000      -0.290218        -7.8972
  28   2.0000      -0.279292        -7.5999
  29   2.0000      -0.275555        -7.4982
  30   2.0000      -0.234953        -6.3934
  31   2.0000      -0.232628        -6.3301
  32   2.0000      -0.207918        -5.6577
  33   2.0000      -0.185160        -5.0384
  34   2.0000      -0.184443        -5.0190
  35   2.0000      -0.163076        -4.4375
  36   2.0000      -0.145414        -3.9569
  37   2.0000      -0.139946        -3.8081
  38   2.0000      -0.128335        -3.4922
  39   2.0000      -0.118001        -3.2110
  40   0.0000       0.059843         1.6284
  41   0.0000       0.189487         5.1562
  42   0.0000       0.199162         5.4195
  43   0.0000       0.262374         7.1396
  44   0.0000       0.265637         7.2284

MULLIKEN ATOMIC CHARGES
-----------------------
   0 Pt:    0.152264
   1 Cl:   -0.435136
   2 Cl:   -0.302053
   3 Cl:   -0.433268
   4 C :   -0.911750
   5 H :    0.200626
   6 H :    0.264877
   7 H :    0.207214
   8 H :    0.257225
Sum of atomic charges:   -1.0000000

LOEWDIN ATOMIC CHARGES
----------------------
   0 Pt:   -0.826167
   1 Cl:   -0.134942
   2 Cl:    0.035719
   3 Cl:   -0.134547
   4 C :   -0.512130
   5 H :    0.117750
   6 H :    0.166345
   7 H :    0.122130
   8 H :    0.165842

  Mayer bond orders larger than 0.100000
B(  0-Pt,  1-Cl) :   0.8136 B(  0-Pt,  2-Cl) :   1.0272 B(  0-Pt,  3-Cl) :   0.8029
B(  1-Cl,  3-Cl) :   0.1093 B(  4-C ,  5-H ) :   0.9339 B(  4-C ,  6-H ) :   0.8910
B(  4-C ,  7-H ) :   0.9340 B(  4-C ,  8-H ) :   0.8993

Dispersion correction           -0.004453334
FINAL SINGLE POINT ENERGY     -1539.044044838394
Dispersion correction            ... done

DIPOLE MOMENT
-------------
                                X             Y             Z
Electronic contribution:     -6.10682      -2.86434       5.76393
Nuclear contribution   :      6.84946       3.54497      -6.10331
                        -----------------------------------------
Total Dipole Moment    :      0.74264       0.68063      -0.33938
                        -----------------------------------------
Magnitude (a.u.)       :      1.06299
Magnitude (Debye)      :      2.70192

Rotational constants in cm-1:     0.046722     0.043408     0.022644
Rotational constants in MHz :  1400.681018  1301.352965   678.851263

                             ****ORCA TERMINATED NORMALLY****
TOTAL RUN TIME: 0 days 0 hours 0 minutes 38 seconds 313 msec
