                         Program Version 5.0.3 -  RELEASE  -
|  1> ! EnGrad PBEh-3c
|  2> %output
|  3> xyzfile=True
|  4> end
|  5> %scf
|  6> maxiter 250
|  7> end
|  8> %output
|  9> Print[P_Hirshfeld] = 1
| 10> end
| 11> % maxcore
| 12> 4000
| 13> *xyz -1 1
| 14> Pt  -1.21277101  -1.00446314   0.61550868
| 15> Cl  -0.30442362  -0.80826344   2.72981600
| 16> Cl  -2.74472193  -2.47609706   1.18389806
| 17> Cl  -1.87398554  -0.93353597  -1.59165767
| 18> C    1.22168819   1.00834356  -0.52953562
| 19> H    1.44927845   2.05426043  -0.33083814
| 20> H    1.22818176   0.47902145   0.25885254
| 21> H    1.95442266   0.65593674  -1.25400365
| 22> H    0.28108146   1.02251851  -1.08190084
| 23> *
| 24>
| 25>                          ****END OF INPUT****

CARTESIAN COORDINATES (ANGSTROEM)
---------------------------------
  Pt    -1.212771   -1.004463    0.615509
  Cl    -0.304424   -0.808263    2.729816
  Cl    -2.744722   -2.476097    1.183898
  Cl    -1.873986   -0.933536   -1.591658
  C      1.221688    1.008344   -0.529536
  H      1.449278    2.054260   -0.330838
  H      1.228182    0.479021    0.258853
  H      1.954423    0.655937   -1.254004
  H      0.281081    1.022519   -1.081901

 Total Charge           Charge          ....   -1
 Multiplicity           Mult            ....    1
 Number of Electrons    NEL             ....   80
 Basis Dimension        Dim             ....  109

ORBITAL ENERGIES
----------------

  NO   OCC          E(Eh)            E(eV)
   0   2.0000    -102.122160     -2778.8852
   1   2.0000    -102.094435     -2778.1308
   2   2.0000    -102.094037     -2778.1200
   3   2.0000     -10.295709      -280.1605
   4   2.0000      -9.586662      -260.8663
   5   2.0000      -9.558591      -260.1025
   6   2.0000      -9.558346      -260.0958
   7   2.0000      -7.274326      -197.9445
   8   2.0000      -7.266584      -197.7338
   9   2.0000      -7.266279      -197.7255
  10   2.0000      -7.244288      -197.1271
  11   2.0000      -7.244145      -197.1232
  12   2.0000      -7.239871      -197.0069
  13   2.0000      -7.239459      -196.9957
  14   2.0000      -7.239338      -196.9924
  15   2.0000      -7.239101      -196.9859
  16   2.0000      -3.941512      -107.2540
  17   2.0000      -2.160597       -58.7928
  18   2.0000      -2.155676       -58.6589
  19   2.0000      -2.118283       -57.6414
  20   2.0000      -0.716431       -19.4951
  21   2.0000      -0.693587       -18.8735
  22   2.0000      -0.684703       -18.6317
  23   2.0000      -0.681735       -18.5509
  24   2.0000      -0.380061       -10.3420
  25   2.0000      -0.337508        -9.1840
  26   2.0000      -0.332467        -9.0469
  27   2.0000      -0.292125        -7.9491
  28   2.0000      -0.285880        -7.7792
  29   2.0000      -0.280593        -7.6353
  30   2.0000      -0.240058        -6.5323
  31   2.0000      -0.233980        -6.3669
  32   2.0000      -0.209290        -5.6951
  33   2.0000      -0.185873        -5.0579
  34   2.0000      -0.185641        -5.0516
  35   2.0000      -0.163235        -4.4419
  36   2.0000      -0.144557        -3.9336
  37   2.0000      -0.137421        -3.7394
  38   2.0000      -0.125560        -3.4167
  39   2.0000      -0.116428        -3.1682
  40   0.0000       0.064166         1.7461
  41   0.0000       0.192971         5.2510
  42   0.0000       0.200905         5.4669
  43   0.0000       0.265453         7.2233
  44   0.0000       0.269014         7.3202

MULLIKEN ATOMIC CHARGES
-----------------------
   0 Pt:    0.142938
   1 Cl:   -0.433782
   2 Cl:   -0.292860
   3 Cl:   -0.432748
   4 C :   -0.936166
   5 H :    0.198235
   6 H :    0.291614
   7 H :    0.204188
   8 H :    0.258581
Sum of atomic charges:   -1.0000000

LOEWDIN ATOMIC CHARGES
----------------------
   0 Pt:   -0.848137
   1 Cl:   -0.129498
   2 Cl:    0.058281
   3 Cl:   -0.127904
   4 C :   -0.508618
   5 H :    0.120037
   6 H :    0.149130
   7 H :    0.124217
   8 H :    0.162491

  Mayer bond orders larger than 0.100000
B(  0-Pt,  1-Cl) :   0.8183 B(  0-Pt,  2-Cl) :   1.0420 B(  0-Pt,  3-Cl) :   0.8058
B(  1-Cl,  3-Cl) :   0.1093 B(  4-C ,  5-H ) :   0.9423 B(  4-C ,  6-H ) :   0.8806
B(  4-C ,  7-H ) :   0.9423 B(  4-C ,  8-H ) :   0.9027

Dispersion correction           -0.004487949
FINAL SINGLE POINT ENERGY     -1539.029989202773
Dispersion correction            ... done

DIPOLE MOMENT
-------------
                                X             Y             Z
Electronic contribution:     -7.14910      -3.86628       5.73944
Nuclear contribution   :      7.82035       4.48966      -6.06136
                        -----------------------------------------
Total Dipole Moment    :      0.67124       0.62337      -0.32192
                        -----------------------------------------
Magnitude (a.u.)       :      0.97097
Magnitude (Debye)      :      2.46802

Rotational constants in cm-1:     0.047474     0.044054     0.022985
Rotational constants in MHz :  1423.242828  1320.714100   689.058532

                             ****ORCA TERMINATED NORMALLY****
TOTAL RUN TIME: 0 days 0 hours 0 minutes 37 seconds 412 msec
