                         Program Version 5.0.3 -  RELEASE  -
|  1> ! EnGrad PBEh-3c
|  2> %output
|  3> xyzfile=True
|  4> end
|  5> %scf
|  6> maxiter 250
|  7> end
|  8> %output
|  9> Print[P_Hirshfeld] = 1
| 10> end
| 11> % maxcore
| 12> 4000
| 13> *xyz -1 1
| 14> Pt  -1.20847472  -0.99874377   0.61638121
| 15> Cl  -0.30283049  -0.81355616   2.73963211
| 16> Cl  -2.75414546  -2.49023798   1.18287308
| 17> Cl  -1.88511681  -0.92922751  -1.59432708
| 18> C    1.22026760   1.01719893  -0.54285887
| 19> H    1.44655577   2.07122823  -0.34216115
| 20> H    1.25001885   0.46050337   0.31955757
| 21> H    1.96633393   0.64979894  -1.25789197
| 22> H    0.26664352   1.03164458  -1.12113746
| 23> *
| 24>
| 25>                          ****END OF INPUT****

CARTESIAN COORDINATES (ANGSTROEM)
---------------------------------
  Pt    -1.208475   -0.998744    0.616381
  Cl    -0.302830   -0.813556    2.739632
  Cl    -2.754145   -2.490238    1.182873
  Cl    -1.885117   -0.929228   -1.594327
  C      1.220268    1.017199   -0.542859
  H      1.446556    2.071228   -0.342161
  H      1.250019    0.460503    0.319558
  H      1.966334    0.649799   -1.257892
  H      0.266644    1.031645   -1.121137

 Total Charge           Charge          ....   -1
 Multiplicity           Mult            ....    1
 Number of Electrons    NEL             ....   80
 Basis Dimension        Dim             ....  109

ORBITAL ENERGIES
----------------

  NO   OCC          E(Eh)            E(eV)
   0   2.0000    -102.121712     -2778.8731
   1   2.0000    -102.094657     -2778.1369
   2   2.0000    -102.093981     -2778.1185
   3   2.0000     -10.308678      -280.5134
   4   2.0000      -9.585859      -260.8445
   5   2.0000      -9.558729      -260.1062
   6   2.0000      -9.558181      -260.0913
   7   2.0000      -7.273522      -197.9226
   8   2.0000      -7.265816      -197.7129
   9   2.0000      -7.265523      -197.7049
  10   2.0000      -7.244444      -197.1314
  11   2.0000      -7.244003      -197.1193
  12   2.0000      -7.239992      -197.0102
  13   2.0000      -7.239493      -196.9966
  14   2.0000      -7.239280      -196.9908
  15   2.0000      -7.238950      -196.9819
  16   2.0000      -3.941948      -107.2659
  17   2.0000      -2.160301       -58.7848
  18   2.0000      -2.156156       -58.6720
  19   2.0000      -2.118717       -57.6532
  20   2.0000      -0.713972       -19.4282
  21   2.0000      -0.692552       -18.8453
  22   2.0000      -0.681525       -18.5452
  23   2.0000      -0.674239       -18.3470
  24   2.0000      -0.366568        -9.9748
  25   2.0000      -0.338102        -9.2002
  26   2.0000      -0.328986        -8.9522
  27   2.0000      -0.291122        -7.9218
  28   2.0000      -0.282335        -7.6827
  29   2.0000      -0.277856        -7.5608
  30   2.0000      -0.237227        -6.4553
  31   2.0000      -0.233297        -6.3483
  32   2.0000      -0.208562        -5.6753
  33   2.0000      -0.185489        -5.0474
  34   2.0000      -0.185013        -5.0345
  35   2.0000      -0.163168        -4.4400
  36   2.0000      -0.145025        -3.9463
  37   2.0000      -0.138835        -3.7779
  38   2.0000      -0.127107        -3.4588
  39   2.0000      -0.117283        -3.1914
  40   0.0000       0.061783         1.6812
  41   0.0000       0.191133         5.2010
  42   0.0000       0.199956         5.4411
  43   0.0000       0.264220         7.1898
  44   0.0000       0.267446         7.2776

MULLIKEN ATOMIC CHARGES
-----------------------
   0 Pt:    0.148353
   1 Cl:   -0.434545
   2 Cl:   -0.297878
   3 Cl:   -0.433009
   4 C :   -0.923034
   5 H :    0.199625
   6 H :    0.276456
   7 H :    0.206004
   8 H :    0.258027
Sum of atomic charges:   -1.0000000

LOEWDIN ATOMIC CHARGES
----------------------
   0 Pt:   -0.836055
   1 Cl:   -0.132443
   2 Cl:    0.046066
   3 Cl:   -0.131479
   4 C :   -0.510861
   5 H :    0.118619
   6 H :    0.159121
   7 H :    0.122929
   8 H :    0.164101

  Mayer bond orders larger than 0.100000
B(  0-Pt,  1-Cl) :   0.8158 B(  0-Pt,  2-Cl) :   1.0339 B(  0-Pt,  3-Cl) :   0.8043
B(  1-Cl,  3-Cl) :   0.1093 B(  4-C ,  5-H ) :   0.9377 B(  4-C ,  6-H ) :   0.8872
B(  4-C ,  7-H ) :   0.9377 B(  4-C ,  8-H ) :   0.9007

Dispersion correction           -0.004469117
FINAL SINGLE POINT ENERGY     -1539.043050050648
Dispersion correction            ... done

DIPOLE MOMENT
-------------
                                X             Y             Z
Electronic contribution:     -6.58551      -3.32505       5.75395
Nuclear contribution   :      7.29472       3.97821      -6.08407
                        -----------------------------------------
Total Dipole Moment    :      0.70921       0.65316      -0.33012
                        -----------------------------------------
Magnitude (a.u.)       :      1.01911
Magnitude (Debye)      :      2.59036

Rotational constants in cm-1:     0.047066     0.043704     0.022800
Rotational constants in MHz :  1411.003248  1310.220391   683.523772

                             ****ORCA TERMINATED NORMALLY****
TOTAL RUN TIME: 0 days 0 hours 0 minutes 37 seconds 909 msec
