                         Program Version 5.0.3 -  RELEASE  -
|  1> ! EnGrad PBEh-3c
|  2> %output
|  3> xyzfile=True
|  4> end
|  5> %scf
|  6> maxiter 250
|  7> end
|  8> %output
|  9> Print[P_Hirshfeld] = 1
| 10> end
| 11> % maxcore
| 12> 4000
| 13> *xyz -1 1
| 14> Pt  -1.20678726  -0.99960035   0.61340606
| 15> Cl  -0.30394164  -0.80561217   2.72971154
| 16> Cl  -2.74826224  -2.47731709   1.18599882
| 17> Cl  -1.87109489  -0.93572180  -1.59413393
| 18> C    1.22416559   1.04039825  -0.57602160
| 19> H    1.45083373   2.05547076  -0.32442922
| 20> H    1.22925427   0.44161662   0.30776291
| 21> H    1.95473692   0.65433488  -1.25801929
| 22> H    0.26971092   1.02416670  -1.08403747
| 23> *
| 24>
| 25>                          ****END OF INPUT****

CARTESIAN COORDINATES (ANGSTROEM)
---------------------------------
  Pt    -1.206787   -0.999600    0.613406
  Cl    -0.303942   -0.805612    2.729712
  Cl    -2.748262   -2.477317    1.185999
  Cl    -1.871095   -0.935722   -1.594134
  C      1.224166    1.040398   -0.576022
  H      1.450834    2.055471   -0.324429
  H      1.229254    0.441617    0.307763
  H      1.954737    0.654335   -1.258019
  H      0.269711    1.024167   -1.084037

 Total Charge           Charge          ....   -1
 Multiplicity           Mult            ....    1
 Number of Electrons    NEL             ....   80
 Basis Dimension        Dim             ....  109

ORBITAL ENERGIES
----------------

  NO   OCC          E(Eh)            E(eV)
   0   2.0000    -102.121916     -2778.8786
   1   2.0000    -102.094557     -2778.1341
   2   2.0000    -102.094250     -2778.1258
   3   2.0000     -10.302940      -280.3573
   4   2.0000      -9.586231      -260.8546
   5   2.0000      -9.558728      -260.1062
   6   2.0000      -9.558537      -260.1010
   7   2.0000      -7.273896      -197.9328
   8   2.0000      -7.266168      -197.7225
   9   2.0000      -7.265871      -197.7144
  10   2.0000      -7.244439      -197.1312
  11   2.0000      -7.244336      -197.1284
  12   2.0000      -7.239981      -197.0099
  13   2.0000      -7.239652      -197.0010
  14   2.0000      -7.239480      -196.9963
  15   2.0000      -7.239296      -196.9913
  16   2.0000      -3.941726      -107.2598
  17   2.0000      -2.160391       -58.7872
  18   2.0000      -2.156019       -58.6683
  19   2.0000      -2.118507       -57.6475
  20   2.0000      -0.715188       -19.4613
  21   2.0000      -0.693354       -18.8671
  22   2.0000      -0.681997       -18.5581
  23   2.0000      -0.676638       -18.4123
  24   2.0000      -0.350734        -9.5440
  25   2.0000      -0.347706        -9.4616
  26   2.0000      -0.340230        -9.2581
  27   2.0000      -0.292192        -7.9509
  28   2.0000      -0.283887        -7.7250
  29   2.0000      -0.279686        -7.6106
  30   2.0000      -0.238534        -6.4908
  31   2.0000      -0.234151        -6.3716
  32   2.0000      -0.209137        -5.6909
  33   2.0000      -0.185978        -5.0607
  34   2.0000      -0.185615        -5.0509
  35   2.0000      -0.163303        -4.4437
  36   2.0000      -0.144811        -3.9405
  37   2.0000      -0.138163        -3.7596
  38   2.0000      -0.126200        -3.4341
  39   2.0000      -0.116653        -3.1743
  40   0.0000       0.062982         1.7138
  41   0.0000       0.192514         5.2386
  42   0.0000       0.200308         5.4506
  43   0.0000       0.265195         7.2163
  44   0.0000       0.267403         7.2764

MULLIKEN ATOMIC CHARGES
-----------------------
   0 Pt:    0.143335
   1 Cl:   -0.433318
   2 Cl:   -0.295603
   3 Cl:   -0.432648
   4 C :   -0.926385
   5 H :    0.205960
   6 H :    0.264109
   7 H :    0.211869
   8 H :    0.262681
Sum of atomic charges:   -1.0000000

LOEWDIN ATOMIC CHARGES
----------------------
   0 Pt:   -0.847729
   1 Cl:   -0.128970
   2 Cl:    0.051505
   3 Cl:   -0.128147
   4 C :   -0.512675
   5 H :    0.120081
   6 H :    0.161084
   7 H :    0.124169
   8 H :    0.160683

  Mayer bond orders larger than 0.100000
B(  0-Pt,  1-Cl) :   0.8170 B(  0-Pt,  2-Cl) :   1.0367 B(  0-Pt,  3-Cl) :   0.8056
B(  1-Cl,  3-Cl) :   0.1094 B(  4-C ,  5-H ) :   0.9354 B(  4-C ,  6-H ) :   0.8929
B(  4-C ,  7-H ) :   0.9358 B(  4-C ,  8-H ) :   0.8989

Dispersion correction           -0.004484017
FINAL SINGLE POINT ENERGY     -1539.047141027555
Dispersion correction            ... done

DIPOLE MOMENT
-------------
                                X             Y             Z
Electronic contribution:     -6.78210      -3.69818       5.82826
Nuclear contribution   :      7.47455       4.32856      -6.14235
                        -----------------------------------------
Total Dipole Moment    :      0.69245       0.63038      -0.31409
                        -----------------------------------------
Magnitude (a.u.)       :      0.98768
Magnitude (Debye)      :      2.51048

Rotational constants in cm-1:     0.047241     0.043814     0.022863
Rotational constants in MHz :  1416.260467  1313.515767   685.401841

                             ****ORCA TERMINATED NORMALLY****
TOTAL RUN TIME: 0 days 0 hours 0 minutes 38 seconds 455 msec
