                         Program Version 5.0.3 -  RELEASE  -
|  1> ! EnGrad PBEh-3c
|  2> %output
|  3> xyzfile=True
|  4> end
|  5> %scf
|  6> maxiter 250
|  7> end
|  8> %output
|  9> Print[P_Hirshfeld] = 1
| 10> end
| 11> % maxcore
| 12> 4000
| 13> *xyz -1 1
| 14> Pt  -1.20271002  -0.99616960   0.61082590
| 15> Cl  -0.30389151  -0.80280922   2.72560845
| 16> Cl  -2.75085741  -2.47688793   1.19010431
| 17> Cl  -1.86620980  -0.93794989  -1.59541602
| 18> C    1.22066423   1.04727124  -0.59104863
| 19> H    1.45650075   2.06195470  -0.31428959
| 20> H    1.22136302   0.42929799   0.31348746
| 21> H    1.95987346   0.65236864  -1.26555397
| 22> H    0.26339486   1.02023415  -1.07331486
| 23> *
| 24>
| 25>                          ****END OF INPUT****

CARTESIAN COORDINATES (ANGSTROEM)
---------------------------------
  Pt    -1.202710   -0.996170    0.610826
  Cl    -0.303892   -0.802809    2.725608
  Cl    -2.750857   -2.476888    1.190104
  Cl    -1.866210   -0.937950   -1.595416
  C      1.220664    1.047271   -0.591049
  H      1.456501    2.061955   -0.314290
  H      1.221363    0.429298    0.313487
  H      1.959873    0.652369   -1.265554
  H      0.263395    1.020234   -1.073315

 Total Charge           Charge          ....   -1
 Multiplicity           Mult            ....    1
 Number of Electrons    NEL             ....   80
 Basis Dimension        Dim             ....  109

ORBITAL ENERGIES
----------------

  NO   OCC          E(Eh)            E(eV)
   0   2.0000    -102.121794     -2778.8753
   1   2.0000    -102.094713     -2778.1384
   2   2.0000    -102.094406     -2778.1300
   3   2.0000     -10.306508      -280.4544
   4   2.0000      -9.585978      -260.8477
   5   2.0000      -9.558928      -260.1117
   6   2.0000      -9.558717      -260.1059
   7   2.0000      -7.273647      -197.9260
   8   2.0000      -7.265927      -197.7159
   9   2.0000      -7.265634      -197.7080
  10   2.0000      -7.244645      -197.1368
  11   2.0000      -7.244510      -197.1331
  12   2.0000      -7.240168      -197.0150
  13   2.0000      -7.239835      -197.0059
  14   2.0000      -7.239676      -197.0016
  15   2.0000      -7.239474      -196.9961
  16   2.0000      -3.941838      -107.2629
  17   2.0000      -2.160219       -58.7825
  18   2.0000      -2.156298       -58.6759
  19   2.0000      -2.118642       -57.6512
  20   2.0000      -0.714418       -19.4403
  21   2.0000      -0.693611       -18.8741
  22   2.0000      -0.682257       -18.5652
  23   2.0000      -0.674161       -18.3449
  24   2.0000      -0.348095        -9.4721
  25   2.0000      -0.344972        -9.3872
  26   2.0000      -0.341921        -9.3041
  27   2.0000      -0.292670        -7.9640
  28   2.0000      -0.282556        -7.6887
  29   2.0000      -0.279280        -7.5996
  30   2.0000      -0.237502        -6.4627
  31   2.0000      -0.234618        -6.3843
  32   2.0000      -0.209205        -5.6928
  33   2.0000      -0.186229        -5.0676
  34   2.0000      -0.185825        -5.0566
  35   2.0000      -0.163466        -4.4481
  36   2.0000      -0.144996        -3.9455
  37   2.0000      -0.138696        -3.7741
  38   2.0000      -0.126438        -3.4405
  39   2.0000      -0.116616        -3.1733
  40   0.0000       0.062067         1.6889
  41   0.0000       0.192571         5.2401
  42   0.0000       0.200011         5.4426
  43   0.0000       0.264569         7.1993
  44   0.0000       0.266737         7.2583

MULLIKEN ATOMIC CHARGES
-----------------------
   0 Pt:    0.142589
   1 Cl:   -0.432293
   2 Cl:   -0.297408
   3 Cl:   -0.432418
   4 C :   -0.921550
   5 H :    0.204822
   6 H :    0.258027
   7 H :    0.211898
   8 H :    0.266334
Sum of atomic charges:   -1.0000000

LOEWDIN ATOMIC CHARGES
----------------------
   0 Pt:   -0.848012
   1 Cl:   -0.126947
   2 Cl:    0.046953
   3 Cl:   -0.127259
   4 C :   -0.511676
   5 H :    0.120074
   6 H :    0.162529
   7 H :    0.124288
   8 H :    0.160050

  Mayer bond orders larger than 0.100000
B(  0-Pt,  1-Cl) :   0.8180 B(  0-Pt,  2-Cl) :   1.0330 B(  0-Pt,  3-Cl) :   0.8062
B(  1-Cl,  3-Cl) :   0.1096 B(  4-C ,  5-H ) :   0.9352 B(  4-C ,  6-H ) :   0.8938
B(  4-C ,  7-H ) :   0.9351 B(  4-C ,  8-H ) :   0.8955

Dispersion correction           -0.004488150
FINAL SINGLE POINT ENERGY     -1539.047791648287
Dispersion correction            ... done

DIPOLE MOMENT
-------------
                                X             Y             Z
Electronic contribution:     -6.55083      -3.53532       5.76177
Nuclear contribution   :      7.25064       4.16856      -6.07174
                        -----------------------------------------
Total Dipole Moment    :      0.69980       0.63323      -0.30998
                        -----------------------------------------
Magnitude (a.u.)       :      0.99338
Magnitude (Debye)      :      2.52496

Rotational constants in cm-1:     0.047231     0.043780     0.022850
Rotational constants in MHz :  1415.955013  1312.480741   685.016501

                             ****ORCA TERMINATED NORMALLY****
TOTAL RUN TIME: 0 days 0 hours 0 minutes 39 seconds 677 msec
