                         Program Version 5.0.3 -  RELEASE  -
|  1> ! EnGrad PBEh-3c
|  2> %output
|  3> xyzfile=True
|  4> end
|  5> %scf
|  6> maxiter 250
|  7> end
|  8> %output
|  9> Print[P_Hirshfeld] = 1
| 10> end
| 11> % maxcore
| 12> 4000
| 13> *xyz -1 1
| 14> Pt  -1.20120341  -0.99458678   0.60975762
| 15> Cl  -0.30347018  -0.80222119   2.72449717
| 16> Cl  -2.75308115  -2.47817943   1.19240620
| 17> Cl  -1.86524914  -0.93825013  -1.59662788
| 18> C    1.22119968   1.04589608  -0.58888745
| 19> H    1.45900417   2.06639320  -0.31126537
| 20> H    1.21962325   0.42820248   0.31380878
| 21> H    1.96412962   0.65102223  -1.26986272
| 22> H    0.25687757   1.01886144  -1.07336683
| 23> *
| 24>
| 25>                          ****END OF INPUT****

CARTESIAN COORDINATES (ANGSTROEM)
---------------------------------
  Pt    -1.201203   -0.994587    0.609758
  Cl    -0.303470   -0.802221    2.724497
  Cl    -2.753081   -2.478179    1.192406
  Cl    -1.865249   -0.938250   -1.596628
  C      1.221200    1.045896   -0.588887
  H      1.459004    2.066393   -0.311265
  H      1.219623    0.428202    0.313809
  H      1.964130    0.651022   -1.269863
  H      0.256878    1.018861   -1.073367

 Total Charge           Charge          ....   -1
 Multiplicity           Mult            ....    1
 Number of Electrons    NEL             ....   80
 Basis Dimension        Dim             ....  109

ORBITAL ENERGIES
----------------

  NO   OCC          E(Eh)            E(eV)
   0   2.0000    -102.121760     -2778.8744
   1   2.0000    -102.094863     -2778.1425
   2   2.0000    -102.094472     -2778.1318
   3   2.0000     -10.308578      -280.5107
   4   2.0000      -9.585862      -260.8446
   5   2.0000      -9.559084      -260.1159
   6   2.0000      -9.558781      -260.1077
   7   2.0000      -7.273533      -197.9229
   8   2.0000      -7.265817      -197.7129
   9   2.0000      -7.265527      -197.7050
  10   2.0000      -7.244804      -197.1412
  11   2.0000      -7.244573      -197.1349
  12   2.0000      -7.240320      -197.0191
  13   2.0000      -7.239898      -197.0077
  14   2.0000      -7.239830      -197.0058
  15   2.0000      -7.239539      -196.9979
  16   2.0000      -3.941964      -107.2663
  17   2.0000      -2.160175       -58.7813
  18   2.0000      -2.156491       -58.6811
  19   2.0000      -2.118778       -57.6549
  20   2.0000      -0.713943       -19.4274
  21   2.0000      -0.693665       -18.8756
  22   2.0000      -0.682360       -18.5679
  23   2.0000      -0.672661       -18.3040
  24   2.0000      -0.346632        -9.4323
  25   2.0000      -0.343512        -9.3474
  26   2.0000      -0.342428        -9.3179
  27   2.0000      -0.292798        -7.9674
  28   2.0000      -0.281817        -7.6686
  29   2.0000      -0.278871        -7.5885
  30   2.0000      -0.236895        -6.4463
  31   2.0000      -0.234757        -6.3881
  32   2.0000      -0.209206        -5.6928
  33   2.0000      -0.186314        -5.0699
  34   2.0000      -0.185903        -5.0587
  35   2.0000      -0.163584        -4.4513
  36   2.0000      -0.145158        -3.9499
  37   2.0000      -0.139081        -3.7846
  38   2.0000      -0.126690        -3.4474
  39   2.0000      -0.116731        -3.1764
  40   0.0000       0.061402         1.6708
  41   0.0000       0.192412         5.2358
  42   0.0000       0.199828         5.4376
  43   0.0000       0.264349         7.1933
  44   0.0000       0.266411         7.2494

MULLIKEN ATOMIC CHARGES
-----------------------
   0 Pt:    0.143100
   1 Cl:   -0.431905
   2 Cl:   -0.298492
   3 Cl:   -0.432363
   4 C :   -0.919075
   5 H :    0.203636
   6 H :    0.259208
   7 H :    0.210589
   8 H :    0.265302
Sum of atomic charges:   -1.0000000

LOEWDIN ATOMIC CHARGES
----------------------
   0 Pt:   -0.846186
   1 Cl:   -0.126358
   2 Cl:    0.044150
   3 Cl:   -0.127326
   4 C :   -0.511303
   5 H :    0.119876
   6 H :    0.162414
   7 H :    0.124131
   8 H :    0.160602

  Mayer bond orders larger than 0.100000
B(  0-Pt,  1-Cl) :   0.8185 B(  0-Pt,  2-Cl) :   1.0309 B(  0-Pt,  3-Cl) :   0.8061
B(  1-Cl,  3-Cl) :   0.1097 B(  4-C ,  5-H ) :   0.9353 B(  4-C ,  6-H ) :   0.8924
B(  4-C ,  7-H ) :   0.9354 B(  4-C ,  8-H ) :   0.8953

Dispersion correction           -0.004488306
FINAL SINGLE POINT ENERGY     -1539.048081531606
Dispersion correction            ... done

DIPOLE MOMENT
-------------
                                X             Y             Z
Electronic contribution:     -6.44863      -3.41829       5.69002
Nuclear contribution   :      7.15159       4.05474      -5.99955
                        -----------------------------------------
Total Dipole Moment    :      0.70296       0.63645      -0.30953
                        -----------------------------------------
Magnitude (a.u.)       :      0.99751
Magnitude (Debye)      :      2.53548

Rotational constants in cm-1:     0.047183     0.043768     0.022836
Rotational constants in MHz :  1414.511131  1312.140100   684.604492

                             ****ORCA TERMINATED NORMALLY****
TOTAL RUN TIME: 0 days 0 hours 0 minutes 38 seconds 613 msec
