                         Program Version 5.0.3 -  RELEASE  -
|  1> ! EnGrad PBEh-3c
|  2> %output
|  3> xyzfile=True
|  4> end
|  5> %scf
|  6> maxiter 250
|  7> end
|  8> %output
|  9> Print[P_Hirshfeld] = 1
| 10> end
| 11> % maxcore
| 12> 4000
| 13> *xyz -1 1
| 14> Pt  -1.20019655  -0.99295200   0.60770108
| 15> Cl  -0.30191170  -0.80107865   2.72215594
| 16> Cl  -2.75739623  -2.48038912   1.19795158
| 17> Cl  -1.86358646  -0.93847375  -1.60028433
| 18> C    1.22289020   1.04325581  -0.58435307
| 19> H    1.46362977   2.07201008  -0.30640461
| 20> H    1.21716865   0.42798918   0.31369920
| 21> H    1.97076397   0.64998298  -1.27642661
| 22> H    0.24559518   1.01632674  -1.07350579
| 23> *
| 24>
| 25>                          ****END OF INPUT****

CARTESIAN COORDINATES (ANGSTROEM)
---------------------------------
  Pt    -1.200197   -0.992952    0.607701
  Cl    -0.301912   -0.801079    2.722156
  Cl    -2.757396   -2.480389    1.197952
  Cl    -1.863586   -0.938474   -1.600284
  C      1.222890    1.043256   -0.584353
  H      1.463630    2.072010   -0.306405
  H      1.217169    0.427989    0.313699
  H      1.970764    0.649983   -1.276427
  H      0.245595    1.016327   -1.073506

 Total Charge           Charge          ....   -1
 Multiplicity           Mult            ....    1
 Number of Electrons    NEL             ....   80
 Basis Dimension        Dim             ....  109

ORBITAL ENERGIES
----------------

  NO   OCC          E(Eh)            E(eV)
   0   2.0000    -102.121766     -2778.8745
   1   2.0000    -102.095169     -2778.1508
   2   2.0000    -102.094644     -2778.1365
   3   2.0000     -10.311527      -280.5909
   4   2.0000      -9.585744      -260.8414
   5   2.0000      -9.559386      -260.1241
   6   2.0000      -9.558938      -260.1119
   7   2.0000      -7.273418      -197.9198
   8   2.0000      -7.265709      -197.7100
   9   2.0000      -7.265423      -197.7022
  10   2.0000      -7.245114      -197.1496
  11   2.0000      -7.244728      -197.1391
  12   2.0000      -7.240617      -197.0272
  13   2.0000      -7.240130      -197.0140
  14   2.0000      -7.240058      -197.0120
  15   2.0000      -7.239697      -197.0022
  16   2.0000      -3.942234      -107.2736
  17   2.0000      -2.160190       -58.7818
  18   2.0000      -2.156842       -58.6907
  19   2.0000      -2.119058       -57.6625
  20   2.0000      -0.713259       -19.4088
  21   2.0000      -0.693747       -18.8778
  22   2.0000      -0.682541       -18.5729
  23   2.0000      -0.670460       -18.2441
  24   2.0000      -0.344623        -9.3777
  25   2.0000      -0.343541        -9.3482
  26   2.0000      -0.340736        -9.2719
  27   2.0000      -0.292909        -7.9704
  28   2.0000      -0.280738        -7.6393
  29   2.0000      -0.278231        -7.5710
  30   2.0000      -0.236036        -6.4229
  31   2.0000      -0.234919        -6.3925
  32   2.0000      -0.209255        -5.6941
  33   2.0000      -0.186476        -5.0743
  34   2.0000      -0.186057        -5.0629
  35   2.0000      -0.163869        -4.4591
  36   2.0000      -0.145468        -3.9584
  37   2.0000      -0.139717        -3.8019
  38   2.0000      -0.127121        -3.4591
  39   2.0000      -0.117048        -3.1850
  40   0.0000       0.060260         1.6398
  41   0.0000       0.191999         5.2245
  42   0.0000       0.199520         5.4292
  43   0.0000       0.263921         7.1817
  44   0.0000       0.265930         7.2363

MULLIKEN ATOMIC CHARGES
-----------------------
   0 Pt:    0.144339
   1 Cl:   -0.431347
   2 Cl:   -0.300147
   3 Cl:   -0.432473
   4 C :   -0.915478
   5 H :    0.201982
   6 H :    0.261616
   7 H :    0.208558
   8 H :    0.262951
Sum of atomic charges:   -1.0000000

LOEWDIN ATOMIC CHARGES
----------------------
   0 Pt:   -0.842409
   1 Cl:   -0.125710
   2 Cl:    0.039873
   3 Cl:   -0.127876
   4 C :   -0.510874
   5 H :    0.119545
   6 H :    0.162020
   7 H :    0.123858
   8 H :    0.161573

  Mayer bond orders larger than 0.100000
B(  0-Pt,  1-Cl) :   0.8190 B(  0-Pt,  2-Cl) :   1.0280 B(  0-Pt,  3-Cl) :   0.8058
B(  1-Cl,  3-Cl) :   0.1098 B(  4-C ,  5-H ) :   0.9355 B(  4-C ,  6-H ) :   0.8900
B(  4-C ,  7-H ) :   0.9359 B(  4-C ,  8-H ) :   0.8954

Dispersion correction           -0.004487439
FINAL SINGLE POINT ENERGY     -1539.048136680345
Dispersion correction            ... done

DIPOLE MOMENT
-------------
                                X             Y             Z
Electronic contribution:     -6.37666      -3.28795       5.55698
Nuclear contribution   :      7.08269       3.92800      -5.86480
                        -----------------------------------------
Total Dipole Moment    :      0.70603       0.64006      -0.30782
                        -----------------------------------------
Magnitude (a.u.)       :      1.00145
Magnitude (Debye)      :      2.54548

Rotational constants in cm-1:     0.047090     0.043720     0.022802
Rotational constants in MHz :  1411.729578  1310.706964   683.579741

                             ****ORCA TERMINATED NORMALLY****
TOTAL RUN TIME: 0 days 0 hours 0 minutes 38 seconds 191 msec
