                         Program Version 5.0.4 -  RELEASE  -
|  1> %pal nprocs 8 end
|  2>
|  3>  *xyzfile 0 1 cineb-5-peak.xyz
|  4>
|  5>
|  6>                          ****END OF INPUT****
|  1>
|  2>
|  3>   ! PBEh-3c OptTS Freq pal8
|  4>
|  5>   %geom
|  6>    calc_hess true
|  7>    recalc_hess 20
|  8>    maxiter 600
|  9>   end
| 10>
| 11>
| 12>                          ****END OF INPUT****
 Total Charge           Charge          ....    0
 Multiplicity           Mult            ....    1
 Number of Electrons    NEL             ....  106
Dispersion correction           -0.013535266
FINAL SINGLE POINT ENERGY      -737.089797700860
Dispersion correction            ... done
Dispersion correction in the Hessian             ... done   (      0.6 sec)
Dispersion correction           -0.013521766
FINAL SINGLE POINT ENERGY      -737.092382087935
Dispersion correction            ... done
Dispersion correction           -0.013503589
FINAL SINGLE POINT ENERGY      -737.096070133715
FINAL SINGLE POINT ENERGY      -737.100190660013
FINAL SINGLE POINT ENERGY      -737.104141782513
FINAL SINGLE POINT ENERGY      -737.107697518238
FINAL SINGLE POINT ENERGY      -737.110729048763
FINAL SINGLE POINT ENERGY      -737.113208691286
FINAL SINGLE POINT ENERGY      -737.115206372187
FINAL SINGLE POINT ENERGY      -737.116789128315
FINAL SINGLE POINT ENERGY      -737.120557446770
FINAL SINGLE POINT ENERGY      -737.120657329699
FINAL SINGLE POINT ENERGY      -737.120669339433
FINAL SINGLE POINT ENERGY      -737.120651904746
FINAL SINGLE POINT ENERGY      -737.120682850083
FINAL SINGLE POINT ENERGY      -737.120651091519
FINAL SINGLE POINT ENERGY      -737.120665339533
Dispersion correction           -0.013262441
FINAL SINGLE POINT ENERGY      -737.120665344853
Dispersion correction            ... done
                    ***********************HURRAY********************
Dispersion correction           -0.013262602
FINAL SINGLE POINT ENERGY      -737.120663514976
Dispersion correction in the Hessian             ... done   (      0.7 sec)

VIBRATIONAL FREQUENCIES
-----------------------

Scaling factor for frequencies =  1.000000000  (already applied!)

   0:         0.00 cm**-1
   1:         0.00 cm**-1
   2:         0.00 cm**-1
   3:         0.00 cm**-1
   4:         0.00 cm**-1
   5:         0.00 cm**-1
   6:     -1131.76 cm**-1 ***imaginary mode***
   7:        23.28 cm**-1
   8:        76.36 cm**-1
   9:        89.88 cm**-1
  10:        95.62 cm**-1
  11:       145.02 cm**-1
  12:       155.20 cm**-1
  13:       168.71 cm**-1
  14:       205.06 cm**-1
  15:       274.20 cm**-1
  16:       315.64 cm**-1
  17:       341.19 cm**-1
  18:       375.29 cm**-1
  19:       384.35 cm**-1
  20:       417.63 cm**-1
  21:       424.63 cm**-1
  22:       475.06 cm**-1
  23:       527.47 cm**-1
  24:       634.11 cm**-1
  25:       691.44 cm**-1
  26:       738.62 cm**-1
  27:       790.66 cm**-1
  28:       831.68 cm**-1
  29:       858.84 cm**-1
  30:       901.67 cm**-1
  31:      1000.26 cm**-1
  32:      1037.83 cm**-1
  33:      1042.97 cm**-1
  34:      1061.81 cm**-1
  35:      1067.58 cm**-1
  36:      1097.43 cm**-1
  37:      1108.17 cm**-1
  38:      1108.85 cm**-1
  39:      1127.03 cm**-1
  40:      1215.86 cm**-1
  41:      1241.25 cm**-1
  42:      1258.66 cm**-1
  43:      1357.32 cm**-1
  44:      1363.52 cm**-1
  45:      1403.77 cm**-1
  46:      1409.29 cm**-1
  47:      1437.40 cm**-1
  48:      1469.38 cm**-1
  49:      1473.55 cm**-1
  50:      1529.17 cm**-1
  51:      1558.30 cm**-1
  52:      1680.34 cm**-1
  53:      1685.96 cm**-1
  54:      1700.61 cm**-1
  55:      1805.20 cm**-1
  56:      3120.39 cm**-1
  57:      3127.41 cm**-1
  58:      3252.22 cm**-1
  59:      3259.88 cm**-1
  60:      3269.66 cm**-1
  61:      3282.46 cm**-1
  62:      3290.31 cm**-1

IR SPECTRUM
-----------

 Mode   freq       eps      Int      T**2         TX        TY        TZ
       cm**-1   L/(mol*cm) km/mol    a.u.
----------------------------------------------------------------------------
  7:     23.28   0.000018    0.09  0.000244  (-0.014625  0.004545 -0.003143)
  8:     76.36   0.000216    1.09  0.000885  (-0.004378 -0.027298 -0.010969)
  9:     89.88   0.000076    0.38  0.000263  ( 0.005487 -0.004244  0.014673)
 10:     95.62   0.000048    0.24  0.000156  ( 0.003635  0.008880  0.007995)
 11:    145.02   0.003333   16.85  0.007173  (-0.041635 -0.067348 -0.030063)
 12:    155.20   0.000599    3.03  0.001204  (-0.019168  0.027910 -0.007578)
 13:    168.71   0.000821    4.15  0.001518  ( 0.019996  0.029929 -0.014913)
 14:    205.06   0.000442    2.23  0.000672  (-0.020485 -0.009063 -0.013057)
 15:    274.20   0.003383   17.09  0.003850  ( 0.010619  0.054481  0.027730)
 16:    315.64   0.002069   10.46  0.002045  (-0.029905  0.002438 -0.033840)
 17:    341.19   0.004866   24.59  0.004450  (-0.036081 -0.018015  0.053142)
 18:    375.29   0.002981   15.06  0.002479  (-0.013284  0.025069 -0.040910)
 19:    384.35   0.012306   62.19  0.009992  (-0.099845 -0.001579  0.004477)
 20:    417.63   0.000524    2.65  0.000392  (-0.000404  0.006546 -0.018676)
 21:    424.63   0.002586   13.07  0.001901  ( 0.034497  0.024156 -0.011269)
 22:    475.06   0.017269   87.27  0.011344  ( 0.026271 -0.091291 -0.048164)
 23:    527.47   0.004178   21.11  0.002472  ( 0.040426  0.028104  0.006892)
 24:    634.11   0.000031    0.16  0.000015  (-0.002390  0.001557 -0.002648)
 25:    691.44   0.005018   25.36  0.002265  (-0.011794 -0.043524 -0.015215)
 26:    738.62   0.019472   98.40  0.008227  (-0.044284  0.050938  0.060588)
 27:    790.66   0.007694   38.88  0.003037  ( 0.045234  0.003810 -0.031240)
 28:    831.68   0.010537   53.25  0.003954  ( 0.026727  0.053474  0.019490)
 29:    858.84   0.024072  121.65  0.008747  ( 0.080757 -0.021963 -0.041742)
 30:    901.67   0.000014    0.07  0.000005  (-0.001048  0.001801 -0.000802)
 31:   1000.26   0.001425    7.20  0.000445  (-0.007028  0.014762  0.013316)
 32:   1037.83   0.000941    4.76  0.000283  (-0.002432  0.012947  0.010464)
 33:   1042.97   0.000028    0.14  0.000008  (-0.000546  0.000466  0.002816)
 34:   1061.81   0.005131   25.93  0.001508  ( 0.014858  0.033473  0.012910)
 35:   1067.58   0.004199   21.22  0.001228  (-0.012630 -0.030607 -0.011457)
 36:   1097.43   0.011053   55.86  0.003143  ( 0.023658  0.047832  0.017189)
 37:   1108.17   0.000553    2.79  0.000156  ( 0.008966  0.006024  0.006249)
 38:   1108.85   0.000051    0.26  0.000014  (-0.002736 -0.000711 -0.002535)
 39:   1127.03   0.002982   15.07  0.000826  ( 0.017844  0.010968  0.019671)
 40:   1215.86   0.001681    8.49  0.000431  ( 0.014704  0.001690  0.014571)
 41:   1241.25   0.006794   34.33  0.001708  ( 0.028296  0.028144  0.010737)
 42:   1258.66   0.012966   65.53  0.003215  (-0.033797 -0.037366 -0.026007)
 43:   1357.32   0.002221   11.22  0.000511  (-0.001657 -0.016033 -0.015837)
 44:   1363.52   0.080685  407.75  0.018466  (-0.074096 -0.111023 -0.025488)
 45:   1403.77   0.003593   18.16  0.000799  ( 0.001619 -0.024527  0.013951)
 46:   1409.29   0.005265   26.61  0.001166  ( 0.025975  0.016289 -0.015032)
 47:   1437.40   0.014113   71.32  0.003064  (-0.004354 -0.047890 -0.027414)
 48:   1469.38   0.038828  196.22  0.008246  (-0.082340  0.016869  0.034379)
 49:   1473.55   0.007860   39.72  0.001665  ( 0.032994 -0.008690 -0.022372)
 50:   1529.17   0.006752   34.12  0.001378  (-0.002350  0.028266 -0.023945)
 51:   1558.30   0.001918    9.69  0.000384  ( 0.005154  0.017185  0.007882)
 52:   1680.34   0.000157    0.79  0.000029  ( 0.001764 -0.003459  0.003753)
 53:   1685.96   0.039144  197.82  0.007245  ( 0.042491  0.073646  0.004003)
 54:   1700.61   0.002876   14.54  0.000528  ( 0.010307  0.018197  0.009510)
 55:   1805.20   0.126736  640.47  0.021909  ( 0.093309 -0.038264 -0.108343)
 56:   3120.39   0.009864   49.85  0.000986  ( 0.005424 -0.027393 -0.014376)
 57:   3127.41   0.016957   85.70  0.001692  (-0.036276  0.008655  0.017356)
 58:   3252.22   0.000461    2.33  0.000044  ( 0.002634 -0.006104  0.000286)
 59:   3259.88   0.000225    1.14  0.000022  ( 0.001681 -0.000719  0.004267)
 60:   3269.66   0.000315    1.59  0.000030  ( 0.000375  0.004156  0.003558)
 61:   3282.46   0.002424   12.25  0.000230  ( 0.007058 -0.008119  0.010710)
 62:   3290.31   0.002224   11.24  0.000211  (-0.008656 -0.011259 -0.003038)

--------------------------
THERMOCHEMISTRY AT 298.15K
--------------------------

Temperature         ... 298.15 K
Pressure            ... 1.00 atm
Total Mass          ... 274.55 AMU

Throughout the following assumptions are being made:
  (1) The electronic state is orbitally nondegenerate
  (2) There are no thermally accessible electronically excited states
  (3) Hindered rotations indicated by low frequency modes are not
      treated as such but are treated as vibrations and this may
      cause some error
  (4) All equations used are the standard statistical mechanics
      equations for an ideal gas
  (5) All vibrations are strictly harmonic

freq.      23.28  E(vib)   ...       0.56
freq.      76.36  E(vib)   ...       0.49
freq.      89.88  E(vib)   ...       0.47
freq.      95.62  E(vib)   ...       0.47
freq.     145.02  E(vib)   ...       0.41
freq.     155.20  E(vib)   ...       0.40
freq.     168.71  E(vib)   ...       0.38
freq.     205.06  E(vib)   ...       0.35
freq.     274.20  E(vib)   ...       0.28
freq.     315.64  E(vib)   ...       0.25
freq.     341.19  E(vib)   ...       0.23
freq.     375.29  E(vib)   ...       0.21
freq.     384.35  E(vib)   ...       0.20
freq.     417.63  E(vib)   ...       0.18
freq.     424.63  E(vib)   ...       0.18
freq.     475.06  E(vib)   ...       0.15
freq.     527.47  E(vib)   ...       0.13
freq.     634.11  E(vib)   ...       0.09
freq.     691.44  E(vib)   ...       0.07
freq.     738.62  E(vib)   ...       0.06
freq.     790.66  E(vib)   ...       0.05
freq.     831.68  E(vib)   ...       0.04
freq.     858.84  E(vib)   ...       0.04
freq.     901.67  E(vib)   ...       0.03
freq.    1000.26  E(vib)   ...       0.02
freq.    1037.83  E(vib)   ...       0.02
freq.    1042.97  E(vib)   ...       0.02
freq.    1061.81  E(vib)   ...       0.02
freq.    1067.58  E(vib)   ...       0.02
freq.    1097.43  E(vib)   ...       0.02
freq.    1108.17  E(vib)   ...       0.02
freq.    1108.85  E(vib)   ...       0.02
freq.    1127.03  E(vib)   ...       0.01
freq.    1215.86  E(vib)   ...       0.01
freq.    1241.25  E(vib)   ...       0.01
freq.    1258.66  E(vib)   ...       0.01
freq.    1357.32  E(vib)   ...       0.01
freq.    1363.52  E(vib)   ...       0.01
freq.    1403.77  E(vib)   ...       0.00
freq.    1409.29  E(vib)   ...       0.00
freq.    1437.40  E(vib)   ...       0.00
freq.    1469.38  E(vib)   ...       0.00
freq.    1473.55  E(vib)   ...       0.00
freq.    1529.17  E(vib)   ...       0.00
freq.    1558.30  E(vib)   ...       0.00
freq.    1680.34  E(vib)   ...       0.00
freq.    1685.96  E(vib)   ...       0.00
freq.    1700.61  E(vib)   ...       0.00
freq.    1805.20  E(vib)   ...       0.00
freq.    3120.39  E(vib)   ...       0.00
freq.    3127.41  E(vib)   ...       0.00
freq.    3252.22  E(vib)   ...       0.00
freq.    3259.88  E(vib)   ...       0.00
freq.    3269.66  E(vib)   ...       0.00
freq.    3282.46  E(vib)   ...       0.00
freq.    3290.31  E(vib)   ...       0.00

------------
INNER ENERGY
------------

The inner energy is: U= E(el) + E(ZPE) + E(vib) + E(rot) + E(trans)
    E(el)   - is the total energy from the electronic structure calculation
              = E(kin-el) + E(nuc-el) + E(el-el) + E(nuc-nuc)
    E(ZPE)  - the the zero temperature vibrational energy from the frequency calculation
    E(vib)  - the the finite temperature correction to E(ZPE) due to population
              of excited vibrational states
    E(rot)  - is the rotational thermal energy
    E(trans)- is the translational thermal energy

Summary of contributions to the inner energy U:
Electronic energy                ...   -737.12066351 Eh
Zero point energy                ...      0.14987031 Eh      94.04 kcal/mol
Thermal vibrational correction   ...      0.00951812 Eh       5.97 kcal/mol
Thermal rotational correction    ...      0.00141627 Eh       0.89 kcal/mol
Thermal translational correction ...      0.00141627 Eh       0.89 kcal/mol
-----------------------------------------------------------------------
Total thermal energy                   -736.95844255 Eh

Summary of corrections to the electronic energy:
(perhaps to be used in another calculation)
Total thermal correction                  0.01235066 Eh       7.75 kcal/mol
Non-thermal (ZPE) correction              0.14987031 Eh      94.04 kcal/mol
-----------------------------------------------------------------------
Total correction                          0.16222097 Eh     101.79 kcal/mol

--------
ENTHALPY
--------

The enthalpy is H = U + kB*T
                kB is Boltzmann's constant
Total free energy                 ...   -736.95844255 Eh
Thermal Enthalpy correction       ...      0.00094421 Eh       0.59 kcal/mol
-----------------------------------------------------------------------
Total Enthalpy                    ...   -736.95749834 Eh

Note: Only C1 symmetry has been detected, increase convergence thresholds
      if your molecule has a higher symmetry. Symmetry factor of 1.0 is
      used for the rotational entropy correction.

Note: Rotational entropy computed according to Herzberg
Infrared and Raman Spectra, Chapter V,1, Van Nostrand Reinhold, 1945
Point Group:  C1, Symmetry Number:   1
Rotational constants in cm-1:     0.028981     0.018870     0.013061

Vibrational entropy computed according to the QRRHO of S. Grimme
Chem.Eur.J. 2012 18 9955

-------
ENTROPY
-------

The entropy contributions are T*S = T*(S(el)+S(vib)+S(rot)+S(trans))
     S(el)   - electronic entropy
     S(vib)  - vibrational entropy
     S(rot)  - rotational entropy
     S(trans)- translational entropy
The entropies will be listed as multiplied by the temperature to get
units of energy

Electronic entropy                ...      0.00000000 Eh      0.00 kcal/mol
Vibrational entropy               ...      0.01699044 Eh     10.66 kcal/mol
Rotational entropy                ...      0.01510481 Eh      9.48 kcal/mol
Translational entropy             ...      0.02030161 Eh     12.74 kcal/mol
-----------------------------------------------------------------------
Final entropy term                ...      0.05239687 Eh     32.88 kcal/mol

In case the symmetry of your molecule has not been determined correctly
or in case you have a reason to use a different symmetry number we print
out the resulting rotational entropy values for sn=1,12 :
 --------------------------------------------------------
|  sn= 1 | S(rot)=       0.01510481 Eh      9.48 kcal/mol|
|  sn= 2 | S(rot)=       0.01445036 Eh      9.07 kcal/mol|
|  sn= 3 | S(rot)=       0.01406753 Eh      8.83 kcal/mol|
|  sn= 4 | S(rot)=       0.01379590 Eh      8.66 kcal/mol|
|  sn= 5 | S(rot)=       0.01358521 Eh      8.52 kcal/mol|
|  sn= 6 | S(rot)=       0.01341307 Eh      8.42 kcal/mol|
|  sn= 7 | S(rot)=       0.01326752 Eh      8.33 kcal/mol|

|  1>
|  2>
|  3>   ! PBEh-3c IRC pal8
|  4>   %irc
|  5>     maxiter 600
|  6>     inithess read
|  7>     hess_filename "reaction-0-cineb5_optts_Compound_1.hess"
|  8>   end
|  9>
| 10>
| 11>                          ****END OF INPUT****

CARTESIAN COORDINATES (ANGSTROEM)
---------------------------------
  C     -1.333820    0.134894   -0.746930
  C     -1.942925   -0.968850   -1.317537
  C     -1.703621   -2.229521   -0.787021
  C     -0.872505   -2.389670    0.316332
  C     -0.466749    0.003847    0.352112
  C     -0.258604   -1.285399    0.874678
  H     -1.537603    1.120702   -1.149261
  H     -2.599604   -0.853325   -2.169477
  H     -2.172992   -3.096770   -1.233512
  H      0.393773   -1.414154    1.729904
  H     -0.701468   -3.376192    0.726054
  Pd     1.332692    1.036003   -0.010853
  O      3.297947    1.396166   -0.741219
  O      2.278223   -0.514089   -0.904126
  O      0.779234    2.777858    0.783586
  C     -0.131585    2.872338    1.642009
  O     -0.900602    1.969572    2.021595
  H     -0.667157    0.935894    1.258592
  C      3.293464    0.206394   -1.123840
  H      4.157737   -0.221040   -1.649212
  H     -0.253637    3.865951    2.092276

 Multiplicity           Mult            ....    1
 Number of Electrons    NEL             ....  106
 Basis Dimension        Dim             ....  227

ORBITAL ENERGIES
----------------

  NO   OCC          E(Eh)            E(eV)
   0   2.0000     -19.530891      -531.4626
   1   2.0000     -19.518449      -531.1240
   2   2.0000     -19.517767      -531.1054
   3   2.0000     -19.510895      -530.9185
   4   2.0000     -10.588199      -288.1195
   5   2.0000     -10.578648      -287.8596
   6   2.0000     -10.473675      -285.0032
   7   2.0000     -10.471922      -284.9555
   8   2.0000     -10.469982      -284.9027
   9   2.0000     -10.462083      -284.6878
  10   2.0000     -10.461323      -284.6671
  11   2.0000     -10.453971      -284.4670
  12   2.0000      -3.674408       -99.9857
  13   2.0000      -2.323603       -63.2285
  14   2.0000      -2.317439       -63.0607
  15   2.0000      -2.285387       -62.1885
  16   2.0000      -1.222843       -33.2753
  17   2.0000      -1.217968       -33.1426
  18   2.0000      -1.128335       -30.7036
  19   2.0000      -1.104380       -30.0517
  20   2.0000      -0.971555       -26.4374
  21   2.0000      -0.855207       -23.2714
  22   2.0000      -0.852206       -23.1897
  23   2.0000      -0.716855       -19.5066
  24   2.0000      -0.695429       -18.9236
  25   2.0000      -0.687945       -18.7199
  26   2.0000      -0.684340       -18.6218
  27   2.0000      -0.614265       -16.7150
  28   2.0000      -0.593202       -16.1419
  29   2.0000      -0.578792       -15.7497
  30   2.0000      -0.575602       -15.6629
  31   2.0000      -0.547492       -14.8980
  32   2.0000      -0.531462       -14.4618
  33   2.0000      -0.531129       -14.4528
  34   2.0000      -0.522956       -14.2303
  35   2.0000      -0.517504       -14.0820
  36   2.0000      -0.498296       -13.5593
  37   2.0000      -0.488700       -13.2982
  38   2.0000      -0.459391       -12.5007
  39   2.0000      -0.434079       -11.8119
  40   2.0000      -0.421727       -11.4758
  41   2.0000      -0.413334       -11.2474
  42   2.0000      -0.406279       -11.0554
  43   2.0000      -0.400985       -10.9114
  44   2.0000      -0.380716       -10.3598
  45   2.0000      -0.377338       -10.2679
  46   2.0000      -0.370527       -10.0825
  47   2.0000      -0.346856        -9.4384
  48   2.0000      -0.334620        -9.1055
  49   2.0000      -0.327580        -8.9139
  50   2.0000      -0.311644        -8.4803
  51   2.0000      -0.306801        -8.3485
  52   2.0000      -0.298281        -8.1166
  53   0.0000      -0.083332        -2.2676
  54   0.0000       0.001903         0.0518
  55   0.0000       0.002625         0.0714
  56   0.0000       0.027132         0.7383
  57   0.0000       0.041574         1.1313

MULLIKEN ATOMIC CHARGES
-----------------------
   0 C :   -0.104410
   1 C :   -0.223456
   2 C :   -0.200581
   3 C :   -0.219312
   4 C :   -0.646691
   5 C :   -0.107532
   6 H :    0.245682
   7 H :    0.229134
   8 H :    0.234939
   9 H :    0.243552
  10 H :    0.228566
  11 Pd:    0.525956
  12 O :   -0.451602
  13 O :   -0.473942
  14 O :   -0.468239
  15 C :    0.367357
  16 O :   -0.476950
  17 H :    0.475243
  18 C :    0.407743
  19 H :    0.198331
  20 H :    0.216212
Sum of atomic charges:   -0.0000000

LOEWDIN ATOMIC CHARGES
----------------------
   0 C :   -0.055275
   1 C :   -0.138247
   2 C :   -0.085050
   3 C :   -0.135052
   4 C :   -0.194733
   5 C :   -0.051580
   6 H :    0.155212
   7 H :    0.141943
   8 H :    0.142280
   9 H :    0.155074
  10 H :    0.142025
  11 Pd:   -0.237176
  12 O :   -0.163943
  13 O :   -0.151835
  14 O :   -0.126642
  15 C :    0.134350
  16 O :   -0.274252
  17 H :    0.340416
  18 C :    0.159511
  19 H :    0.118166
  20 H :    0.124808

  Mayer bond orders larger than 0.100000
B(  0-C ,  1-C ) :   1.4492 B(  0-C ,  4-C ) :   1.2625 B(  0-C ,  6-H ) :   0.9066
B(  1-C ,  2-C ) :   1.4089 B(  1-C ,  7-H ) :   0.9157 B(  2-C ,  3-C ) :   1.3974
B(  2-C ,  8-H ) :   0.9149 B(  3-C ,  5-C ) :   1.4606 B(  3-C , 10-H ) :   0.9156
B(  4-C ,  5-C ) :   1.2785 B(  4-C , 11-Pd) :   0.5674 B(  4-C , 17-H ) :   0.3693
B(  5-C ,  9-H ) :   0.9104 B( 11-Pd, 12-O ) :   0.4635 B( 11-Pd, 13-O ) :   0.5614
B( 11-Pd, 14-O ) :   0.5334 B( 12-O , 13-O ) :   0.1165 B( 12-O , 18-C ) :   1.5343
B( 13-O , 18-C ) :   1.4319 B( 14-O , 15-C ) :   1.4839 B( 14-O , 16-O ) :   0.1124
B( 15-C , 16-O ) :   1.5820 B( 15-C , 20-H ) :   0.8763 B( 16-O , 17-H ) :   0.3327
B( 18-C , 19-H ) :   0.8866

Dispersion correction           -0.013262602
FINAL SINGLE POINT ENERGY      -737.120663370050
Dispersion correction            ... done

DIPOLE MOMENT
-------------
                                X             Y             Z
Electronic contribution:     51.47420      37.99840      -2.22237
Nuclear contribution   :    -52.03370     -38.71415       1.97850
                        -----------------------------------------
Total Dipole Moment    :     -0.55949      -0.71574      -0.24387
                        -----------------------------------------
Magnitude (a.u.)       :      0.94064
Magnitude (Debye)      :      2.39090

Rotational constants in cm-1:     0.028981     0.018870     0.013061
Rotational constants in MHz :   868.818989   565.702583   391.562968

                      ***********************HURRAY********************
                             ****ORCA TERMINATED NORMALLY****
TOTAL RUN TIME: 0 days 7 hours 24 minutes 19 seconds 155 msec
