                         Program Version 5.0.3 -  RELEASE  -
|  1> ! EnGrad PBEh-3c
|  2> %output
|  3> xyzfile=True
|  4> end
|  5> %scf
|  6> maxiter 250
|  7> end
|  8> %output
|  9> Print[P_Hirshfeld] = 1
| 10> end
| 11> % maxcore
| 12> 4000
| 13> *xyz 1 1
| 14> Sc   1.62705551  -1.44155952  -1.57660649
| 15> C    0.50830413  -0.74492076   0.24895767
| 16> N   -0.45120311  -1.41065058   0.91647384
| 17> C   -0.91068376  -0.67507741   1.97116611
| 18> C   -0.23727059   0.49677865   1.95014785
| 19> N    0.63678869   0.42512744   0.90338975
| 20> C    1.53440229   1.50779543   0.54806753
| 21> H    1.95440657   1.96662905   1.44017884
| 22> H    1.00797593   2.26608853  -0.02685974
| 23> H    2.37003358   1.12832900  -0.03588220
| 24> C   -0.96344321  -2.73197987   0.60061631
| 25> H   -0.35172125  -3.19931776  -0.16689516
| 26> H   -1.98659400  -2.66313677   0.23759722
| 27> H   -0.93503400  -3.36070048   1.48750812
| 28> H   -1.66911779  -1.03041030   2.64752984
| 29> H   -0.30742836   1.34808805   2.60525333
| 30> C   -0.39605441   1.63622984  -2.73317093
| 31> H   -0.79849949   1.11205406  -3.60088829
| 32> H   -0.71099122   2.67563333  -2.76645130
| 33> H   -0.78688935   1.18097282  -1.82574646
| 34> H    0.86598479   1.51404531  -2.82439487
| 35> *
| 36>
| 37>                          ****END OF INPUT****

CARTESIAN COORDINATES (ANGSTROEM)
---------------------------------
  Sc     1.627056   -1.441560   -1.576606
  C      0.508304   -0.744921    0.248958
  N     -0.451203   -1.410651    0.916474
  C     -0.910684   -0.675077    1.971166
  C     -0.237271    0.496779    1.950148
  N      0.636789    0.425127    0.903390
  C      1.534402    1.507795    0.548068
  H      1.954407    1.966629    1.440179
  H      1.007976    2.266089   -0.026860
  H      2.370034    1.128329   -0.035882
  C     -0.963443   -2.731980    0.600616
  H     -0.351721   -3.199318   -0.166895
  H     -1.986594   -2.663137    0.237597
  H     -0.935034   -3.360700    1.487508
  H     -1.669118   -1.030410    2.647530
  H     -0.307428    1.348088    2.605253
  C     -0.396054    1.636230   -2.733171
  H     -0.798499    1.112054   -3.600888
  H     -0.710991    2.675633   -2.766451
  H     -0.786889    1.180973   -1.825746
  H      0.865985    1.514045   -2.824395

 Total Charge           Charge          ....    1
 Multiplicity           Mult            ....    1
 Number of Electrons    NEL             ....   82
 Basis Dimension        Dim             ....  175

ORBITAL ENERGIES
----------------

  NO   OCC          E(Eh)            E(eV)
   0   2.0000    -162.909666     -4432.9974
   1   2.0000     -18.220175      -495.7962
   2   2.0000     -15.061194      -409.8359
   3   2.0000     -15.059283      -409.7839
   4   2.0000     -15.044470      -409.3808
   5   2.0000     -14.871028      -404.6613
   6   2.0000     -14.870760      -404.6540
   7   2.0000     -10.652416      -289.8670
   8   2.0000     -10.633446      -289.3508
   9   2.0000     -10.632309      -289.3199
  10   2.0000     -10.623536      -289.0811
  11   2.0000     -10.622829      -289.0619
  12   2.0000     -10.553594      -287.1779
  13   2.0000      -2.428533       -66.0837
  14   2.0000      -1.575815       -42.8801
  15   2.0000      -1.570224       -42.7280
  16   2.0000      -1.558816       -42.4175
  17   2.0000      -1.319681       -35.9103
  18   2.0000      -1.196070       -32.5467
  19   2.0000      -1.030146       -28.0317
  20   2.0000      -0.988497       -26.8984
  21   2.0000      -0.930974       -25.3331
  22   2.0000      -0.884035       -24.0558
  23   2.0000      -0.850400       -23.1406
  24   2.0000      -0.810529       -22.0556
  25   2.0000      -0.756709       -20.5911
  26   2.0000      -0.709758       -19.3135
  27   2.0000      -0.681263       -18.5381
  28   2.0000      -0.663723       -18.0608
  29   2.0000      -0.661231       -17.9930
  30   2.0000      -0.654689       -17.8150
  31   2.0000      -0.606778       -16.5113
  32   2.0000      -0.602107       -16.3842
  33   2.0000      -0.595462       -16.2034
  34   2.0000      -0.568980       -15.4827
  35   2.0000      -0.566126       -15.4051
  36   2.0000      -0.537507       -14.6263
  37   2.0000      -0.526436       -14.3250
  38   2.0000      -0.492059       -13.3896
  39   2.0000      -0.442452       -12.0397
  40   2.0000      -0.330532        -8.9942
  41   0.0000      -0.187731        -5.1084
  42   0.0000      -0.185450        -5.0464
  43   0.0000      -0.184802        -5.0287
  44   0.0000      -0.172252        -4.6872
  45   0.0000      -0.169038        -4.5998

MULLIKEN ATOMIC CHARGES
-----------------------
   0 Sc:    0.519415
   1 C :    0.207145
   2 N :   -0.412732
   3 C :   -0.061904
   4 C :   -0.062557
   5 N :   -0.416544
   6 C :   -0.525898
   7 H :    0.281717
   8 H :    0.283719
   9 H :    0.256385
  10 C :   -0.518796
  11 H :    0.254582
  12 H :    0.280240
  13 H :    0.279947
  14 H :    0.306221
  15 H :    0.306597
  16 C :   -0.874026
  17 H :    0.257067
  18 H :    0.268052
  19 H :    0.214857
  20 H :    0.156514
Sum of atomic charges:    1.0000000

LOEWDIN ATOMIC CHARGES
----------------------
   0 Sc:    0.366691
   1 C :   -0.048845
   2 N :    0.011424
   3 C :   -0.076935
   4 C :   -0.075121
   5 N :    0.010716
   6 C :   -0.238789
   7 H :    0.157407
   8 H :    0.154976
   9 H :    0.150996
  10 C :   -0.237092
  11 H :    0.150159
  12 H :    0.155303
  13 H :    0.156907
  14 H :    0.170276
  15 H :    0.170443
  16 C :   -0.513945
  17 H :    0.144035
  18 H :    0.150596
  19 H :    0.123635
  20 H :    0.117162

  Mayer bond orders larger than 0.100000
B(  0-Sc,  1-C ) :   0.6965 B(  1-C ,  2-N ) :   1.2271 B(  1-C ,  5-N ) :   1.2233
B(  2-N ,  3-C ) :   1.1615 B(  2-N , 10-C ) :   0.9100 B(  3-C ,  4-C ) :   1.6231
B(  3-C , 14-H ) :   0.8771 B(  4-C ,  5-N ) :   1.1604 B(  4-C , 15-H ) :   0.8770
B(  5-N ,  6-C ) :   0.9099 B(  6-C ,  7-H ) :   0.8967 B(  6-C ,  8-H ) :   0.8873
B(  6-C ,  9-H ) :   0.8971 B( 10-C , 11-H ) :   0.8935 B( 10-C , 12-H ) :   0.8924
B( 10-C , 13-H ) :   0.8951 B( 16-C , 17-H ) :   0.9143 B( 16-C , 18-H ) :   0.9110
B( 16-C , 19-H ) :   0.9187 B( 16-C , 20-H ) :   0.9404

Dispersion correction           -0.010986014
FINAL SINGLE POINT ENERGY     -1104.438068734757
Dispersion correction            ... done

DIPOLE MOMENT
-------------
                                X             Y             Z
Electronic contribution:      9.67512     -11.52664      -2.65982
Nuclear contribution   :     -9.47791      11.15725       2.63492
                        -----------------------------------------
Total Dipole Moment    :      0.19722      -0.36939      -0.02490
                        -----------------------------------------
Magnitude (a.u.)       :      0.41948
Magnitude (Debye)      :      1.06623

Rotational constants in cm-1:     0.040225     0.030714     0.023185
Rotational constants in MHz :  1205.927071   920.772677   695.059942

                             ****ORCA TERMINATED NORMALLY****
TOTAL RUN TIME: 0 days 0 hours 4 minutes 46 seconds 615 msec
