                         Program Version 5.0.3 -  RELEASE  -
|  1> ! EnGrad PBEh-3c
|  2> %output
|  3> xyzfile=True
|  4> end
|  5> %scf
|  6> maxiter 250
|  7> end
|  8> %output
|  9> Print[P_Hirshfeld] = 1
| 10> end
| 11> % maxcore
| 12> 4000
| 13> *xyz 1 1
| 14> Sc   1.54431080  -1.36188559  -1.63708329
| 15> C    0.48275604  -0.72069401   0.24247616
| 16> N   -0.45126969  -1.40944944   0.92462106
| 17> C   -0.88589973  -0.70289737   2.00922383
| 18> C   -0.21232671   0.46947339   2.00344651
| 19> N    0.61871464   0.43688394   0.91955351
| 20> C    1.50317219   1.53366204   0.56364109
| 21> H    1.85947416   2.01694401   1.47025413
| 22> H    0.98537829   2.26732325  -0.04963182
| 23> H    2.36572673   1.15948186   0.01799878
| 24> C   -0.96807661  -2.72386416   0.58866982
| 25> H   -0.40507024  -3.14880687  -0.23760836
| 26> H   -2.01245450  -2.65102490   0.29532692
| 27> H   -0.87803676  -3.38858114   1.44421891
| 28> H   -1.61887970  -1.08555009   2.69860224
| 29> H   -0.26487031   1.30867809   2.67735135
| 30> C   -0.31059322   1.58852906  -2.79165901
| 31> H   -0.79922545   1.08001970  -3.60139626
| 32> H   -0.56638273   2.65229694  -2.84450285
| 33> H   -0.69949707   1.19541405  -1.84845743
| 34> H    0.71383621   1.48680477  -2.84552930
| 35> *
| 36>
| 37>                          ****END OF INPUT****

CARTESIAN COORDINATES (ANGSTROEM)
---------------------------------
  Sc     1.544311   -1.361886   -1.637083
  C      0.482756   -0.720694    0.242476
  N     -0.451270   -1.409449    0.924621
  C     -0.885900   -0.702897    2.009224
  C     -0.212327    0.469473    2.003447
  N      0.618715    0.436884    0.919554
  C      1.503172    1.533662    0.563641
  H      1.859474    2.016944    1.470254
  H      0.985378    2.267323   -0.049632
  H      2.365727    1.159482    0.017999
  C     -0.968077   -2.723864    0.588670
  H     -0.405070   -3.148807   -0.237608
  H     -2.012455   -2.651025    0.295327
  H     -0.878037   -3.388581    1.444219
  H     -1.618880   -1.085550    2.698602
  H     -0.264870    1.308678    2.677351
  C     -0.310593    1.588529   -2.791659
  H     -0.799225    1.080020   -3.601396
  H     -0.566383    2.652297   -2.844503
  H     -0.699497    1.195414   -1.848457
  H      0.713836    1.486805   -2.845529

 Total Charge           Charge          ....    1
 Multiplicity           Mult            ....    1
 Number of Electrons    NEL             ....   82
 Basis Dimension        Dim             ....  175

ORBITAL ENERGIES
----------------

  NO   OCC          E(Eh)            E(eV)
   0   2.0000    -162.908585     -4432.9680
   1   2.0000     -18.218998      -495.7641
   2   2.0000     -15.060107      -409.8063
   3   2.0000     -15.057999      -409.7490
   4   2.0000     -15.043327      -409.3497
   5   2.0000     -14.870865      -404.6568
   6   2.0000     -14.870543      -404.6481
   7   2.0000     -10.652228      -289.8619
   8   2.0000     -10.633830      -289.3612
   9   2.0000     -10.632281      -289.3191
  10   2.0000     -10.623884      -289.0906
  11   2.0000     -10.623016      -289.0670
  12   2.0000     -10.530699      -286.5549
  13   2.0000      -2.427678       -66.0605
  14   2.0000      -1.575362       -42.8678
  15   2.0000      -1.569064       -42.6964
  16   2.0000      -1.558072       -42.3973
  17   2.0000      -1.318974       -35.8911
  18   2.0000      -1.195531       -32.5320
  19   2.0000      -1.029938       -28.0260
  20   2.0000      -0.988308       -26.8932
  21   2.0000      -0.931092       -25.3363
  22   2.0000      -0.904559       -24.6143
  23   2.0000      -0.850247       -23.1364
  24   2.0000      -0.810139       -22.0450
  25   2.0000      -0.756153       -20.5760
  26   2.0000      -0.709333       -19.3019
  27   2.0000      -0.680891       -18.5280
  28   2.0000      -0.663134       -18.0448
  29   2.0000      -0.660994       -17.9866
  30   2.0000      -0.655214       -17.8293
  31   2.0000      -0.607598       -16.5336
  32   2.0000      -0.603390       -16.4191
  33   2.0000      -0.595685       -16.2094
  34   2.0000      -0.584777       -15.9126
  35   2.0000      -0.567792       -15.4504
  36   2.0000      -0.563005       -15.3201
  37   2.0000      -0.526538       -14.3278
  38   2.0000      -0.492073       -13.3900
  39   2.0000      -0.442132       -12.0310
  40   2.0000      -0.330076        -8.9818
  41   0.0000      -0.187829        -5.1111
  42   0.0000      -0.185009        -5.0344
  43   0.0000      -0.184164        -5.0114
  44   0.0000      -0.171619        -4.6700
  45   0.0000      -0.168501        -4.5852

MULLIKEN ATOMIC CHARGES
-----------------------
   0 Sc:    0.518630
   1 C :    0.207854
   2 N :   -0.412285
   3 C :   -0.061314
   4 C :   -0.064048
   5 N :   -0.418047
   6 C :   -0.523401
   7 H :    0.280069
   8 H :    0.281476
   9 H :    0.259195
  10 C :   -0.519072
  11 H :    0.254456
  12 H :    0.280241
  13 H :    0.280149
  14 H :    0.306034
  15 H :    0.306266
  16 C :   -0.923088
  17 H :    0.257206
  18 H :    0.263237
  19 H :    0.205714
  20 H :    0.220728
Sum of atomic charges:    1.0000000

LOEWDIN ATOMIC CHARGES
----------------------
   0 Sc:    0.370735
   1 C :   -0.049241
   2 N :    0.011666
   3 C :   -0.077232
   4 C :   -0.074913
   5 N :    0.008912
   6 C :   -0.238022
   7 H :    0.157787
   8 H :    0.153372
   9 H :    0.151852
  10 C :   -0.237176
  11 H :    0.150129
  12 H :    0.155429
  13 H :    0.156685
  14 H :    0.170372
  15 H :    0.170163
  16 C :   -0.528796
  17 H :    0.146666
  18 H :    0.152688
  19 H :    0.124098
  20 H :    0.124828

  Mayer bond orders larger than 0.100000
B(  0-Sc,  1-C ) :   0.6981 B(  1-C ,  2-N ) :   1.2273 B(  1-C ,  5-N ) :   1.2219
B(  2-N ,  3-C ) :   1.1627 B(  2-N , 10-C ) :   0.9102 B(  3-C ,  4-C ) :   1.6228
B(  3-C , 14-H ) :   0.8772 B(  4-C ,  5-N ) :   1.1607 B(  4-C , 15-H ) :   0.8770
B(  5-N ,  6-C ) :   0.9081 B(  6-C ,  7-H ) :   0.8992 B(  6-C ,  8-H ) :   0.8877
B(  6-C ,  9-H ) :   0.8966 B( 10-C , 11-H ) :   0.8932 B( 10-C , 12-H ) :   0.8926
B( 10-C , 13-H ) :   0.8947 B( 16-C , 17-H ) :   0.9211 B( 16-C , 18-H ) :   0.9190
B( 16-C , 19-H ) :   0.9288 B( 16-C , 20-H ) :   0.9161

Dispersion correction           -0.011014417
FINAL SINGLE POINT ENERGY     -1104.451033261414
Dispersion correction            ... done

DIPOLE MOMENT
-------------
                                X             Y             Z
Electronic contribution:      9.27074     -11.04023      -2.95406
Nuclear contribution   :     -9.05791      10.72275       2.91617
                        -----------------------------------------
Total Dipole Moment    :      0.21284      -0.31748      -0.03790
                        -----------------------------------------
Magnitude (a.u.)       :      0.38409
Magnitude (Debye)      :      0.97628

Rotational constants in cm-1:     0.042011     0.030450     0.022992
Rotational constants in MHz :  1259.450745   912.865283   689.275533

                             ****ORCA TERMINATED NORMALLY****
TOTAL RUN TIME: 0 days 0 hours 4 minutes 44 seconds 286 msec
