                         Program Version 5.0.3 -  RELEASE  -
|  1> ! EnGrad PBEh-3c
|  2> %output
|  3> xyzfile=True
|  4> end
|  5> %scf
|  6> maxiter 250
|  7> end
|  8> %output
|  9> Print[P_Hirshfeld] = 1
| 10> end
| 11> % maxcore
| 12> 4000
| 13> *xyz 1 1
| 14> Sc   1.59516990  -1.41695162  -1.60019283
| 15> C    0.50662729  -0.74034438   0.24570110
| 16> N   -0.45185682  -1.41048866   0.91898951
| 17> C   -0.90653423  -0.68300549   1.98242026
| 18> C   -0.23082620   0.48606535   1.96934797
| 19> N    0.62643999   0.43311762   0.90721665
| 20> C    1.52943797   1.52386715   0.55117895
| 21> H    1.92728735   1.98656107   1.45022856
| 22> H    0.99751212   2.26756703  -0.03154601
| 23> H    2.36880455   1.13726213  -0.01073935
| 24> C   -0.96752202  -2.73078174   0.59493754
| 25> H   -0.37138330  -3.18336960  -0.19163115
| 26> H   -1.99795683  -2.66110161   0.25677198
| 27> H   -0.91602892  -3.36789216   1.47234227
| 28> H   -1.64413689  -1.05124490   2.66875478
| 29> H   -0.29596515   1.33469632   2.62770419
| 30> C   -0.20594151   1.58734545  -2.77688549
| 31> H   -0.81322394   1.10859816  -3.59425655
| 32> H   -0.66953566   2.67151796  -2.79174826
| 33> H   -0.77450582   1.18635960  -1.82684148
| 34> H    0.69422035   1.52223596  -2.82176596
| 35> *
| 36>
| 37>                          ****END OF INPUT****

CARTESIAN COORDINATES (ANGSTROEM)
---------------------------------
  Sc     1.595170   -1.416952   -1.600193
  C      0.506627   -0.740344    0.245701
  N     -0.451857   -1.410489    0.918990
  C     -0.906534   -0.683005    1.982420
  C     -0.230826    0.486065    1.969348
  N      0.626440    0.433118    0.907217
  C      1.529438    1.523867    0.551179
  H      1.927287    1.986561    1.450229
  H      0.997512    2.267567   -0.031546
  H      2.368805    1.137262   -0.010739
  C     -0.967522   -2.730782    0.594938
  H     -0.371383   -3.183370   -0.191631
  H     -1.997957   -2.661102    0.256772
  H     -0.916029   -3.367892    1.472342
  H     -1.644137   -1.051245    2.668755
  H     -0.295965    1.334696    2.627704
  C     -0.205942    1.587345   -2.776885
  H     -0.813224    1.108598   -3.594257
  H     -0.669536    2.671518   -2.791748
  H     -0.774506    1.186360   -1.826841
  H      0.694220    1.522236   -2.821766

 Total Charge           Charge          ....    1
 Multiplicity           Mult            ....    1
 Number of Electrons    NEL             ....   82
 Basis Dimension        Dim             ....  175

ORBITAL ENERGIES
----------------

  NO   OCC          E(Eh)            E(eV)
   0   2.0000    -162.908968     -4432.9784
   1   2.0000     -18.219446      -495.7763
   2   2.0000     -15.060500      -409.8170
   3   2.0000     -15.058493      -409.7624
   4   2.0000     -15.043772      -409.3619
   5   2.0000     -14.870433      -404.6451
   6   2.0000     -14.869834      -404.6287
   7   2.0000     -10.652505      -289.8694
   8   2.0000     -10.632907      -289.3361
   9   2.0000     -10.631373      -289.2944
  10   2.0000     -10.622768      -289.0602
  11   2.0000     -10.622663      -289.0573
  12   2.0000     -10.540570      -286.8235
  13   2.0000      -2.427969       -66.0684
  14   2.0000      -1.575422       -42.8694
  15   2.0000      -1.569526       -42.7090
  16   2.0000      -1.558351       -42.4049
  17   2.0000      -1.316578       -35.8259
  18   2.0000      -1.193093       -32.4657
  19   2.0000      -1.029038       -28.0016
  20   2.0000      -0.986821       -26.8528
  21   2.0000      -0.930895       -25.3310
  22   2.0000      -0.903496       -24.5854
  23   2.0000      -0.848404       -23.0862
  24   2.0000      -0.809919       -22.0390
  25   2.0000      -0.755674       -20.5629
  26   2.0000      -0.708001       -19.2657
  27   2.0000      -0.679908       -18.5012
  28   2.0000      -0.661708       -18.0060
  29   2.0000      -0.660911       -17.9843
  30   2.0000      -0.654270       -17.8036
  31   2.0000      -0.629815       -17.1381
  32   2.0000      -0.607286       -16.5251
  33   2.0000      -0.602724       -16.4009
  34   2.0000      -0.595694       -16.2097
  35   2.0000      -0.540777       -14.7153
  36   2.0000      -0.532820       -14.4988
  37   2.0000      -0.522951       -14.2302
  38   2.0000      -0.491556       -13.3759
  39   2.0000      -0.441501       -12.0138
  40   2.0000      -0.330364        -8.9897
  41   0.0000      -0.187887        -5.1127
  42   0.0000      -0.185076        -5.0362
  43   0.0000      -0.184384        -5.0173
  44   0.0000      -0.171771        -4.6741
  45   0.0000      -0.168234        -4.5779

MULLIKEN ATOMIC CHARGES
-----------------------
   0 Sc:    0.523068
   1 C :    0.206148
   2 N :   -0.415614
   3 C :   -0.059956
   4 C :   -0.061786
   5 N :   -0.422202
   6 C :   -0.521183
   7 H :    0.281200
   8 H :    0.283273
   9 H :    0.257113
  10 C :   -0.517877
  11 H :    0.254122
  12 H :    0.280106
  13 H :    0.279800
  14 H :    0.305908
  15 H :    0.305763
  16 C :   -0.929863
  17 H :    0.252335
  18 H :    0.247326
  19 H :    0.190447
  20 H :    0.261872
Sum of atomic charges:    1.0000000

LOEWDIN ATOMIC CHARGES
----------------------
   0 Sc:    0.372885
   1 C :   -0.047379
   2 N :    0.010220
   3 C :   -0.077587
   4 C :   -0.074730
   5 N :    0.007903
   6 C :   -0.236188
   7 H :    0.157455
   8 H :    0.154798
   9 H :    0.150922
  10 C :   -0.236707
  11 H :    0.149953
  12 H :    0.155226
  13 H :    0.156480
  14 H :    0.169806
  15 H :    0.169863
  16 C :   -0.532962
  17 H :    0.150096
  18 H :    0.154911
  19 H :    0.126288
  20 H :    0.118747

  Mayer bond orders larger than 0.100000
B(  0-Sc,  1-C ) :   0.6982 B(  1-C ,  2-N ) :   1.2262 B(  1-C ,  5-N ) :   1.2215
B(  2-N ,  3-C ) :   1.1605 B(  2-N , 10-C ) :   0.9097 B(  3-C ,  4-C ) :   1.6216
B(  3-C , 14-H ) :   0.8773 B(  4-C ,  5-N ) :   1.1617 B(  4-C , 15-H ) :   0.8775
B(  5-N ,  6-C ) :   0.9058 B(  6-C ,  7-H ) :   0.8980 B(  6-C ,  8-H ) :   0.8877
B(  6-C ,  9-H ) :   0.8974 B( 10-C , 11-H ) :   0.8935 B( 10-C , 12-H ) :   0.8927
B( 10-C , 13-H ) :   0.8952 B( 16-C , 17-H ) :   0.9221 B( 16-C , 18-H ) :   0.9254
B( 16-C , 19-H ) :   0.9351 B( 16-C , 20-H ) :   0.9014

Dispersion correction           -0.011009491
FINAL SINGLE POINT ENERGY     -1104.405036769737
Dispersion correction            ... done

DIPOLE MOMENT
-------------
                                X             Y             Z
Electronic contribution:      9.71791     -11.40454      -2.82736
Nuclear contribution   :     -9.55755      11.06444       2.79714
                        -----------------------------------------
Total Dipole Moment    :      0.16036      -0.34010      -0.03021
                        -----------------------------------------
Magnitude (a.u.)       :      0.37722
Magnitude (Debye)      :      0.95881

Rotational constants in cm-1:     0.041464     0.030712     0.022999
Rotational constants in MHz :  1243.072469   920.736032   689.505274

                             ****ORCA TERMINATED NORMALLY****
TOTAL RUN TIME: 0 days 0 hours 4 minutes 39 seconds 436 msec
