                         Program Version 5.0.3 -  RELEASE  -
|  1> ! EnGrad PBEh-3c
|  2> %output
|  3> xyzfile=True
|  4> end
|  5> %scf
|  6> maxiter 250
|  7> end
|  8> %output
|  9> Print[P_Hirshfeld] = 1
| 10> end
| 11> % maxcore
| 12> 4000
| 13> *xyz 1 1
| 14> Sc   1.58124637  -1.40609312  -1.61013531
| 15> C    0.50277852  -0.73576270   0.24668465
| 16> N   -0.45048010  -1.41048125   0.91936546
| 17> C   -0.90372815  -0.68709126   1.98628833
| 18> C   -0.22713262   0.48225290   1.97739765
| 19> N    0.62470188   0.43540858   0.90816463
| 20> C    1.52352320   1.52849584   0.55528664
| 21> H    1.91414049   1.99588012   1.45539161
| 22> H    0.99318617   2.26911275  -0.03531362
| 23> H    2.37004745   1.14075486  -0.00124721
| 24> C   -0.96879830  -2.72904559   0.59303131
| 25> H   -0.37998905  -3.17618098  -0.20328964
| 26> H   -2.00356376  -2.66002298   0.26538311
| 27> H   -0.90743857  -3.37192479   1.46610563
| 28> H   -1.63481818  -1.06102589   2.67906452
| 29> H   -0.29074551   1.32874215   2.63826606
| 30> C   -0.32439047   1.59217648  -2.77588622
| 31> H   -0.80503484   1.10997928  -3.58583030
| 32> H   -0.63081031   2.64763648  -2.80374240
| 33> H   -0.74768361   1.19476080  -1.84547010
| 34> H    0.76507078   1.51254819  -2.82958152
| 35> *
| 36>
| 37>                          ****END OF INPUT****

CARTESIAN COORDINATES (ANGSTROEM)
---------------------------------
  Sc     1.581246   -1.406093   -1.610135
  C      0.502779   -0.735763    0.246685
  N     -0.450480   -1.410481    0.919365
  C     -0.903728   -0.687091    1.986288
  C     -0.227133    0.482253    1.977398
  N      0.624702    0.435409    0.908165
  C      1.523523    1.528496    0.555287
  H      1.914140    1.995880    1.455392
  H      0.993186    2.269113   -0.035314
  H      2.370047    1.140755   -0.001247
  C     -0.968798   -2.729046    0.593031
  H     -0.379989   -3.176181   -0.203290
  H     -2.003564   -2.660023    0.265383
  H     -0.907439   -3.371925    1.466106
  H     -1.634818   -1.061026    2.679065
  H     -0.290746    1.328742    2.638266
  C     -0.324390    1.592176   -2.775886
  H     -0.805035    1.109979   -3.585830
  H     -0.630810    2.647636   -2.803742
  H     -0.747684    1.194761   -1.845470
  H      0.765071    1.512548   -2.829582

 Total Charge           Charge          ....    1
 Multiplicity           Mult            ....    1
 Number of Electrons    NEL             ....   82
 Basis Dimension        Dim             ....  175

ORBITAL ENERGIES
----------------

  NO   OCC          E(Eh)            E(eV)
   0   2.0000    -162.908720     -4432.9716
   1   2.0000     -18.219179      -495.7691
   2   2.0000     -15.060256      -409.8104
   3   2.0000     -15.058212      -409.7548
   4   2.0000     -15.043498      -409.3544
   5   2.0000     -14.870824      -404.6557
   6   2.0000     -14.870361      -404.6431
   7   2.0000     -10.652717      -289.8752
   8   2.0000     -10.633350      -289.3482
   9   2.0000     -10.631885      -289.3083
  10   2.0000     -10.623628      -289.0836
  11   2.0000     -10.623173      -289.0712
  12   2.0000     -10.535054      -286.6734
  13   2.0000      -2.427781       -66.0633
  14   2.0000      -1.575323       -42.8667
  15   2.0000      -1.569275       -42.7021
  16   2.0000      -1.558170       -42.4000
  17   2.0000      -1.317316       -35.8460
  18   2.0000      -1.193862       -32.4866
  19   2.0000      -1.029253       -28.0074
  20   2.0000      -0.987511       -26.8716
  21   2.0000      -0.930871       -25.3303
  22   2.0000      -0.897889       -24.4328
  23   2.0000      -0.849213       -23.1083
  24   2.0000      -0.809922       -22.0391
  25   2.0000      -0.755855       -20.5678
  26   2.0000      -0.708587       -19.2816
  27   2.0000      -0.680342       -18.5130
  28   2.0000      -0.662186       -18.0190
  29   2.0000      -0.661297       -17.9948
  30   2.0000      -0.654768       -17.8171
  31   2.0000      -0.607175       -16.5221
  32   2.0000      -0.603077       -16.4106
  33   2.0000      -0.596301       -16.2262
  34   2.0000      -0.578018       -15.7287
  35   2.0000      -0.567402       -15.4398
  36   2.0000      -0.556984       -15.1563
  37   2.0000      -0.526666       -14.3313
  38   2.0000      -0.491946       -13.3865
  39   2.0000      -0.442105       -12.0303
  40   2.0000      -0.330156        -8.9840
  41   0.0000      -0.187827        -5.1110
  42   0.0000      -0.184986        -5.0337
  43   0.0000      -0.184211        -5.0126
  44   0.0000      -0.171647        -4.6708
  45   0.0000      -0.168407        -4.5826

MULLIKEN ATOMIC CHARGES
-----------------------
   0 Sc:    0.521147
   1 C :    0.207373
   2 N :   -0.414510
   3 C :   -0.059944
   4 C :   -0.062612
   5 N :   -0.422216
   6 C :   -0.521130
   7 H :    0.281381
   8 H :    0.282364
   9 H :    0.257528
  10 C :   -0.518088
  11 H :    0.254239
  12 H :    0.280465
  13 H :    0.279902
  14 H :    0.305995
  15 H :    0.305965
  16 C :   -0.916363
  17 H :    0.263388
  18 H :    0.261838
  19 H :    0.207435
  20 H :    0.205842
Sum of atomic charges:    1.0000000

LOEWDIN ATOMIC CHARGES
----------------------
   0 Sc:    0.370087
   1 C :   -0.047798
   2 N :    0.010619
   3 C :   -0.077344
   4 C :   -0.074569
   5 N :    0.007508
   6 C :   -0.236408
   7 H :    0.157750
   8 H :    0.154286
   9 H :    0.151407
  10 C :   -0.236773
  11 H :    0.150037
  12 H :    0.155531
  13 H :    0.156513
  14 H :    0.170149
  15 H :    0.169865
  16 C :   -0.529536
  17 H :    0.145396
  18 H :    0.151274
  19 H :    0.124405
  20 H :    0.127599

  Mayer bond orders larger than 0.100000
B(  0-Sc,  1-C ) :   0.6975 B(  1-C ,  2-N ) :   1.2269 B(  1-C ,  5-N ) :   1.2222
B(  2-N ,  3-C ) :   1.1602 B(  2-N , 10-C ) :   0.9095 B(  3-C ,  4-C ) :   1.6235
B(  3-C , 14-H ) :   0.8772 B(  4-C ,  5-N ) :   1.1598 B(  4-C , 15-H ) :   0.8774
B(  5-N ,  6-C ) :   0.9059 B(  6-C ,  7-H ) :   0.8979 B(  6-C ,  8-H ) :   0.8883
B(  6-C ,  9-H ) :   0.8974 B( 10-C , 11-H ) :   0.8934 B( 10-C , 12-H ) :   0.8925
B( 10-C , 13-H ) :   0.8950 B( 16-C , 17-H ) :   0.9154 B( 16-C , 18-H ) :   0.9180
B( 16-C , 19-H ) :   0.9269 B( 16-C , 20-H ) :   0.9258

Dispersion correction           -0.010997135
FINAL SINGLE POINT ENERGY     -1104.452250080990
Dispersion correction            ... done

DIPOLE MOMENT
-------------
                                X             Y             Z
Electronic contribution:      9.49061     -11.31627      -2.85706
Nuclear contribution   :     -9.28367      10.98270       2.83064
                        -----------------------------------------
Total Dipole Moment    :      0.20694      -0.33356      -0.02642
                        -----------------------------------------
Magnitude (a.u.)       :      0.39343
Magnitude (Debye)      :      1.00001

Rotational constants in cm-1:     0.041189     0.030584     0.023059
Rotational constants in MHz :  1234.810317   916.895555   691.287530

                             ****ORCA TERMINATED NORMALLY****
TOTAL RUN TIME: 0 days 0 hours 4 minutes 39 seconds 714 msec
