                         Program Version 5.0.3 -  RELEASE  -
|  1> ! EnGrad PBEh-3c
|  2> %output
|  3> xyzfile=True
|  4> end
|  5> %scf
|  6> maxiter 250
|  7> end
|  8> %output
|  9> Print[P_Hirshfeld] = 1
| 10> end
| 11> % maxcore
| 12> 4000
| 13> *xyz 1 1
| 14> Sc   1.57425879  -1.40006701  -1.61505967
| 15> C    0.49909734  -0.73163504   0.24770972
| 16> N   -0.44930110  -1.41052791   0.91956644
| 17> C   -0.90125997  -0.68944007   1.98814563
| 18> C   -0.22442907   0.48069659   1.98030400
| 19> N    0.62511497   0.43562152   0.90981297
| 20> C    1.51845161   1.52869887   0.55831872
| 21> H    1.90611352   2.00069330   1.45870376
| 22> H    0.99152886   2.27062590  -0.03840432
| 23> H    2.37115660   1.14273423   0.00234983
| 24> C   -0.96880815  -2.72754341   0.59214092
| 25> H   -0.38449026  -3.17224041  -0.20960558
| 26> H   -2.00655054  -2.65918969   0.26999372
| 27> H   -0.90289793  -3.37469095   1.46321497
| 28> H   -1.63129249  -1.06638287   2.68454268
| 29> H   -0.28762653   1.32573612   2.64436983
| 30> C   -0.35980046   1.60565299  -2.76244071
| 31> H   -0.80689323   1.10164139  -3.59582262
| 32> H   -0.60834633   2.63482015  -2.81096846
| 33> H   -0.73184285   1.19712015  -1.85432074
| 34> H    0.77785832   1.50793647  -2.83263912
| 35> *
| 36>
| 37>                          ****END OF INPUT****

CARTESIAN COORDINATES (ANGSTROEM)
---------------------------------
  Sc     1.574259   -1.400067   -1.615060
  C      0.499097   -0.731635    0.247710
  N     -0.449301   -1.410528    0.919566
  C     -0.901260   -0.689440    1.988146
  C     -0.224429    0.480697    1.980304
  N      0.625115    0.435622    0.909813
  C      1.518452    1.528699    0.558319
  H      1.906114    2.000693    1.458704
  H      0.991529    2.270626   -0.038404
  H      2.371157    1.142734    0.002350
  C     -0.968808   -2.727543    0.592141
  H     -0.384490   -3.172240   -0.209606
  H     -2.006551   -2.659190    0.269994
  H     -0.902898   -3.374691    1.463215
  H     -1.631292   -1.066383    2.684543
  H     -0.287627    1.325736    2.644370
  C     -0.359800    1.605653   -2.762441
  H     -0.806893    1.101641   -3.595823
  H     -0.608346    2.634820   -2.810968
  H     -0.731843    1.197120   -1.854321
  H      0.777858    1.507936   -2.832639

 Total Charge           Charge          ....    1
 Multiplicity           Mult            ....    1
 Number of Electrons    NEL             ....   82
 Basis Dimension        Dim             ....  175

ORBITAL ENERGIES
----------------

  NO   OCC          E(Eh)            E(eV)
   0   2.0000    -162.908750     -4432.9724
   1   2.0000     -18.219192      -495.7694
   2   2.0000     -15.060274      -409.8109
   3   2.0000     -15.058229      -409.7552
   4   2.0000     -15.043505      -409.3546
   5   2.0000     -14.871022      -404.6611
   6   2.0000     -14.870637      -404.6506
   7   2.0000     -10.652550      -289.8706
   8   2.0000     -10.633521      -289.3528
   9   2.0000     -10.632210      -289.3171
  10   2.0000     -10.624163      -289.0982
  11   2.0000     -10.623580      -289.0823
  12   2.0000     -10.534458      -286.6572
  13   2.0000      -2.427772       -66.0630
  14   2.0000      -1.575329       -42.8669
  15   2.0000      -1.569258       -42.7017
  16   2.0000      -1.558126       -42.3988
  17   2.0000      -1.318555       -35.8797
  18   2.0000      -1.195091       -32.5201
  19   2.0000      -1.029485       -28.0137
  20   2.0000      -0.988085       -26.8872
  21   2.0000      -0.930765       -25.3274
  22   2.0000      -0.899211       -24.4688
  23   2.0000      -0.849976       -23.1290
  24   2.0000      -0.809946       -22.0398
  25   2.0000      -0.755988       -20.5715
  26   2.0000      -0.709213       -19.2987
  27   2.0000      -0.680645       -18.5213
  28   2.0000      -0.662931       -18.0393
  29   2.0000      -0.661202       -17.9922
  30   2.0000      -0.654877       -17.8201
  31   2.0000      -0.606724       -16.5098
  32   2.0000      -0.602784       -16.4026
  33   2.0000      -0.595939       -16.2163
  34   2.0000      -0.575730       -15.6664
  35   2.0000      -0.568316       -15.4647
  36   2.0000      -0.561266       -15.2728
  37   2.0000      -0.526397       -14.3240
  38   2.0000      -0.492179       -13.3929
  39   2.0000      -0.442273       -12.0349
  40   2.0000      -0.330061        -8.9814
  41   0.0000      -0.187630        -5.1057
  42   0.0000      -0.184959        -5.0330
  43   0.0000      -0.184192        -5.0121
  44   0.0000      -0.171588        -4.6691
  45   0.0000      -0.168566        -4.5869

MULLIKEN ATOMIC CHARGES
-----------------------
   0 Sc:    0.519109
   1 C :    0.208254
   2 N :   -0.413046
   3 C :   -0.060892
   4 C :   -0.063534
   5 N :   -0.419480
   6 C :   -0.522597
   7 H :    0.281370
   8 H :    0.281966
   9 H :    0.257545
  10 C :   -0.518570
  11 H :    0.254421
  12 H :    0.280525
  13 H :    0.279950
  14 H :    0.305973
  15 H :    0.306163
  16 C :   -0.910876
  17 H :    0.258043
  18 H :    0.271654
  19 H :    0.216572
  20 H :    0.187450
Sum of atomic charges:    1.0000000

LOEWDIN ATOMIC CHARGES
----------------------
   0 Sc:    0.368878
   1 C :   -0.048568
   2 N :    0.011091
   3 C :   -0.077436
   4 C :   -0.074890
   5 N :    0.008499
   6 C :   -0.237357
   7 H :    0.157846
   8 H :    0.154153
   9 H :    0.151688
  10 C :   -0.236998
  11 H :    0.150099
  12 H :    0.155674
  13 H :    0.156637
  14 H :    0.170478
  15 H :    0.170017
  16 C :   -0.523587
  17 H :    0.145647
  18 H :    0.149999
  19 H :    0.124206
  20 H :    0.123924

  Mayer bond orders larger than 0.100000
B(  0-Sc,  1-C ) :   0.6974 B(  1-C ,  2-N ) :   1.2272 B(  1-C ,  5-N ) :   1.2232
B(  2-N ,  3-C ) :   1.1605 B(  2-N , 10-C ) :   0.9095 B(  3-C ,  4-C ) :   1.6242
B(  3-C , 14-H ) :   0.8772 B(  4-C ,  5-N ) :   1.1596 B(  4-C , 15-H ) :   0.8772
B(  5-N ,  6-C ) :   0.9071 B(  6-C ,  7-H ) :   0.8978 B(  6-C ,  8-H ) :   0.8881
B(  6-C ,  9-H ) :   0.8973 B( 10-C , 11-H ) :   0.8932 B( 10-C , 12-H ) :   0.8924
B( 10-C , 13-H ) :   0.8948 B( 16-C , 17-H ) :   0.9190 B( 16-C , 18-H ) :   0.9124
B( 16-C , 19-H ) :   0.9223 B( 16-C , 20-H ) :   0.9328

Dispersion correction           -0.010994031
FINAL SINGLE POINT ENERGY     -1104.450990706789
Dispersion correction            ... done

DIPOLE MOMENT
-------------
                                X             Y             Z
Electronic contribution:      9.39833     -11.25599      -2.85406
Nuclear contribution   :     -9.18402      10.92230       2.82473
                        -----------------------------------------
Total Dipole Moment    :      0.21432      -0.33369      -0.02934
                        -----------------------------------------
Magnitude (a.u.)       :      0.39767
Magnitude (Debye)      :      1.01079

Rotational constants in cm-1:     0.041133     0.030586     0.023081
Rotational constants in MHz :  1233.136515   916.950822   691.962575

                             ****ORCA TERMINATED NORMALLY****
TOTAL RUN TIME: 0 days 0 hours 4 minutes 41 seconds 404 msec
