                         Program Version 5.0.3 -  RELEASE  -
|  1> ! EnGrad PBEh-3c
|  2> %output
|  3> xyzfile=True
|  4> end
|  5> %scf
|  6> maxiter 250
|  7> end
|  8> %output
|  9> Print[P_Hirshfeld] = 1
| 10> end
| 11> % maxcore
| 12> 4000
| 13> *xyz 1 1
| 14> Sc   1.56290489  -1.39018234  -1.62312740
| 15> C    0.49571879  -0.72739148   0.24668606
| 16> N   -0.44876471  -1.41034192   0.92061659
| 17> C   -0.89828434  -0.69290866   1.99280452
| 18> C   -0.22122525   0.47774279   1.98612136
| 19> N    0.62378609   0.43686935   0.91333114
| 20> C    1.51371180   1.53130255   0.56066265
| 21> H    1.89348217   2.00781170   1.46343413
| 22> H    0.98888437   2.27198318  -0.04203772
| 23> H    2.37106536   1.14651283   0.00947329
| 24> C   -0.96933957  -2.72629141   0.59038925
| 25> H   -0.39173739  -3.16591532  -0.21937834
| 26> H   -2.01068193  -2.65781750   0.27745710
| 27> H   -0.89561534  -3.37850628   1.45804400
| 28> H   -1.62422432  -1.07434804   2.69219022
| 29> H   -0.28254229   1.32063170   2.65363919
| 30> C   -0.35731784   1.60069712  -2.76906465
| 31> H   -0.80975002   1.09332688  -3.60342101
| 32> H   -0.58312105   2.63609164  -2.82209823
| 33> H   -0.71785232   1.19549589  -1.85199885
| 34> H    0.76095372   1.50568312  -2.83383893
| 35> *
| 36>
| 37>                          ****END OF INPUT****

CARTESIAN COORDINATES (ANGSTROEM)
---------------------------------
  Sc     1.562905   -1.390182   -1.623127
  C      0.495719   -0.727391    0.246686
  N     -0.448765   -1.410342    0.920617
  C     -0.898284   -0.692909    1.992805
  C     -0.221225    0.477743    1.986121
  N      0.623786    0.436869    0.913331
  C      1.513712    1.531303    0.560663
  H      1.893482    2.007812    1.463434
  H      0.988884    2.271983   -0.042038
  H      2.371065    1.146513    0.009473
  C     -0.969340   -2.726291    0.590389
  H     -0.391737   -3.165915   -0.219378
  H     -2.010682   -2.657817    0.277457
  H     -0.895615   -3.378506    1.458044
  H     -1.624224   -1.074348    2.692190
  H     -0.282542    1.320632    2.653639
  C     -0.357318    1.600697   -2.769065
  H     -0.809750    1.093327   -3.603421
  H     -0.583121    2.636092   -2.822098
  H     -0.717852    1.195496   -1.851999
  H      0.760954    1.505683   -2.833839

 Total Charge           Charge          ....    1
 Multiplicity           Mult            ....    1
 Number of Electrons    NEL             ....   82
 Basis Dimension        Dim             ....  175

ORBITAL ENERGIES
----------------

  NO   OCC          E(Eh)            E(eV)
   0   2.0000    -162.908605     -4432.9685
   1   2.0000     -18.219035      -495.7652
   2   2.0000     -15.060132      -409.8070
   3   2.0000     -15.058053      -409.7505
   4   2.0000     -15.043355      -409.3505
   5   2.0000     -14.871113      -404.6636
   6   2.0000     -14.870739      -404.6534
   7   2.0000     -10.652535      -289.8702
   8   2.0000     -10.633627      -289.3557
   9   2.0000     -10.632338      -289.3206
  10   2.0000     -10.624563      -289.1091
  11   2.0000     -10.623745      -289.0868
  12   2.0000     -10.533668      -286.6357
  13   2.0000      -2.427647       -66.0596
  14   2.0000      -1.575264       -42.8651
  15   2.0000      -1.569074       -42.6967
  16   2.0000      -1.558016       -42.3958
  17   2.0000      -1.318747       -35.8849
  18   2.0000      -1.195348       -32.5271
  19   2.0000      -1.029474       -28.0134
  20   2.0000      -0.988077       -26.8869
  21   2.0000      -0.930712       -25.3260
  22   2.0000      -0.900359       -24.5000
  23   2.0000      -0.850036       -23.1307
  24   2.0000      -0.809938       -22.0395
  25   2.0000      -0.755930       -20.5699
  26   2.0000      -0.709244       -19.2995
  27   2.0000      -0.680617       -18.5205
  28   2.0000      -0.663112       -18.0442
  29   2.0000      -0.660971       -17.9859
  30   2.0000      -0.654832       -17.8189
  31   2.0000      -0.606664       -16.5082
  32   2.0000      -0.602787       -16.4027
  33   2.0000      -0.595735       -16.2108
  34   2.0000      -0.576744       -15.6940
  35   2.0000      -0.568419       -15.4675
  36   2.0000      -0.563121       -15.3233
  37   2.0000      -0.526409       -14.3243
  38   2.0000      -0.492265       -13.3952
  39   2.0000      -0.442165       -12.0319
  40   2.0000      -0.329947        -8.9783
  41   0.0000      -0.187622        -5.1054
  42   0.0000      -0.184873        -5.0307
  43   0.0000      -0.184080        -5.0091
  44   0.0000      -0.171481        -4.6662
  45   0.0000      -0.168524        -4.5858

MULLIKEN ATOMIC CHARGES
-----------------------
   0 Sc:    0.518480
   1 C :    0.208220
   2 N :   -0.412759
   3 C :   -0.061106
   4 C :   -0.063715
   5 N :   -0.418458
   6 C :   -0.522846
   7 H :    0.281020
   8 H :    0.281347
   9 H :    0.258038
  10 C :   -0.518682
  11 H :    0.254484
  12 H :    0.280512
  13 H :    0.279898
  14 H :    0.305972
  15 H :    0.306194
  16 C :   -0.912998
  17 H :    0.256917
  18 H :    0.271504
  19 H :    0.215479
  20 H :    0.192498
Sum of atomic charges:    1.0000000

LOEWDIN ATOMIC CHARGES
----------------------
   0 Sc:    0.368878
   1 C :   -0.048800
   2 N :    0.011176
   3 C :   -0.077502
   4 C :   -0.075017
   5 N :    0.008748
   6 C :   -0.237641
   7 H :    0.157917
   8 H :    0.153894
   9 H :    0.151884
  10 C :   -0.237121
  11 H :    0.150121
  12 H :    0.155751
  13 H :    0.156657
  14 H :    0.170608
  15 H :    0.170020
  16 C :   -0.524166
  17 H :    0.146274
  18 H :    0.150289
  19 H :    0.124118
  20 H :    0.123913

  Mayer bond orders larger than 0.100000
B(  0-Sc,  1-C ) :   0.6974 B(  1-C ,  2-N ) :   1.2270 B(  1-C ,  5-N ) :   1.2227
B(  2-N ,  3-C ) :   1.1610 B(  2-N , 10-C ) :   0.9094 B(  3-C ,  4-C ) :   1.6233
B(  3-C , 14-H ) :   0.8772 B(  4-C ,  5-N ) :   1.1607 B(  4-C , 15-H ) :   0.8772
B(  5-N ,  6-C ) :   0.9074 B(  6-C ,  7-H ) :   0.8981 B(  6-C ,  8-H ) :   0.8882
B(  6-C ,  9-H ) :   0.8972 B( 10-C , 11-H ) :   0.8930 B( 10-C , 12-H ) :   0.8923
B( 10-C , 13-H ) :   0.8947 B( 16-C , 17-H ) :   0.9203 B( 16-C , 18-H ) :   0.9126
B( 16-C , 19-H ) :   0.9231 B( 16-C , 20-H ) :   0.9300

Dispersion correction           -0.010998066
FINAL SINGLE POINT ENERGY     -1104.452122693639
Dispersion correction            ... done

DIPOLE MOMENT
-------------
                                X             Y             Z
Electronic contribution:      9.33304     -11.19088      -2.89266
Nuclear contribution   :     -9.11373      10.86509       2.86100
                        -----------------------------------------
Total Dipole Moment    :      0.21931      -0.32579      -0.03166
                        -----------------------------------------
Magnitude (a.u.)       :      0.39400
Magnitude (Debye)      :      1.00148

Rotational constants in cm-1:     0.041326     0.030549     0.023061
Rotational constants in MHz :  1238.921277   915.845944   691.339086

                             ****ORCA TERMINATED NORMALLY****
TOTAL RUN TIME: 0 days 0 hours 4 minutes 42 seconds 685 msec
