                         Program Version 5.0.3 -  RELEASE  -
|  1> ! EnGrad PBEh-3c
|  2> %output
|  3> xyzfile=True
|  4> end
|  5> %scf
|  6> maxiter 250
|  7> end
|  8> %output
|  9> Print[P_Hirshfeld] = 1
| 10> end
| 11> % maxcore
| 12> 4000
| 13> *xyz 1 1
| 14> Sc   1.55348374  -1.38005613  -1.62951909
| 15> C    0.49068838  -0.72304133   0.24391511
| 16> N   -0.44877161  -1.40919416   0.92197908
| 17> C   -0.89357319  -0.69654384   1.99975758
| 18> C   -0.21989390   0.47620401   1.99172797
| 19> N    0.62466523   0.43589269   0.91874943
| 20> C    1.50919548   1.53244080   0.56246884
| 21> H    1.87890506   2.01244595   1.46699381
| 22> H    0.98862155   2.27223236  -0.04567984
| 23> H    2.36906409   1.15141920   0.01413968
| 24> C   -0.96930266  -2.72570331   0.58928953
| 25> H   -0.39806239  -3.15965259  -0.22815764
| 26> H   -2.01260736  -2.65553887   0.28476659
| 27> H   -0.88883487  -3.38256510   1.45293329
| 28> H   -1.61960699  -1.08060760   2.69678003
| 29> H   -0.27658698   1.31538496   2.66247476
| 30> C   -0.39356578   1.59305423  -2.78322539
| 31> H   -0.80925130   1.07997692  -3.61679078
| 32> H   -0.56131937   2.66026407  -2.83380747
| 33> H   -0.70494594   1.18524051  -1.83247965
| 34> H    0.78182530   1.49924455  -2.83649741
| 35> *
| 36>
| 37>                          ****END OF INPUT****

CARTESIAN COORDINATES (ANGSTROEM)
---------------------------------
  Sc     1.553484   -1.380056   -1.629519
  C      0.490688   -0.723041    0.243915
  N     -0.448772   -1.409194    0.921979
  C     -0.893573   -0.696544    1.999758
  C     -0.219894    0.476204    1.991728
  N      0.624665    0.435893    0.918749
  C      1.509195    1.532441    0.562469
  H      1.878905    2.012446    1.466994
  H      0.988622    2.272232   -0.045680
  H      2.369064    1.151419    0.014140
  C     -0.969303   -2.725703    0.589290
  H     -0.398062   -3.159653   -0.228158
  H     -2.012607   -2.655539    0.284767
  H     -0.888835   -3.382565    1.452933
  H     -1.619607   -1.080608    2.696780
  H     -0.276587    1.315385    2.662475
  C     -0.393566    1.593054   -2.783225
  H     -0.809251    1.079977   -3.616791
  H     -0.561319    2.660264   -2.833807
  H     -0.704946    1.185241   -1.832480
  H      0.781825    1.499245   -2.836497

 Total Charge           Charge          ....    1
 Multiplicity           Mult            ....    1
 Number of Electrons    NEL             ....   82
 Basis Dimension        Dim             ....  175

ORBITAL ENERGIES
----------------

  NO   OCC          E(Eh)            E(eV)
   0   2.0000    -162.908131     -4432.9556
   1   2.0000     -18.218563      -495.7523
   2   2.0000     -15.059688      -409.7949
   3   2.0000     -15.057525      -409.7361
   4   2.0000     -15.042911      -409.3384
   5   2.0000     -14.871089      -404.6629
   6   2.0000     -14.870758      -404.6539
   7   2.0000     -10.652457      -289.8681
   8   2.0000     -10.633713      -289.3580
   9   2.0000     -10.632442      -289.3235
  10   2.0000     -10.624453      -289.1061
  11   2.0000     -10.623647      -289.0841
  12   2.0000     -10.543621      -286.9065
  13   2.0000      -2.427229       -66.0483
  14   2.0000      -1.574963       -42.8569
  15   2.0000      -1.568499       -42.6810
  16   2.0000      -1.557681       -42.3867
  17   2.0000      -1.318751       -35.8850
  18   2.0000      -1.195221       -32.5236
  19   2.0000      -1.029529       -28.0149
  20   2.0000      -0.988166       -26.8894
  21   2.0000      -0.930656       -25.3244
  22   2.0000      -0.895582       -24.3700
  23   2.0000      -0.850148       -23.1337
  24   2.0000      -0.809968       -22.0404
  25   2.0000      -0.756076       -20.5739
  26   2.0000      -0.709152       -19.2970
  27   2.0000      -0.680724       -18.5234
  28   2.0000      -0.663183       -18.0461
  29   2.0000      -0.660635       -17.9768
  30   2.0000      -0.655016       -17.8239
  31   2.0000      -0.606910       -16.5149
  32   2.0000      -0.603001       -16.4085
  33   2.0000      -0.595630       -16.2079
  34   2.0000      -0.579852       -15.7786
  35   2.0000      -0.574552       -15.6344
  36   2.0000      -0.546534       -14.8720
  37   2.0000      -0.526581       -14.3290
  38   2.0000      -0.492208       -13.3937
  39   2.0000      -0.442250       -12.0342
  40   2.0000      -0.329435        -8.9644
  41   0.0000      -0.187534        -5.1031
  42   0.0000      -0.184507        -5.0207
  43   0.0000      -0.183684        -4.9983
  44   0.0000      -0.171178        -4.6580
  45   0.0000      -0.168285        -4.5793

MULLIKEN ATOMIC CHARGES
-----------------------
   0 Sc:    0.515670
   1 C :    0.208074
   2 N :   -0.413077
   3 C :   -0.061118
   4 C :   -0.063535
   5 N :   -0.418349
   6 C :   -0.523166
   7 H :    0.280538
   8 H :    0.280197
   9 H :    0.259016
  10 C :   -0.518562
  11 H :    0.254677
  12 H :    0.280482
  13 H :    0.279934
  14 H :    0.306110
  15 H :    0.306298
  16 C :   -0.895872
  17 H :    0.263938
  18 H :    0.269258
  19 H :    0.214405
  20 H :    0.175082
Sum of atomic charges:    1.0000000

LOEWDIN ATOMIC CHARGES
----------------------
   0 Sc:    0.365654
   1 C :   -0.049079
   2 N :    0.011156
   3 C :   -0.077148
   4 C :   -0.074906
   5 N :    0.008713
   6 C :   -0.238065
   7 H :    0.157838
   8 H :    0.153235
   9 H :    0.152050
  10 C :   -0.237048
  11 H :    0.150210
  12 H :    0.155679
  13 H :    0.156691
  14 H :    0.170580
  15 H :    0.169927
  16 C :   -0.516196
  17 H :    0.146599
  18 H :    0.151642
  19 H :    0.123867
  20 H :    0.118601

  Mayer bond orders larger than 0.100000
B(  0-Sc,  1-C ) :   0.6964 B(  1-C ,  2-N ) :   1.2271 B(  1-C ,  5-N ) :   1.2218
B(  2-N ,  3-C ) :   1.1614 B(  2-N , 10-C ) :   0.9090 B(  3-C ,  4-C ) :   1.6231
B(  3-C , 14-H ) :   0.8771 B(  4-C ,  5-N ) :   1.1606 B(  4-C , 15-H ) :   0.8771
B(  5-N ,  6-C ) :   0.9082 B(  6-C ,  7-H ) :   0.8986 B(  6-C ,  8-H ) :   0.8885
B(  6-C ,  9-H ) :   0.8967 B( 10-C , 11-H ) :   0.8928 B( 10-C , 12-H ) :   0.8924
B( 10-C , 13-H ) :   0.8947 B( 16-C , 17-H ) :   0.9141 B( 16-C , 18-H ) :   0.9117
B( 16-C , 19-H ) :   0.9212 B( 16-C , 20-H ) :   0.9332

Dispersion correction           -0.011003688
FINAL SINGLE POINT ENERGY     -1104.448141981493
Dispersion correction            ... done

DIPOLE MOMENT
-------------
                                X             Y             Z
Electronic contribution:      9.21779     -11.12052      -2.93626
Nuclear contribution   :     -8.99692      10.81401       2.89431
                        -----------------------------------------
Total Dipole Moment    :      0.22087      -0.30651      -0.04195
                        -----------------------------------------
Magnitude (a.u.)       :      0.38012
Magnitude (Debye)      :      0.96620

Rotational constants in cm-1:     0.041366     0.030434     0.023059
Rotational constants in MHz :  1240.133098   912.384757   691.296868

                             ****ORCA TERMINATED NORMALLY****
TOTAL RUN TIME: 0 days 0 hours 4 minutes 40 seconds 692 msec
