                         Program Version 5.0.3 -  RELEASE  -
|  1> ! EnGrad PBEh-3c
|  2> %output
|  3> xyzfile=True
|  4> end
|  5> %scf
|  6> maxiter 250
|  7> end
|  8> %output
|  9> Print[P_Hirshfeld] = 1
| 10> end
| 11> % maxcore
| 12> 4000
| 13> *xyz 1 1
| 14> Sc   1.54435234  -1.36891840  -1.63636186
| 15> C    0.48517263  -0.71944349   0.24242615
| 16> N   -0.44947362  -1.40882557   0.92318028
| 17> C   -0.88816039  -0.70005131   2.00626135
| 18> C   -0.21819648   0.47268118   1.99827535
| 19> N    0.62451257   0.43555178   0.92211191
| 20> C    1.50509792   1.53500074   0.56435979
| 21> H    1.86415168   2.01653079   1.46969738
| 22> H    0.98821005   2.27114471  -0.04856474
| 23> H    2.36670629   1.15655193   0.01861367
| 24> C   -0.96910902  -2.72461554   0.58843948
| 25> H   -0.40432364  -3.15301505  -0.23661470
| 26> H   -2.01391121  -2.65305989   0.29228258
| 27> H   -0.88179194  -3.38658275   1.44730254
| 28> H   -1.61549942  -1.08647924   2.70084631
| 29> H   -0.27007087   1.31079142   2.67213874
| 30> C   -0.36980108   1.60083334  -2.77743504
| 31> H   -0.81821923   1.05851603  -3.64188044
| 32> H   -0.54618031   2.67330871  -2.84560147
| 33> H   -0.69643923   1.17788085  -1.82019267
| 34> H    0.76327818   1.49369991  -2.83956897
| 35> *
| 36>
| 37>                          ****END OF INPUT****

CARTESIAN COORDINATES (ANGSTROEM)
---------------------------------
  Sc     1.544352   -1.368918   -1.636362
  C      0.485173   -0.719443    0.242426
  N     -0.449474   -1.408826    0.923180
  C     -0.888160   -0.700051    2.006261
  C     -0.218196    0.472681    1.998275
  N      0.624513    0.435552    0.922112
  C      1.505098    1.535001    0.564360
  H      1.864152    2.016531    1.469697
  H      0.988210    2.271145   -0.048565
  H      2.366706    1.156552    0.018614
  C     -0.969109   -2.724616    0.588439
  H     -0.404324   -3.153015   -0.236615
  H     -2.013911   -2.653060    0.292283
  H     -0.881792   -3.386583    1.447303
  H     -1.615499   -1.086479    2.700846
  H     -0.270071    1.310791    2.672139
  C     -0.369801    1.600833   -2.777435
  H     -0.818219    1.058516   -3.641880
  H     -0.546180    2.673309   -2.845601
  H     -0.696439    1.177881   -1.820193
  H      0.763278    1.493700   -2.839569

 Total Charge           Charge          ....    1
 Multiplicity           Mult            ....    1
 Number of Electrons    NEL             ....   82
 Basis Dimension        Dim             ....  175

ORBITAL ENERGIES
----------------

  NO   OCC          E(Eh)            E(eV)
   0   2.0000    -162.908350     -4432.9616
   1   2.0000     -18.218775      -495.7581
   2   2.0000     -15.059899      -409.8007
   3   2.0000     -15.057744      -409.7420
   4   2.0000     -15.043118      -409.3440
   5   2.0000     -14.870960      -404.6594
   6   2.0000     -14.870602      -404.6496
   7   2.0000     -10.652465      -289.8683
   8   2.0000     -10.633712      -289.3580
   9   2.0000     -10.632349      -289.3209
  10   2.0000     -10.623989      -289.0935
  11   2.0000     -10.623537      -289.0811
  12   2.0000     -10.547204      -287.0040
  13   2.0000      -2.427445       -66.0541
  14   2.0000      -1.575180       -42.8628
  15   2.0000      -1.568729       -42.6873
  16   2.0000      -1.557877       -42.3920
  17   2.0000      -1.318776       -35.8857
  18   2.0000      -1.195100       -32.5203
  19   2.0000      -1.029848       -28.0236
  20   2.0000      -0.988309       -26.8933
  21   2.0000      -0.930718       -25.3261
  22   2.0000      -0.892266       -24.2798
  23   2.0000      -0.850193       -23.1349
  24   2.0000      -0.810038       -22.0423
  25   2.0000      -0.756087       -20.5742
  26   2.0000      -0.709149       -19.2969
  27   2.0000      -0.680686       -18.5224
  28   2.0000      -0.663057       -18.0427
  29   2.0000      -0.660485       -17.9727
  30   2.0000      -0.655436       -17.8353
  31   2.0000      -0.607371       -16.5274
  32   2.0000      -0.603310       -16.4169
  33   2.0000      -0.595544       -16.2056
  34   2.0000      -0.575848       -15.6696
  35   2.0000      -0.565256       -15.3814
  36   2.0000      -0.554049       -15.0764
  37   2.0000      -0.526555       -14.3283
  38   2.0000      -0.492032       -13.3889
  39   2.0000      -0.442574       -12.0430
  40   2.0000      -0.329683        -8.9711
  41   0.0000      -0.187695        -5.1074
  42   0.0000      -0.184732        -5.0268
  43   0.0000      -0.183897        -5.0041
  44   0.0000      -0.171368        -4.6631
  45   0.0000      -0.168490        -4.5849

MULLIKEN ATOMIC CHARGES
-----------------------
   0 Sc:    0.515859
   1 C :    0.208496
   2 N :   -0.413114
   3 C :   -0.060739
   4 C :   -0.063644
   5 N :   -0.418852
   6 C :   -0.522933
   7 H :    0.280273
   8 H :    0.280691
   9 H :    0.259117
  10 C :   -0.518727
  11 H :    0.254562
  12 H :    0.280470
  13 H :    0.280060
  14 H :    0.306007
  15 H :    0.306105
  16 C :   -0.894890
  17 H :    0.251519
  18 H :    0.269209
  19 H :    0.210824
  20 H :    0.189707
Sum of atomic charges:    1.0000000

LOEWDIN ATOMIC CHARGES
----------------------
   0 Sc:    0.366923
   1 C :   -0.049132
   2 N :    0.011038
   3 C :   -0.076964
   4 C :   -0.074748
   5 N :    0.008446
   6 C :   -0.237963
   7 H :    0.157679
   8 H :    0.153178
   9 H :    0.151953
  10 C :   -0.237082
  11 H :    0.150219
  12 H :    0.155567
  13 H :    0.156725
  14 H :    0.170569
  15 H :    0.170018
  16 C :   -0.520595
  17 H :    0.147733
  18 H :    0.152086
  19 H :    0.123596
  20 H :    0.120754

  Mayer bond orders larger than 0.100000
B(  0-Sc,  1-C ) :   0.6966 B(  1-C ,  2-N ) :   1.2276 B(  1-C ,  5-N ) :   1.2224
B(  2-N ,  3-C ) :   1.1605 B(  2-N , 10-C ) :   0.9093 B(  3-C ,  4-C ) :   1.6250
B(  3-C , 14-H ) :   0.8772 B(  4-C ,  5-N ) :   1.1589 B(  4-C , 15-H ) :   0.8771
B(  5-N ,  6-C ) :   0.9084 B(  6-C ,  7-H ) :   0.8990 B(  6-C ,  8-H ) :   0.8881
B(  6-C ,  9-H ) :   0.8968 B( 10-C , 11-H ) :   0.8929 B( 10-C , 12-H ) :   0.8924
B( 10-C , 13-H ) :   0.8947 B( 16-C , 17-H ) :   0.9209 B( 16-C , 18-H ) :   0.9113
B( 16-C , 19-H ) :   0.9218 B( 16-C , 20-H ) :   0.9252

Dispersion correction           -0.011012374
FINAL SINGLE POINT ENERGY     -1104.450897942928
Dispersion correction            ... done

DIPOLE MOMENT
-------------
                                X             Y             Z
Electronic contribution:      9.20015     -11.04403      -2.94831
Nuclear contribution   :     -8.97279      10.73455       2.90011
                        -----------------------------------------
Total Dipole Moment    :      0.22737      -0.30948      -0.04819
                        -----------------------------------------
Magnitude (a.u.)       :      0.38703
Magnitude (Debye)      :      0.98376

Rotational constants in cm-1:     0.041613     0.030442     0.023023
Rotational constants in MHz :  1247.538106   912.625720   690.204187

                             ****ORCA TERMINATED NORMALLY****
TOTAL RUN TIME: 0 days 0 hours 4 minutes 44 seconds 318 msec
