                         Program Version 5.0.3 -  RELEASE  -
|  1> ! EnGrad PBEh-3c
|  2> %output
|  3> xyzfile=True
|  4> end
|  5> %scf
|  6> maxiter 250
|  7> end
|  8> %output
|  9> Print[P_Hirshfeld] = 1
| 10> end
| 11> % maxcore
| 12> 4000
| 13> *xyz 1 1
| 14> Sc   1.54423419  -1.36599243  -1.63683717
| 15> C    0.48385355  -0.71974871   0.24237537
| 16> N   -0.45034926  -1.40906597   0.92366332
| 17> C   -0.88806883  -0.70294150   2.00800612
| 18> C   -0.21509887   0.47309286   2.00010039
| 19> N    0.62240167   0.43594167   0.92177887
| 20> C    1.50436493   1.53409165   0.56394370
| 21> H    1.86161808   2.01668737   1.47009037
| 22> H    0.98772541   2.26961950  -0.04905072
| 23> H    2.36594075   1.15808201   0.01833034
| 24> C   -0.96843729  -2.72412814   0.58846704
| 25> H   -0.40492379  -3.15126758  -0.23703304
| 26> H   -2.01312498  -2.65210348   0.29366535
| 27> H   -0.88032093  -3.38746542   1.44602361
| 28> H   -1.61638591  -1.08600164   2.69957239
| 29> H   -0.26805517   1.30986364   2.67425453
| 30> C   -0.32582051   1.59108219  -2.78744581
| 31> H   -0.81314737   1.06494060  -3.62915957
| 32> H   -0.55442373   2.67304306  -2.84572081
| 33> H   -0.69945474   1.18184212  -1.82489239
| 34> H    0.72797860   1.49240134  -2.84049430
| 35> *
| 36>
| 37>                          ****END OF INPUT****

CARTESIAN COORDINATES (ANGSTROEM)
---------------------------------
  Sc     1.544234   -1.365992   -1.636837
  C      0.483854   -0.719749    0.242375
  N     -0.450349   -1.409066    0.923663
  C     -0.888069   -0.702941    2.008006
  C     -0.215099    0.473093    2.000100
  N      0.622402    0.435942    0.921779
  C      1.504365    1.534092    0.563944
  H      1.861618    2.016687    1.470090
  H      0.987725    2.269620   -0.049051
  H      2.365941    1.158082    0.018330
  C     -0.968437   -2.724128    0.588467
  H     -0.404924   -3.151268   -0.237033
  H     -2.013125   -2.652103    0.293665
  H     -0.880321   -3.387465    1.446024
  H     -1.616386   -1.086002    2.699572
  H     -0.268055    1.309864    2.674255
  C     -0.325821    1.591082   -2.787446
  H     -0.813147    1.064941   -3.629160
  H     -0.554424    2.673043   -2.845721
  H     -0.699455    1.181842   -1.824892
  H      0.727979    1.492401   -2.840494

 Total Charge           Charge          ....    1
 Multiplicity           Mult            ....    1
 Number of Electrons    NEL             ....   82
 Basis Dimension        Dim             ....  175

ORBITAL ENERGIES
----------------

  NO   OCC          E(Eh)            E(eV)
   0   2.0000    -162.908560     -4432.9673
   1   2.0000     -18.218978      -495.7636
   2   2.0000     -15.060093      -409.8060
   3   2.0000     -15.057961      -409.7480
   4   2.0000     -15.043316      -409.3494
   5   2.0000     -14.871087      -404.6629
   6   2.0000     -14.870710      -404.6526
   7   2.0000     -10.652274      -289.8631
   8   2.0000     -10.634010      -289.3661
   9   2.0000     -10.632518      -289.3255
  10   2.0000     -10.623884      -289.0906
  11   2.0000     -10.623295      -289.0746
  12   2.0000     -10.540518      -286.8221
  13   2.0000      -2.427627       -66.0591
  14   2.0000      -1.575334       -42.8670
  15   2.0000      -1.568959       -42.6936
  16   2.0000      -1.558030       -42.3962
  17   2.0000      -1.318828       -35.8871
  18   2.0000      -1.195557       -32.5328
  19   2.0000      -1.029470       -28.0133
  20   2.0000      -0.988360       -26.8946
  21   2.0000      -0.931043       -25.3350
  22   2.0000      -0.896865       -24.4049
  23   2.0000      -0.850523       -23.1439
  24   2.0000      -0.809922       -22.0391
  25   2.0000      -0.756263       -20.5790
  26   2.0000      -0.709204       -19.2984
  27   2.0000      -0.681246       -18.5377
  28   2.0000      -0.663542       -18.0559
  29   2.0000      -0.660744       -17.9798
  30   2.0000      -0.655061       -17.8251
  31   2.0000      -0.607319       -16.5260
  32   2.0000      -0.603518       -16.4226
  33   2.0000      -0.595432       -16.2025
  34   2.0000      -0.575443       -15.6586
  35   2.0000      -0.566185       -15.4067
  36   2.0000      -0.560522       -15.2526
  37   2.0000      -0.526445       -14.3253
  38   2.0000      -0.492242       -13.3946
  39   2.0000      -0.441817       -12.0225
  40   2.0000      -0.329942        -8.9782
  41   0.0000      -0.187737        -5.1086
  42   0.0000      -0.184925        -5.0321
  43   0.0000      -0.184073        -5.0089
  44   0.0000      -0.171516        -4.6672
  45   0.0000      -0.168531        -4.5860

MULLIKEN ATOMIC CHARGES
-----------------------
   0 Sc:    0.517475
   1 C :    0.207928
   2 N :   -0.412405
   3 C :   -0.061612
   4 C :   -0.064206
   5 N :   -0.417900
   6 C :   -0.523338
   7 H :    0.280127
   8 H :    0.281152
   9 H :    0.259223
  10 C :   -0.519107
  11 H :    0.254585
  12 H :    0.280414
  13 H :    0.280118
  14 H :    0.306338
  15 H :    0.306442
  16 C :   -0.908736
  17 H :    0.251859
  18 H :    0.262649
  19 H :    0.203900
  20 H :    0.215091
Sum of atomic charges:    1.0000000

LOEWDIN ATOMIC CHARGES
----------------------
   0 Sc:    0.369388
   1 C :   -0.049720
   2 N :    0.011705
   3 C :   -0.077065
   4 C :   -0.074723
   5 N :    0.009109
   6 C :   -0.238045
   7 H :    0.157731
   8 H :    0.153323
   9 H :    0.151847
  10 C :   -0.237204
  11 H :    0.150161
  12 H :    0.155529
  13 H :    0.156754
  14 H :    0.170274
  15 H :    0.169964
  16 C :   -0.526369
  17 H :    0.147424
  18 H :    0.152497
  19 H :    0.123367
  20 H :    0.124053

  Mayer bond orders larger than 0.100000
B(  0-Sc,  1-C ) :   0.6976 B(  1-C ,  2-N ) :   1.2270 B(  1-C ,  5-N ) :   1.2212
B(  2-N ,  3-C ) :   1.1631 B(  2-N , 10-C ) :   0.9097 B(  3-C ,  4-C ) :   1.6217
B(  3-C , 14-H ) :   0.8770 B(  4-C ,  5-N ) :   1.1619 B(  4-C , 15-H ) :   0.8769
B(  5-N ,  6-C ) :   0.9084 B(  6-C ,  7-H ) :   0.8991 B(  6-C ,  8-H ) :   0.8878
B(  6-C ,  9-H ) :   0.8966 B( 10-C , 11-H ) :   0.8930 B( 10-C , 12-H ) :   0.8925
B( 10-C , 13-H ) :   0.8947 B( 16-C , 17-H ) :   0.9224 B( 16-C , 18-H ) :   0.9170
B( 16-C , 19-H ) :   0.9271 B( 16-C , 20-H ) :   0.9155

Dispersion correction           -0.011016600
FINAL SINGLE POINT ENERGY     -1104.452171058765
Dispersion correction            ... done

DIPOLE MOMENT
-------------
                                X             Y             Z
Electronic contribution:      9.25846     -11.05085      -2.95570
Nuclear contribution   :     -9.03725      10.73682       2.91324
                        -----------------------------------------
Total Dipole Moment    :      0.22121      -0.31403      -0.04246
                        -----------------------------------------
Magnitude (a.u.)       :      0.38646
Magnitude (Debye)      :      0.98230

Rotational constants in cm-1:     0.041865     0.030452     0.022994
Rotational constants in MHz :  1255.083937   912.913042   689.349339

                             ****ORCA TERMINATED NORMALLY****
TOTAL RUN TIME: 0 days 0 hours 4 minutes 42 seconds 195 msec
