                         Program Version 5.0.3 -  RELEASE  -
|  1> ! EnGrad PBEh-3c
|  2> %output
|  3> xyzfile=True
|  4> end
|  5> %scf
|  6> maxiter 250
|  7> end
|  8> %output
|  9> Print[P_Hirshfeld] = 1
| 10> end
| 11> % maxcore
| 12> 4000
| 13> *xyz 1 1
| 14> Sc   1.54458224  -1.36408481  -1.63679895
| 15> C    0.48342037  -0.72047497   0.24247953
| 16> N   -0.45104938  -1.40934756   0.92427703
| 17> C   -0.88654241  -0.70237104   2.00818497
| 18> C   -0.21384551   0.47061990   2.00154635
| 19> N    0.62032518   0.43660849   0.92051044
| 20> C    1.50394791   1.53370473   0.56366340
| 21> H    1.86090950   2.01657596   1.47007739
| 22> H    0.98661175   2.26833018  -0.04916398
| 23> H    2.36578031   1.15876468   0.01786652
| 24> C   -0.96815523  -2.72401890   0.58858085
| 25> H   -0.40480554  -3.15017410  -0.23695462
| 26> H   -2.01254710  -2.65154634   0.29430902
| 27> H   -0.87936338  -3.38790982   1.44519981
| 28> H   -1.61807451  -1.08560628   2.69891245
| 29> H   -0.26656715   1.30964933   2.67570960
| 30> C   -0.31183341   1.58784902  -2.79137020
| 31> H   -0.80490870   1.07419978  -3.61238385
| 32> H   -0.56215590   2.66213689  -2.84461396
| 33> H   -0.70011715   1.18929419  -1.83775667
| 34> H    0.71504867   1.49017612  -2.84270256
| 35> *
| 36>
| 37>                          ****END OF INPUT****

CARTESIAN COORDINATES (ANGSTROEM)
---------------------------------
  Sc     1.544582   -1.364085   -1.636799
  C      0.483420   -0.720475    0.242480
  N     -0.451049   -1.409348    0.924277
  C     -0.886542   -0.702371    2.008185
  C     -0.213846    0.470620    2.001546
  N      0.620325    0.436608    0.920510
  C      1.503948    1.533705    0.563663
  H      1.860909    2.016576    1.470077
  H      0.986612    2.268330   -0.049164
  H      2.365780    1.158765    0.017867
  C     -0.968155   -2.724019    0.588581
  H     -0.404806   -3.150174   -0.236955
  H     -2.012547   -2.651546    0.294309
  H     -0.879363   -3.387910    1.445200
  H     -1.618075   -1.085606    2.698912
  H     -0.266567    1.309649    2.675710
  C     -0.311833    1.587849   -2.791370
  H     -0.804909    1.074200   -3.612384
  H     -0.562156    2.662137   -2.844614
  H     -0.700117    1.189294   -1.837757
  H      0.715049    1.490176   -2.842703

 Total Charge           Charge          ....    1
 Multiplicity           Mult            ....    1
 Number of Electrons    NEL             ....   82
 Basis Dimension        Dim             ....  175

ORBITAL ENERGIES
----------------

  NO   OCC          E(Eh)            E(eV)
   0   2.0000    -162.908593     -4432.9682
   1   2.0000     -18.219007      -495.7644
   2   2.0000     -15.060118      -409.8066
   3   2.0000     -15.058002      -409.7491
   4   2.0000     -15.043340      -409.3501
   5   2.0000     -14.870914      -404.6582
   6   2.0000     -14.870560      -404.6485
   7   2.0000     -10.652261      -289.8628
   8   2.0000     -10.633808      -289.3606
   9   2.0000     -10.632277      -289.3190
  10   2.0000     -10.623858      -289.0899
  11   2.0000     -10.623119      -289.0698
  12   2.0000     -10.534426      -286.6563
  13   2.0000      -2.427671       -66.0603
  14   2.0000      -1.575362       -42.8678
  15   2.0000      -1.569038       -42.6957
  16   2.0000      -1.558065       -42.3971
  17   2.0000      -1.318950       -35.8904
  18   2.0000      -1.195540       -32.5323
  19   2.0000      -1.029891       -28.0248
  20   2.0000      -0.988248       -26.8916
  21   2.0000      -0.931120       -25.3371
  22   2.0000      -0.901750       -24.5379
  23   2.0000      -0.850209       -23.1354
  24   2.0000      -0.810153       -22.0454
  25   2.0000      -0.756146       -20.5758
  26   2.0000      -0.709290       -19.3008
  27   2.0000      -0.680854       -18.5270
  28   2.0000      -0.663232       -18.0475
  29   2.0000      -0.660875       -17.9833
  30   2.0000      -0.655168       -17.8280
  31   2.0000      -0.607595       -16.5335
  32   2.0000      -0.603402       -16.4194
  33   2.0000      -0.595617       -16.2076
  34   2.0000      -0.583243       -15.8708
  35   2.0000      -0.565952       -15.4003
  36   2.0000      -0.561152       -15.2697
  37   2.0000      -0.526435       -14.3250
  38   2.0000      -0.492123       -13.3913
  39   2.0000      -0.442062       -12.0291
  40   2.0000      -0.330041        -8.9809
  41   0.0000      -0.187806        -5.1105
  42   0.0000      -0.184987        -5.0337
  43   0.0000      -0.184139        -5.0107
  44   0.0000      -0.171580        -4.6689
  45   0.0000      -0.168510        -4.5854

MULLIKEN ATOMIC CHARGES
-----------------------
   0 Sc:    0.518327
   1 C :    0.207819
   2 N :   -0.412307
   3 C :   -0.061321
   4 C :   -0.063984
   5 N :   -0.418010
   6 C :   -0.523364
   7 H :    0.280082
   8 H :    0.281329
   9 H :    0.259204
  10 C :   -0.519106
  11 H :    0.254543
  12 H :    0.280301
  13 H :    0.280121
  14 H :    0.306047
  15 H :    0.306229
  16 C :   -0.918268
  17 H :    0.255060
  18 H :    0.261857
  19 H :    0.203771
  20 H :    0.221670
Sum of atomic charges:    1.0000000

LOEWDIN ATOMIC CHARGES
----------------------
   0 Sc:    0.370440
   1 C :   -0.049275
   2 N :    0.011657
   3 C :   -0.077290
   4 C :   -0.074944
   5 N :    0.008957
   6 C :   -0.238036
   7 H :    0.157758
   8 H :    0.153347
   9 H :    0.151840
  10 C :   -0.237191
  11 H :    0.150153
  12 H :    0.155461
  13 H :    0.156710
  14 H :    0.170389
  15 H :    0.170146
  16 C :   -0.528158
  17 H :    0.147079
  18 H :    0.152685
  19 H :    0.123754
  20 H :    0.124519

  Mayer bond orders larger than 0.100000
B(  0-Sc,  1-C ) :   0.6980 B(  1-C ,  2-N ) :   1.2273 B(  1-C ,  5-N ) :   1.2217
B(  2-N ,  3-C ) :   1.1627 B(  2-N , 10-C ) :   0.9101 B(  3-C ,  4-C ) :   1.6226
B(  3-C , 14-H ) :   0.8772 B(  4-C ,  5-N ) :   1.1610 B(  4-C , 15-H ) :   0.8770
B(  5-N ,  6-C ) :   0.9083 B(  6-C ,  7-H ) :   0.8992 B(  6-C ,  8-H ) :   0.8878
B(  6-C ,  9-H ) :   0.8966 B( 10-C , 11-H ) :   0.8931 B( 10-C , 12-H ) :   0.8926
B( 10-C , 13-H ) :   0.8947 B( 16-C , 17-H ) :   0.9218 B( 16-C , 18-H ) :   0.9189
B( 16-C , 19-H ) :   0.9288 B( 16-C , 20-H ) :   0.9143

Dispersion correction           -0.011014768
FINAL SINGLE POINT ENERGY     -1104.451041148728
Dispersion correction            ... done

DIPOLE MOMENT
-------------
                                X             Y             Z
Electronic contribution:      9.27514     -11.05084      -2.95737
Nuclear contribution   :     -9.05954      10.73438       2.91765
                        -----------------------------------------
Total Dipole Moment    :      0.21560      -0.31646      -0.03973
                        -----------------------------------------
Magnitude (a.u.)       :      0.38498
Magnitude (Debye)      :      0.97855

Rotational constants in cm-1:     0.041969     0.030454     0.022991
Rotational constants in MHz :  1258.211813   912.998381   689.247888

                             ****ORCA TERMINATED NORMALLY****
TOTAL RUN TIME: 0 days 0 hours 4 minutes 39 seconds 89 msec
