                         Program Version 5.0.3 -  RELEASE  -
|  1> ! EnGrad PBEh-3c
|  2> %output
|  3> xyzfile=True
|  4> end
|  5> %scf
|  6> maxiter 250
|  7> end
|  8> %output
|  9> Print[P_Hirshfeld] = 1
| 10> end
| 11> % maxcore
| 12> 4000
| 13> *xyz 1 1
| 14> Sc   1.54365875  -1.35660256  -1.63776635
| 15> C    0.48116018  -0.72122020   0.24246805
| 16> N   -0.45179893  -1.40969417   0.92544749
| 17> C   -0.88435586  -0.70416173   2.01171942
| 18> C   -0.20867820   0.46671921   2.00801114
| 19> N    0.61484575   0.43754565   0.91725476
| 20> C    1.50130874   1.53355948   0.56358749
| 21> H    1.85602615   2.01782813   1.47067871
| 22> H    0.98241525   2.26490438  -0.05075568
| 23> H    2.36559800   1.16120468   0.01831648
| 24> C   -0.96788773  -2.72349245   0.58888357
| 25> H   -0.40570610  -3.14552247  -0.23917878
| 26> H   -2.01223207  -2.64977226   0.29777214
| 27> H   -0.87484992  -3.39019380   1.44186255
| 28> H   -1.62081396  -1.08541511   2.69785703
| 29> H   -0.26079413   1.30634494   2.68129520
| 30> C   -0.30761399   1.59016267  -2.79235282
| 31> H   -0.78557300   1.09400048  -3.57500159
| 32> H   -0.57653654   2.62865915  -2.84423593
| 33> H   -0.69800752   1.21011532  -1.87416308
| 34> H    0.71092362   1.47870604  -2.85231978
| 35> *
| 36>
| 37>                          ****END OF INPUT****

CARTESIAN COORDINATES (ANGSTROEM)
---------------------------------
  Sc     1.543659   -1.356603   -1.637766
  C      0.481160   -0.721220    0.242468
  N     -0.451799   -1.409694    0.925447
  C     -0.884356   -0.704162    2.011719
  C     -0.208678    0.466719    2.008011
  N      0.614846    0.437546    0.917255
  C      1.501309    1.533559    0.563587
  H      1.856026    2.017828    1.470679
  H      0.982415    2.264904   -0.050756
  H      2.365598    1.161205    0.018316
  C     -0.967888   -2.723492    0.588884
  H     -0.405706   -3.145522   -0.239179
  H     -2.012232   -2.649772    0.297772
  H     -0.874850   -3.390194    1.441863
  H     -1.620814   -1.085415    2.697857
  H     -0.260794    1.306345    2.681295
  C     -0.307614    1.590163   -2.792353
  H     -0.785573    1.094000   -3.575002
  H     -0.576537    2.628659   -2.844236
  H     -0.698008    1.210115   -1.874163
  H      0.710924    1.478706   -2.852320

 Total Charge           Charge          ....    1
 Multiplicity           Mult            ....    1
 Number of Electrons    NEL             ....   82
 Basis Dimension        Dim             ....  175

ORBITAL ENERGIES
----------------

  NO   OCC          E(Eh)            E(eV)
   0   2.0000    -162.908566     -4432.9675
   1   2.0000     -18.218976      -495.7635
   2   2.0000     -15.060078      -409.8056
   3   2.0000     -15.057992      -409.7488
   4   2.0000     -15.043295      -409.3489
   5   2.0000     -14.870745      -404.6535
   6   2.0000     -14.870498      -404.6468
   7   2.0000     -10.652151      -289.8598
   8   2.0000     -10.633884      -289.3627
   9   2.0000     -10.632295      -289.3194
  10   2.0000     -10.623941      -289.0921
  11   2.0000     -10.622771      -289.0603
  12   2.0000     -10.521732      -286.3109
  13   2.0000      -2.427694       -66.0609
  14   2.0000      -1.575361       -42.8678
  15   2.0000      -1.569126       -42.6981
  16   2.0000      -1.558086       -42.3977
  17   2.0000      -1.319022       -35.8924
  18   2.0000      -1.195500       -32.5312
  19   2.0000      -1.030045       -28.0290
  20   2.0000      -0.988448       -26.8970
  21   2.0000      -0.931021       -25.3344
  22   2.0000      -0.911578       -24.8053
  23   2.0000      -0.850332       -23.1387
  24   2.0000      -0.810095       -22.0438
  25   2.0000      -0.756161       -20.5762
  26   2.0000      -0.709431       -19.3046
  27   2.0000      -0.680976       -18.5303
  28   2.0000      -0.662914       -18.0388
  29   2.0000      -0.661265       -17.9939
  30   2.0000      -0.655311       -17.8319
  31   2.0000      -0.607608       -16.5339
  32   2.0000      -0.603363       -16.4183
  33   2.0000      -0.595871       -16.2145
  34   2.0000      -0.588634       -16.0176
  35   2.0000      -0.572481       -15.5780
  36   2.0000      -0.566962       -15.4278
  37   2.0000      -0.526761       -14.3339
  38   2.0000      -0.491948       -13.3866
  39   2.0000      -0.442296       -12.0355
  40   2.0000      -0.330158        -8.9841
  41   0.0000      -0.187888        -5.1127
  42   0.0000      -0.185062        -5.0358
  43   0.0000      -0.184224        -5.0130
  44   0.0000      -0.171716        -4.6726
  45   0.0000      -0.168478        -4.5845

MULLIKEN ATOMIC CHARGES
-----------------------
   0 Sc:    0.519348
   1 C :    0.207926
   2 N :   -0.412226
   3 C :   -0.061253
   4 C :   -0.064262
   5 N :   -0.418106
   6 C :   -0.523492
   7 H :    0.280038
   8 H :    0.281829
   9 H :    0.259164
  10 C :   -0.518985
  11 H :    0.254243
  12 H :    0.280094
  13 H :    0.280213
  14 H :    0.306000
  15 H :    0.306342
  16 C :   -0.934175
  17 H :    0.262369
  18 H :    0.266304
  19 H :    0.210268
  20 H :    0.218363
Sum of atomic charges:    1.0000000

LOEWDIN ATOMIC CHARGES
----------------------
   0 Sc:    0.371433
   1 C :   -0.049153
   2 N :    0.011678
   3 C :   -0.077087
   4 C :   -0.074837
   5 N :    0.008786
   6 C :   -0.237997
   7 H :    0.157857
   8 H :    0.153432
   9 H :    0.151876
  10 C :   -0.237143
  11 H :    0.150071
  12 H :    0.155352
  13 H :    0.156627
  14 H :    0.170333
  15 H :    0.170202
  16 C :   -0.530527
  17 H :    0.145696
  18 H :    0.152750
  19 H :    0.124979
  20 H :    0.125670

  Mayer bond orders larger than 0.100000
B(  0-Sc,  1-C ) :   0.6984 B(  1-C ,  2-N ) :   1.2275 B(  1-C ,  5-N ) :   1.2223
B(  2-N ,  3-C ) :   1.1626 B(  2-N , 10-C ) :   0.9106 B(  3-C ,  4-C ) :   1.6235
B(  3-C , 14-H ) :   0.8772 B(  4-C ,  5-N ) :   1.1598 B(  4-C , 15-H ) :   0.8769
B(  5-N ,  6-C ) :   0.9078 B(  6-C ,  7-H ) :   0.8993 B(  6-C ,  8-H ) :   0.8876
B(  6-C ,  9-H ) :   0.8965 B( 10-C , 11-H ) :   0.8933 B( 10-C , 12-H ) :   0.8928
B( 10-C , 13-H ) :   0.8947 B( 16-C , 17-H ) :   0.9193 B( 16-C , 18-H ) :   0.9193
B( 16-C , 19-H ) :   0.9286 B( 16-C , 20-H ) :   0.9204

Dispersion correction           -0.011013798
FINAL SINGLE POINT ENERGY     -1104.448766460186
Dispersion correction            ... done

DIPOLE MOMENT
-------------
                                X             Y             Z
Electronic contribution:      9.26017     -11.01496      -2.94644
Nuclear contribution   :     -9.05400      10.69483       2.91261
                        -----------------------------------------
Total Dipole Moment    :      0.20617      -0.32012      -0.03384
                        -----------------------------------------
Magnitude (a.u.)       :      0.38227
Magnitude (Debye)      :      0.97166

Rotational constants in cm-1:     0.042110     0.030439     0.022994
Rotational constants in MHz :  1262.426196   912.536399   689.337055

                             ****ORCA TERMINATED NORMALLY****
TOTAL RUN TIME: 0 days 0 hours 4 minutes 37 seconds 289 msec
